Title
82249
    1SAPS     N    1   3.523   3.449  11.277 -0.3256 -0.3558 -0.4919
    1SAPS   HN1    2   3.438   3.412  11.230 -0.9469 -0.6567  0.8463
    1SAPS   HN2    3   3.501   3.533  11.334 -2.0051  0.5297 -2.3910
    1SAPS   HN3    4   3.584   3.484  11.200 -0.1093 -0.9262 -0.5839
    1SAPS   C12    5   3.573   3.336  11.367 -0.4773  0.5565  0.3882
    1SAPS  H12A    6   3.662   3.366  11.419 -0.4904 -0.2611  0.8905
    1SAPS   C13    7   3.468   3.277  11.466  0.0646  0.4908  0.0715
    1SAPS  O13A    8   3.358   3.330  11.484 -0.2533  0.0487 -0.5562
    1SAPS  O13B    9   3.511   3.184  11.543  0.0981  0.3765  0.4133
    1SAPS   C11   10   3.596   3.227  11.257 -0.6012  0.4765  0.1976
    1SAPS  H11A   11   3.499   3.175  11.241 -1.2705  1.4352  1.1320
    1SAPS  H11B   12   3.664   3.151  11.302 -0.2606  0.5368 -0.2084
    1SAPS     P   13   3.727   3.177  11.036 -0.3984 -0.5815  0.4687
    1SAPS   O13   14   3.866   3.211  10.993 -0.5318  0.9165  0.0908
    1SAPS   O14   15   3.706   3.039  11.088 -0.0118 -0.1247  0.2154
    1SAPS   O12   16   3.661   3.273  11.136 -0.2956  0.3395  0.0380
    1SAPS   O11   17   3.631   3.191  10.912  0.0676 -0.4260  0.0776
    1SAPS    C1   18   3.658   3.271  10.799 -0.1527  0.1344  0.8211
    1SAPS    HA   19   3.686   3.374  10.829 -0.1928  1.0146 -2.0156
    1SAPS    HB   20   3.744   3.225  10.745 -1.5673 -0.5009 -0.9493
    1SAPS    C2   21   3.516   3.276  10.714  0.0253 -0.7154  0.6885
    1SAPS    HS   22   3.434   3.315  10.777  1.3338  1.5328  1.0548
    1SAPS   O21   23   3.492   3.143  10.654  0.4995  0.1273 -0.2842
    1SAPS   C21   24   3.375   3.138  10.597  0.4881 -0.2360  0.1759
    1SAPS   O22   25   3.288   3.226  10.592 -0.3534  0.1701 -0.2355
    1SAPS   C22   26   3.354   3.004  10.543 -0.1344  0.0712  0.1538
    1SAPS   H2R   27   3.430   2.937  10.590  0.7387  0.4514 -0.7069
    1SAPS   H2S   28   3.248   2.982  10.569 -0.8062  3.5079  0.5425
    1SAPS    C3   29   3.529   3.400  10.616  0.1447 -0.5939  0.3586
    1SAPS    HX   30   3.540   3.494  10.674  0.5637 -0.4366  0.0253
    1SAPS    HY   31   3.440   3.412  10.550  0.7334  2.5673  0.0577
    1SAPS   O31   32   3.652   3.385  10.547  0.2352  0.2930  0.6320
    1SAPS   C31   33   3.644   3.357  10.412  0.6737  0.1305 -0.0396
    1SAPS   O32   34   3.539   3.364  10.349 -0.3418 -0.2232  0.5931
    1SAPS   C32   35   3.777   3.323  10.348  0.6052 -0.0294  0.4330
    1SAPS   H2X   36   3.754   3.341  10.241  0.2352 -0.3433  0.4578
    1SAPS   H2Y   37   3.792   3.214  10.368  1.1424  0.3541  2.1870
    1SAPS   C23   38   3.361   2.999  10.392 -0.6691  0.8831  0.1557
    1SAPS   H3R   39   3.463   3.022  10.356 -0.3866  2.1818  1.7447
    1SAPS   H3S   40   3.290   3.076  10.353 -1.1067  1.4927  2.0995
    1SAPS   C24   41   3.310   2.856  10.345  0.6887 -1.0418  0.4812
    1SAPS   H4R   42   3.302   2.859  10.234  1.3140  0.4388  0.4620
    1SAPS   H4S   43   3.214   2.836  10.396  0.1786 -0.1243 -0.1131
    1SAPS   C25   44   3.414   2.756  10.382  0.4543 -0.4947 -0.3201
    1SAPS   H5R   45   3.410   2.711  10.482  0.5304 -2.0347 -0.9964
    1SAPS   C26   46   3.493   2.701  10.302 -0.3304  0.2676 -0.4750
    1SAPS   H6R   47   3.570   2.631  10.339 -1.6821 -0.8676  0.2168
    1SAPS   C27   48   3.503   2.738  10.158 -0.1771  0.1704 -0.3043
    1SAPS   H7R   49   3.609   2.758  10.132  0.5847 -0.1005  2.5073
    1SAPS   H7S   50   3.446   2.829  10.127 -0.3169  0.0566 -0.3873
    1SAPS   C28   51   3.441   2.623  10.072  0.4738  0.0067  0.4622
    1SAPS   H8R   52   3.397   2.536  10.122 -1.1548  0.4146 -0.2278
    1SAPS   C29   53   3.433   2.627   9.942  0.2758  0.1619  0.9395
    1SAPS   H9R   54   3.380   2.541   9.897 -1.4593  1.2810  0.7693
    1SAPS  C210   55   3.475   2.737   9.849 -0.7903  0.6763 -0.2594
    1SAPS  H10R   56   3.499   2.832   9.900 -0.6902  1.1577 -1.1876
    1SAPS  H10S   57   3.395   2.749   9.773 -0.5839  1.0319 -0.4218
    1SAPS  C211   58   3.600   2.679   9.785  0.2891  0.2138 -0.3912
    1SAPS  H11R   59   3.691   2.702   9.842 -1.0355 -1.8695  2.6928
    1SAPS  C212   60   3.611   2.628   9.660  0.2516  0.0934  0.1638
    1SAPS  H12R   61   3.707   2.609   9.609  0.4100 -0.3455  0.6279
    1SAPS  C213   62   3.495   2.609   9.567 -0.1102 -0.2179  0.1278
    1SAPS  H13R   63   3.450   2.707   9.542 -0.4780 -1.0778 -2.7681
    1SAPS  H13S   64   3.413   2.552   9.617  0.7448 -0.5973  1.1244
    1SAPS  C214   65   3.530   2.535   9.438  0.1765  0.7961 -0.9419
    1SAPS  H14R   66   3.582   2.439   9.448 -0.4143  0.6139  0.5601
    1SAPS  C215   67   3.536   2.595   9.315 -0.0587 -0.4700  0.8466
    1SAPS  H15R   68   3.561   2.528   9.231 -2.6193 -1.2659  0.6985
    1SAPS  C216   69   3.493   2.740   9.291  0.4992  0.1850  0.0864
    1SAPS  H16R   70   3.523   2.796   9.382  2.2253 -0.0239 -0.3427
    1SAPS  H16S   71   3.382   2.733   9.287  0.0413  5.7365 -0.5841
    1SAPS  C217   72   3.549   2.805   9.163  0.2190  0.1458  0.2409
    1SAPS  H17R   73   3.659   2.819   9.172  0.5658 -1.5230 -1.0493
    1SAPS  H17S   74   3.504   2.906   9.165  0.6239  0.2977  3.1114
    1SAPS  C218   75   3.521   2.728   9.031 -0.4008 -0.5252 -0.4947
    1SAPS  H18R   76   3.410   2.723   9.032 -0.5065  0.5499  3.4159
    1SAPS  H18S   77   3.564   2.625   9.032  0.4092 -0.2046  2.0401
    1SAPS  C219   78   3.580   2.786   8.908  0.0963  0.4186 -0.3225
    1SAPS  H19R   79   3.541   2.890   8.907 -0.0647  0.3777  0.7034
    1SAPS  H19S   80   3.533   2.745   8.816 -0.7462 -0.5338  0.5212
    1SAPS  C220   81   3.733   2.770   8.895  0.1821 -0.3702 -0.4187
    1SAPS  H20R   82   3.771   2.833   8.812  0.5064 -0.4137 -0.3051
    1SAPS  H20S   83   3.764   2.664   8.879 -0.5258 -0.9074  1.5269
    1SAPS  H20T   84   3.788   2.800   8.987 -0.3185  1.4557 -0.7072
    1SAPS   C33   85   3.898   3.404  10.385 -0.2145 -0.1236 -1.0905
    1SAPS   H3X   86   3.906   3.400  10.496  0.7807  1.2609 -1.0919
    1SAPS   H3Y   87   3.870   3.508  10.355  1.6766  0.5311 -0.6389
    1SAPS   C34   88   4.027   3.357  10.318 -0.0907 -0.2814  0.9250
    1SAPS   H4X   89   4.040   3.250  10.342 -1.5288 -0.9666 -1.2061
    1SAPS   H4Y   90   4.110   3.405  10.374 -0.3242  2.1744 -0.7416
    1SAPS   C35   91   4.014   3.390  10.169  0.4506  0.3999 -0.6044
    1SAPS   H5X   92   4.031   3.499  10.151 -0.0064  0.2712 -1.8362
    1SAPS   H5Y   93   3.920   3.355  10.122  0.7097 -2.0234  0.6355
    1SAPS   C36   94   4.127   3.336  10.084 -0.8603  0.3925  0.5162
    1SAPS   H6X   95   4.131   3.225  10.089 -1.3900  0.3126 -0.5554
    1SAPS   H6Y   96   4.228   3.368  10.116 -0.7398 -0.5355  1.1007
    1SAPS   C37   97   4.106   3.382   9.936  0.6533  0.2676 -0.6479
    1SAPS   H7X   98   4.071   3.487   9.920 -0.6628 -0.4308 -2.5816
    1SAPS   H7Y   99   4.020   3.321   9.899  0.6445  0.8922 -1.6529
    1SAPS   C38  100   4.216   3.350   9.835  0.4244 -0.3150  0.0176
    1SAPS   H8X  101   4.214   3.240   9.825 -1.9212 -0.2889 -0.1750
    1SAPS   H8Y  102   4.311   3.395   9.870 -0.2303  0.0294  1.4030
    1SAPS   C39  103   4.176   3.402   9.687  0.4989 -1.0847 -0.5521
    1SAPS   H9X  104   4.069   3.372   9.679 -0.1045  0.4728  1.4770
    1SAPS   H9Y  105   4.232   3.355   9.603  3.2503  1.1834 -0.0399
    1SAPS  C310  106   4.190   3.553   9.670  0.2702  0.3066  0.0929
    1SAPS  H10X  107   4.298   3.577   9.658  0.3335  1.0393  1.9608
    1SAPS  H10Y  108   4.152   3.604   9.762 -0.8402  0.7613 -0.6079
    1SAPS  C311  109   4.116   3.614   9.546  0.1666  0.1506  0.1536
    1SAPS  H11X  110   4.186   3.588   9.463  2.1876 -1.3509  2.2691
    1SAPS  H11Y  111   4.113   3.725   9.548 -0.0219  0.1546 -0.2885
    1SAPS  C312  112   3.978   3.561   9.517 -0.2394  0.0393 -0.2318
    1SAPS  H12X  113   3.917   3.551   9.609  0.8004  2.1269  0.7006
    1SAPS  H12Y  114   3.980   3.459   9.472 -2.3539  0.1701 -0.6688
    1SAPS  C313  115   3.911   3.648   9.411  0.1639  0.1895  0.0692
    1SAPS  H13X  116   3.903   3.749   9.456  4.8281  0.5924  0.2908
    1SAPS  H13Y  117   3.806   3.616   9.397 -1.0163  3.9307 -0.1859
    1SAPS  C314  118   3.977   3.647   9.274 -0.4401  0.3167  0.0022
    1SAPS  H14X  119   3.993   3.544   9.235 -0.2729  0.8419 -1.3313
    1SAPS  H14Y  120   4.076   3.697   9.276  0.3360 -1.2255  2.4550
    1SAPS  C315  121   3.900   3.710   9.160 -0.7126  0.0465 -0.9134
    1SAPS  H15X  122   3.842   3.796   9.201  1.0430  0.3003  1.1287
    1SAPS  H15Y  123   3.829   3.632   9.124  1.3014 -2.2147 -0.0828
    1SAPS  C316  124   3.994   3.751   9.053 -0.3294  0.9672  0.3691
    1SAPS  H16X  125   4.066   3.669   9.032  0.3020  1.5947  0.0650
    1SAPS  H16Y  126   4.057   3.836   9.087 -1.3423  1.4672  0.9919
    1SAPS  C317  127   3.925   3.794   8.919 -0.3682  0.2564 -0.9819
    1SAPS  H17X  128   3.851   3.877   8.926 -1.4256 -0.5477 -2.4994
    1SAPS  H17Y  129   3.885   3.696   8.885  0.3752 -0.8133  1.1341
    1SAPS  C318  130   4.023   3.828   8.808  0.1652 -0.6055  0.3901
    1SAPS  H18X  131   4.099   3.746   8.810  2.6746  1.5765 -1.4667
    1SAPS  H18Y  132   4.083   3.920   8.825 -1.7370  0.7965 -0.4192
    1SAPS  H18Z  133   3.979   3.834   8.706 -1.1175 -0.9995  0.9113
    2SAPS     N  134   2.172   3.304  10.808 -0.3420 -0.3596 -0.4860
    2SAPS   HN1  135   2.236   3.339  10.882 -0.4956 -0.5830 -0.2478
    2SAPS   HN2  136   2.201   3.216  10.763  2.0312  0.9217 -1.5121
    2SAPS   HN3  137   2.161   3.387  10.746  0.8503  0.3744  0.2682
    2SAPS   C12  138   2.045   3.296  10.873 -0.7622  0.3955 -0.6572
    2SAPS  H12A  139   1.981   3.233  10.813  0.2623 -0.1976 -1.1249
    2SAPS   C13  140   2.057   3.232  11.010 -0.4382 -0.0512  0.0271
    2SAPS  O13A  141   2.167   3.209  11.068  0.8499  0.2633 -0.8033
    2SAPS  O13B  142   1.951   3.216  11.074  0.3239  0.5934 -1.0516
    2SAPS   C11  143   1.979   3.444  10.887 -0.1490 -0.3587  0.4533
    2SAPS  H11A  144   2.056   3.505  10.939 -0.2174  1.6939 -1.7241
    2SAPS  H11B  145   1.887   3.426  10.946  1.2811 -0.2858  2.7853
    2SAPS     P  146   1.948   3.658  10.746 -0.5024 -0.0575  0.1647
    2SAPS   O13  147   1.882   3.715  10.867 -0.7123  0.4549  0.4669
    2SAPS   O14  148   2.083   3.702  10.699  0.2757  0.2509  0.4707
    2SAPS   O12  149   1.953   3.506  10.760 -0.9647  0.2437 -0.3690
    2SAPS   O11  150   1.844   3.672  10.628  0.3826  0.7718 -0.1306
    2SAPS    C1  151   1.783   3.555  10.576 -0.5527  0.1773 -0.2003
    2SAPS    HA  152   1.762   3.481  10.657  0.3532  0.0604 -0.0688
    2SAPS    HB  153   1.684   3.572  10.529 -1.0700  2.2386  1.5471
    2SAPS    C2  154   1.875   3.482  10.468  0.1343  0.0848 -0.0728
    2SAPS    HS  155   1.976   3.462  10.510  0.7670  0.0320 -1.5860
    2SAPS   O21  156   1.884   3.544  10.334 -0.4066  0.3696  0.2099
    2SAPS   C21  157   2.012   3.546  10.285 -0.5346  0.3744  0.5653
    2SAPS   O22  158   2.116   3.530  10.341  0.1580  0.3303  0.2289
    2SAPS   C22  159   2.003   3.569  10.135 -0.2373  0.3975  0.7231
    2SAPS   H2R  160   1.895   3.572  10.109 -0.3844 -0.1189  1.2614
    2SAPS   H2S  161   2.051   3.663  10.100 -0.2922  0.3132  0.4247
    2SAPS    C3  162   1.818   3.339  10.443  0.5677  0.0575 -0.6072
    2SAPS    HX  163   1.714   3.336  10.406 -0.1709 -0.5568  1.4356
    2SAPS    HY  164   1.809   3.284  10.539  0.5149  1.4934  0.2383
    2SAPS   O31  165   1.895   3.259  10.357  0.2994 -0.1130  0.1811
    2SAPS   C31  166   1.984   3.180  10.413  0.4864 -0.0242  0.2113
    2SAPS   O32  167   2.015   3.180  10.529  0.8409 -0.0502 -0.4561
    2SAPS   C32  168   2.037   3.088  10.300 -0.0856 -0.7715 -0.2496
    2SAPS   H2X  169   2.030   3.138  10.201 -2.2390 -3.0126 -1.2788
    2SAPS   H2Y  170   1.960   3.007  10.297  0.8035 -1.5913 -1.4160
    2SAPS   C23  171   2.060   3.450  10.054 -0.4343 -0.8242 -0.1825
    2SAPS   H3R  172   2.013   3.353  10.082  0.3490 -0.3723  2.8382
    2SAPS   H3S  173   2.167   3.435  10.081  0.2511 -0.7236 -2.7204
    2SAPS   C24  174   2.053   3.468   9.904 -0.7616  0.0330 -0.1251
    2SAPS   H4R  175   2.099   3.567   9.882  0.4007 -0.1680  1.3038
    2SAPS   H4S  176   1.945   3.472   9.876 -0.6545  2.2246 -0.3488
    2SAPS   C25  177   2.125   3.356   9.836  0.5384  0.0852  0.2033
    2SAPS   H5R  178   2.142   3.261   9.890  2.2308  1.1173  1.5426
    2SAPS   C26  179   2.177   3.375   9.710  0.2322 -0.2262  0.0025
    2SAPS   H6R  180   2.236   3.291   9.669 -2.2595 -0.1156 -4.0443
    2SAPS   C27  181   2.172   3.497   9.620  0.8837  0.8227  0.2340
    2SAPS   H7R  182   2.276   3.509   9.583  1.0321  2.7018  1.1650
    2SAPS   H7S  183   2.128   3.591   9.659  0.5772  0.0784  1.7080
    2SAPS   C28  184   2.093   3.448   9.502 -0.1605 -1.0007  0.2245
    2SAPS   H8R  185   1.985   3.463   9.516 -0.0390 -0.1826  0.3093
    2SAPS   C29  186   2.133   3.392   9.387 -0.3386 -0.3517 -0.2435
    2SAPS   H9R  187   2.063   3.360   9.307  0.8556  0.5076 -1.6606
    2SAPS  C210  188   2.274   3.354   9.359 -0.0989 -0.1783  0.5351
    2SAPS  H10R  189   2.276   3.249   9.325  0.1690 -0.2665  0.8252
    2SAPS  H10S  190   2.331   3.348   9.454  0.6219  1.4934  0.2199
    2SAPS  C211  191   2.344   3.446   9.259 -0.0887  0.1395  0.2439
    2SAPS  H11R  192   2.371   3.546   9.296 -0.2200 -0.3895  1.8090
    2SAPS  C212  193   2.345   3.419   9.126 -0.2791  0.2268 -0.0176
    2SAPS  H12R  194   2.401   3.486   9.059  0.3983 -0.2592  0.0705
    2SAPS  C213  195   2.280   3.299   9.061  0.6806 -0.0066  0.4973
    2SAPS  H13R  196   2.205   3.244   9.122  1.4989 -1.6420  0.0562
    2SAPS  H13S  197   2.360   3.223   9.043  1.1811  0.0147  2.4596
    2SAPS  C214  198   2.219   3.340   8.927 -0.2797  0.0481 -0.8086
    2SAPS  H14R  199   2.256   3.286   8.838  0.4156  0.1766 -0.5968
    2SAPS  C215  200   2.129   3.432   8.898 -0.0087  0.3485 -1.0353
    2SAPS  H15R  201   2.092   3.454   8.796 -1.2204  3.2115 -0.0441
    2SAPS  C216  202   2.046   3.511   8.990 -0.3627  0.5896  0.4564
    2SAPS  H16R  203   2.116   3.587   9.031 -1.1095  0.1127  2.6809
    2SAPS  H16S  204   2.017   3.441   9.071 -0.6247 -0.0303 -0.1678
    2SAPS  C217  205   1.929   3.588   8.932 -0.2434 -0.4050  0.1335
    2SAPS  H17R  206   1.941   3.608   8.824  1.8679 -2.5393 -0.0630
    2SAPS  H17S  207   1.912   3.682   8.989  1.5104 -0.7538  1.2874
    2SAPS  C218  208   1.786   3.517   8.948  0.0825  0.2225  0.0703
    2SAPS  H18R  209   1.789   3.481   9.053 -2.2686 -1.3380 -0.3447
    2SAPS  H18S  210   1.788   3.425   8.885  2.5836  0.1371  0.2240
    2SAPS  C219  211   1.674   3.615   8.919 -0.0004 -0.2894 -0.1814
    2SAPS  H19R  212   1.681   3.645   8.813  5.5543  1.5701  0.5310
    2SAPS  H19S  213   1.699   3.710   8.970  0.0483 -0.3161 -0.1551
    2SAPS  C220  214   1.545   3.557   8.953 -0.2570  1.0104 -0.8648
    2SAPS  H20R  215   1.515   3.462   8.905  0.1785 -1.0089  2.6591
    2SAPS  H20S  216   1.459   3.627   8.950 -1.3776 -0.3453 -0.5129
    2SAPS  H20T  217   1.551   3.522   9.058  0.8690  1.7050 -0.6862
    2SAPS   C33  218   2.168   3.017  10.326 -0.1924 -0.0376 -0.3119
    2SAPS   H3X  219   2.188   2.937  10.252  1.8571 -1.3540  1.5875
    2SAPS   H3Y  220   2.155   2.959  10.420  0.4131  0.5011  0.1070
    2SAPS   C34  221   2.292   3.118  10.337 -0.2951 -0.5153 -0.2337
    2SAPS   H4X  222   2.384   3.063  10.365 -0.4441  0.3143  1.9755
    2SAPS   H4Y  223   2.273   3.180  10.428 -2.8344  0.5628 -1.4340
    2SAPS   C35  224   2.305   3.231  10.230  0.3143  0.7181 -0.1486
    2SAPS   H5X  225   2.380   3.300  10.273  1.5648 -0.9332  0.3562
    2SAPS   H5Y  226   2.209   3.286  10.218  1.1437  1.9535 -1.1685
    2SAPS   C36  227   2.365   3.180  10.099 -0.0940 -0.3167  0.0174
    2SAPS   H6X  228   2.380   3.270  10.036  2.2828 -1.3301 -0.9483
    2SAPS   H6Y  229   2.289   3.108  10.061 -1.8171  0.3793  2.0777
    2SAPS   C37  230   2.506   3.101  10.107  0.5272 -0.6247 -0.0388
    2SAPS   H7X  231   2.497   3.000  10.153 -0.0620 -0.6171 -0.1403
    2SAPS   H7Y  232   2.568   3.158  10.180 -1.3095  0.2723  0.8510
    2SAPS   C38  233   2.573   3.085   9.973  0.3308 -0.4126  0.1650
    2SAPS   H8X  234   2.666   3.025   9.983  0.4361 -0.5798 -1.7799
    2SAPS   H8Y  235   2.616   3.176   9.927  1.4753 -0.5514  0.9312
    2SAPS   C39  236   2.488   3.002   9.876  0.9259 -0.8679  0.0581
    2SAPS   H9X  237   2.390   3.052   9.859  0.4226 -1.9248 -0.2439
    2SAPS   H9Y  238   2.478   2.901   9.922 -3.9215 -0.4697  0.1112
    2SAPS  C310  239   2.567   2.983   9.748  0.7169 -0.0438 -0.1007
    2SAPS  H10X  240   2.513   2.908   9.687  1.4408  0.8209 -1.8439
    2SAPS  H10Y  241   2.669   2.944   9.765  0.9855  0.5648 -0.2870
    2SAPS  C311  242   2.571   3.105   9.652  0.0269  0.4789  0.2078
    2SAPS  H11X  243   2.655   3.171   9.684  0.6419 -0.3074  0.2250
    2SAPS  H11Y  244   2.482   3.172   9.656 -0.0142  0.5447 -1.3661
    2SAPS  C312  245   2.614   3.074   9.507 -0.7304  0.0797  0.1248
    2SAPS  H12X  246   2.695   2.998   9.512  0.0483  0.9212  0.4448
    2SAPS  H12Y  247   2.642   3.170   9.459  2.7539 -1.0550 -0.1987
    2SAPS  C313  248   2.492   3.019   9.424  1.1683 -0.1141  0.5460
    2SAPS  H13X  249   2.414   3.098   9.418  0.0486 -1.4212 -2.9986
    2SAPS  H13Y  250   2.454   2.934   9.486 -1.0209  1.2070  1.0922
    2SAPS  C314  251   2.522   2.962   9.287 -0.1008  0.1050  0.2321
    2SAPS  H14X  252   2.434   2.908   9.247 -0.3070  0.5586  0.0805
    2SAPS  H14Y  253   2.602   2.885   9.293 -0.1913 -0.0819 -0.8823
    2SAPS  C315  254   2.582   3.067   9.192 -0.0780 -0.5035 -0.3438
    2SAPS  H15X  255   2.688   3.089   9.217  0.7134  0.2551 -3.9950
    2SAPS  H15Y  256   2.523   3.161   9.193 -4.1967 -3.0007  2.2733
    2SAPS  C316  257   2.584   3.008   9.056  0.3810 -0.0407 -0.1796
    2SAPS  H16X  258   2.484   3.016   9.009  0.5918  1.5351 -0.3660
    2SAPS  H16Y  259   2.606   2.899   9.064  0.3532 -0.1306 -1.2169
    2SAPS  C317  260   2.689   3.061   8.965  0.2018 -0.4593  1.0913
    2SAPS  H17X  261   2.676   3.012   8.866  0.1008  1.2289  0.2492
    2SAPS  H17Y  262   2.794   3.064   9.003  0.2986  1.1905  0.7426
    2SAPS  C318  263   2.656   3.208   8.938 -0.0054 -0.0635 -0.3987
    2SAPS  H18X  264   2.651   3.270   9.030  2.4502 -1.3860  0.6721
    2SAPS  H18Y  265   2.552   3.220   8.899 -0.6683  1.3536  1.7203
    2SAPS  H18Z  266   2.722   3.259   8.865 -1.0091  1.5194 -0.2400
    3SAPS     N  267   2.705   5.395  10.791 -0.4821  0.4434 -0.1305
    3SAPS   HN1  268   2.715   5.494  10.760 -0.5563 -0.0680 -1.8476
    3SAPS   HN2  269   2.784   5.342  10.748 -0.2238 -0.5465  1.5263
    3SAPS   HN3  270   2.611   5.356  10.773  0.8262 -3.2066  0.5053
    3SAPS   C12  271   2.719   5.398  10.941 -0.2445 -0.5843  0.8151
    3SAPS  H12A  272   2.700   5.300  10.982  0.7906 -0.5272  1.4171
    3SAPS   C13  273   2.861   5.429  10.993  0.0279 -0.0863  0.8823
    3SAPS  O13A  274   2.939   5.488  10.910  0.3455  0.9832 -0.3847
    3SAPS  O13B  275   2.887   5.440  11.115  0.1144 -0.7090  0.2644
    3SAPS   C11  276   2.604   5.481  10.994  0.1985 -0.0536  0.1759
    3SAPS  H11A  277   2.615   5.587  10.963  0.0593  0.2825  1.2447
    3SAPS  H11B  278   2.620   5.489  11.104  0.0509  1.1453  0.1187
    3SAPS     P  279   2.365   5.502  10.895 -0.0981  0.1265 -0.1281
    3SAPS   O13  280   2.240   5.430  10.917  0.7402  0.0793  0.7350
    3SAPS   O14  281   2.374   5.645  10.947 -0.2624  0.6212 -0.1534
    3SAPS   O12  282   2.479   5.421  10.967 -0.3456  0.3297  0.2754
    3SAPS   O11  283   2.396   5.503  10.740  0.3754 -0.3528  0.1662
    3SAPS    C1  284   2.320   5.433  10.645 -0.5030 -0.3219  0.5520
    3SAPS    HA  285   2.268   5.349  10.697  0.3902  0.2551  2.4111
    3SAPS    HB  286   2.255   5.515  10.607 -1.2319 -1.3199 -0.4232
    3SAPS    C2  287   2.401   5.381  10.518 -0.1179 -0.0619  0.0532
    3SAPS    HS  288   2.452   5.288  10.549  0.6404  0.3403  0.0160
    3SAPS   O21  289   2.485   5.487  10.464  0.0600  0.0772 -0.1454
    3SAPS   C21  290   2.606   5.448  10.418  0.2347 -0.1002  0.2674
    3SAPS   O22  291   2.647   5.334  10.418 -0.6336 -0.2892 -0.0210
    3SAPS   C22  292   2.677   5.567  10.361 -0.1190  0.1400 -0.1774
    3SAPS   H2R  293   2.625   5.582  10.264 -1.4014 -0.8584  0.3488
    3SAPS   H2S  294   2.656   5.659  10.420  0.9447 -0.9622  1.9859
    3SAPS    C3  295   2.304   5.346  10.398 -0.6548  0.1617 -0.5857
    3SAPS    HX  296   2.234   5.429  10.371  0.6444  2.5339  3.0509
    3SAPS    HY  297   2.232   5.264  10.419 -0.0738 -0.3910 -0.7306
    3SAPS   O31  298   2.377   5.313  10.279  0.4529  0.4869  0.1398
    3SAPS   C31  299   2.433   5.194  10.278  1.0800 -0.3161 -0.3248
    3SAPS   O32  300   2.404   5.104  10.358 -0.0321  0.2212 -0.3812
    3SAPS   C32  301   2.523   5.165  10.158 -0.9938 -0.5998 -0.2476
    3SAPS   H2X  302   2.476   5.096  10.085  1.3717 -0.3922 -2.0197
    3SAPS   H2Y  303   2.607   5.099  10.188 -1.6039 -0.8694  0.9065
    3SAPS   C23  304   2.826   5.544  10.330 -0.0176 -0.2104  0.8012
    3SAPS   H3R  305   2.846   5.436  10.310 -0.9200 -0.3567  0.7002
    3SAPS   H3S  306   2.884   5.575  10.420 -0.9981  0.9777  1.0254
    3SAPS   C24  307   2.884   5.635  10.228 -0.7297 -0.5559 -0.5749
    3SAPS   H4R  308   2.882   5.739  10.268  1.1056 -0.7745  0.0902
    3SAPS   H4S  309   2.832   5.621  10.131  1.7059  0.3417 -2.0539
    3SAPS   C25  310   3.033   5.601  10.215  0.0330  0.2757 -0.4646
    3SAPS   H5R  311   3.073   5.547  10.302  0.0538  0.7230 -0.1917
    3SAPS   C26  312   3.118   5.609  10.109 -0.3796 -0.3605 -0.4043
    3SAPS   H6R  313   3.220   5.569  10.115 -0.8326 -1.4064  0.4725
    3SAPS   C27  314   3.066   5.667   9.977  0.0470  0.0081 -0.3789
    3SAPS   H7R  315   3.069   5.778   9.983  0.4940  0.1240 -2.5109
    3SAPS   H7S  316   2.960   5.638   9.958  0.6415 -0.9598 -2.3114
    3SAPS   C28  317   3.158   5.607   9.878  0.6971  0.2306 -0.0764
    3SAPS   H8R  318   3.136   5.504   9.844  1.2430  0.4615 -1.1458
    3SAPS   C29  319   3.264   5.654   9.808 -0.0184  0.1638 -0.7419
    3SAPS   H9R  320   3.303   5.582   9.735  1.0401  1.8931 -1.8873
    3SAPS  C210  321   3.326   5.789   9.814  0.6651  0.0668  0.4893
    3SAPS  H10R  322   3.246   5.856   9.851  0.3038  2.2410 -3.9405
    3SAPS  H10S  323   3.331   5.831   9.711 -0.7350  0.1296  0.4320
    3SAPS  C211  324   3.458   5.779   9.882  0.5744  0.1173  0.2885
    3SAPS  H11R  325   3.448   5.793   9.991  0.1071 -0.1226  0.2780
    3SAPS  C212  326   3.572   5.753   9.827  0.3883 -0.0728  0.0978
    3SAPS  H12R  327   3.657   5.759   9.897  1.4949  2.7710 -1.3738
    3SAPS  C213  328   3.607   5.710   9.681  0.2661  0.2315 -0.4670
    3SAPS  H13R  329   3.528   5.639   9.646  0.1700  0.1852 -0.1554
    3SAPS  H13S  330   3.692   5.640   9.695 -0.5948 -0.4554  1.5095
    3SAPS  C214  331   3.632   5.818   9.586  0.2606  0.7070  0.2278
    3SAPS  H14R  332   3.626   5.921   9.625 -1.5952  0.1905  1.3923
    3SAPS  C215  333   3.643   5.796   9.452 -0.1193  0.1609  0.1067
    3SAPS  H15R  334   3.664   5.870   9.374  0.4401  0.3594  0.4425
    3SAPS  C216  335   3.644   5.658   9.395  0.6363  1.0609  0.0750
    3SAPS  H16R  336   3.665   5.584   9.475  0.4294  1.6549  0.6796
    3SAPS  H16S  337   3.734   5.662   9.330  0.9112  0.8478  0.4384
    3SAPS  C217  338   3.519   5.605   9.323 -0.1800  0.2556 -0.0334
    3SAPS  H17R  339   3.478   5.695   9.272  0.1110  1.1865  1.3457
    3SAPS  H17S  340   3.447   5.560   9.394 -1.2494 -0.0858 -1.2978
    3SAPS  C218  341   3.554   5.493   9.224  0.0341 -0.9010 -0.6326
    3SAPS  H18R  342   3.587   5.406   9.285  0.1450 -0.4856 -0.0936
    3SAPS  H18S  343   3.637   5.515   9.154 -1.7942  0.3925 -2.4532
    3SAPS  C219  344   3.437   5.447   9.129 -0.0211  0.3558 -0.0942
    3SAPS  H19R  345   3.349   5.475   9.190 -0.5271 -2.8624  0.7761
    3SAPS  H19S  346   3.451   5.338   9.110 -2.2522  0.2574 -1.3760
    3SAPS  C220  347   3.428   5.525   8.998  0.6900 -0.1052 -0.4432
    3SAPS  H20R  348   3.331   5.493   8.954  0.8659 -0.3379 -0.6575
    3SAPS  H20S  349   3.500   5.500   8.918  0.6136  0.6445 -0.7449
    3SAPS  H20T  350   3.436   5.633   9.020  1.8892 -0.3918  0.6139
    3SAPS   C33  351   2.582   5.291  10.084 -0.3837 -0.1333 -0.6208
    3SAPS   H3X  352   2.642   5.344  10.162 -2.1054 -1.1648  1.4628
    3SAPS   H3Y  353   2.496   5.359  10.065 -0.0010  0.9628  1.3599
    3SAPS   C34  354   2.663   5.263   9.963  0.5651 -0.5514 -0.1966
    3SAPS   H4X  355   2.601   5.241   9.873  0.9860  2.3345 -1.2376
    3SAPS   H4Y  356   2.724   5.172   9.985 -0.6960 -0.7948  2.4324
    3SAPS   C35  357   2.752   5.383   9.928 -0.2768 -0.0957  0.4589
    3SAPS   H5X  358   2.850   5.357   9.882 -0.8973 -0.0944 -0.8938
    3SAPS   H5Y  359   2.775   5.432  10.025  0.4906 -0.2090  0.3338
    3SAPS   C36  360   2.697   5.484   9.831 -0.3411  0.6333 -1.0056
    3SAPS   H6X  361   2.763   5.572   9.845 -0.0345 -0.1296  3.0040
    3SAPS   H6Y  362   2.594   5.517   9.856 -0.2675  0.3741 -0.3352
    3SAPS   C37  363   2.695   5.431   9.683  0.3280 -0.2139 -0.2084
    3SAPS   H7X  364   2.672   5.329   9.646  0.2115  0.7918 -3.0724
    3SAPS   H7Y  365   2.802   5.445   9.656 -0.4341  1.6324 -2.5195
    3SAPS   C38  366   2.612   5.522   9.599  0.5163 -0.6096 -0.1586
    3SAPS   H8X  367   2.643   5.621   9.639 -0.8934 -0.9581  1.8265
    3SAPS   H8Y  368   2.505   5.515   9.626  0.9482  0.6321  2.0575
    3SAPS   C39  369   2.641   5.508   9.450  0.6886  0.5134  0.1760
    3SAPS   H9X  370   2.751   5.510   9.435  1.4268 -1.4465  4.4465
    3SAPS   H9Y  371   2.611   5.606   9.408  4.0311  1.6923  0.3757
    3SAPS  C310  372   2.566   5.394   9.380  0.4391 -0.4569  0.0379
    3SAPS  H10X  373   2.493   5.354   9.454 -0.8173 -0.6286 -1.2724
    3SAPS  H10Y  374   2.634   5.319   9.337  0.5532  0.6657 -1.7847
    3SAPS  C311  375   2.471   5.442   9.266  0.3271 -0.4073 -0.1181
    3SAPS  H11X  376   2.468   5.553   9.269  2.1308 -0.2816 -1.9250
    3SAPS  H11Y  377   2.374   5.390   9.279 -0.3991  0.0632 -3.1883
    3SAPS  C312  378   2.508   5.399   9.122 -0.1062  0.1268  0.1699
    3SAPS  H12X  379   2.541   5.293   9.130  0.3767  0.3138  0.6630
    3SAPS  H12Y  380   2.591   5.460   9.081 -1.1071  2.3866  1.4217
    3SAPS  C313  381   2.387   5.398   9.017 -0.3134  0.4427 -0.0468
    3SAPS  H13X  382   2.345   5.498   8.992  1.3171  0.8497 -1.1929
    3SAPS  H13Y  383   2.308   5.345   9.075 -1.0044  2.2252  0.6617
    3SAPS  C314  384   2.417   5.331   8.881  0.1922 -0.3733  0.2724
    3SAPS  H14X  385   2.322   5.343   8.823  0.1285 -2.4225 -0.0729
    3SAPS  H14Y  386   2.429   5.223   8.903 -0.1745 -0.9176 -2.0922
    3SAPS  C315  387   2.532   5.397   8.806 -0.0189 -0.1211 -0.4624
    3SAPS  H15X  388   2.626   5.358   8.850  0.3276  0.8234 -0.3513
    3SAPS  H15Y  389   2.519   5.507   8.818 -0.3550  0.0134 -2.0168
    3SAPS  C316  390   2.531   5.353   8.652  0.2183 -0.5437 -0.3444
    3SAPS  H16X  391   2.436   5.392   8.611  0.3601 -0.1881 -0.3351
    3SAPS  H16Y  392   2.534   5.242   8.651  3.8527 -0.5085 -0.9538
    3SAPS  C317  393   2.653   5.403   8.572 -0.2688 -0.7718 -0.3336
    3SAPS  H17X  394   2.747   5.361   8.615 -0.9299 -0.1722  1.7527
    3SAPS  H17Y  395   2.672   5.513   8.578  0.5301 -0.7917 -2.1290
    3SAPS  C318  396   2.645   5.362   8.424  0.2741  0.0497 -0.4018
    3SAPS  H18X  397   2.656   5.252   8.412 -1.9705 -0.1217 -1.2760
    3SAPS  H18Y  398   2.723   5.417   8.368  1.6389  0.3364  1.7346
    3SAPS  H18Z  399   2.544   5.390   8.386  0.8305  1.9264 -0.5250
    4SAPS     N  400   5.345   5.560  10.938 -0.4960 -0.9800  0.4803
    4SAPS   HN1  401   5.443   5.557  10.972 -0.0756 -1.7752 -0.7761
    4SAPS   HN2  402   5.339   5.521  10.842 -1.6113 -1.5965  0.8051
    4SAPS   HN3  403   5.333   5.664  10.942  0.8056 -0.8175  0.5192
    4SAPS   C12  404   5.250   5.500  11.027  1.1215 -0.5047 -0.2223
    4SAPS  H12A  405   5.251   5.393  11.014  1.5741 -0.5319  0.0135
    4SAPS   C13  406   5.286   5.526  11.174  0.2134  0.1544 -1.0555
    4SAPS  O13A  407   5.386   5.591  11.214  0.2134 -0.4686 -0.3380
    4SAPS  O13B  408   5.188   5.494  11.248 -0.1101 -0.4023 -0.7913
    4SAPS   C11  409   5.104   5.552  10.998 -0.7759 -0.2088 -0.5757
    4SAPS  H11A  410   5.102   5.661  11.019 -0.3237 -0.5901  1.5612
    4SAPS  H11B  411   5.039   5.499  11.070  0.7448 -0.7181  0.4349
    4SAPS     P  412   4.942   5.527  10.794  0.0308 -0.0853  0.1018
    4SAPS   O13  413   4.945   5.467  10.658  0.4340  0.2511 -0.3212
    4SAPS   O14  414   4.848   5.462  10.891 -0.3436  0.0706 -0.8940
    4SAPS   O12  415   5.089   5.521  10.853 -0.9654 -0.1350 -0.9060
    4SAPS   O11  416   4.906   5.687  10.781  0.2637  0.4298  0.4159
    4SAPS    C1  417   4.979   5.780  10.701 -0.4377  0.3478  0.8163
    4SAPS    HA  418   4.997   5.872  10.761  2.0671 -0.4360  1.3031
    4SAPS    HB  419   5.084   5.748  10.687 -1.2210 -1.5081 -0.9662
    4SAPS    C2  420   4.901   5.805  10.574  0.0281  0.6695  0.2134
    4SAPS    HS  421   4.795   5.778  10.592  0.4316 -0.7672  0.5018
    4SAPS   O21  422   4.942   5.711  10.470  0.1220  0.2355  0.2036
    4SAPS   C21  423   4.871   5.706  10.359 -0.2972  0.1298  0.2497
    4SAPS   O22  424   4.772   5.775  10.334 -0.4135  0.2129  0.2068
    4SAPS   C22  425   4.965   5.644  10.247  0.1220 -0.3703 -0.0849
    4SAPS   H2R  426   5.014   5.723  10.187  3.8571 -1.0257  1.9551
    4SAPS   H2S  427   5.042   5.577  10.290 -0.6372 -0.2775  1.4983
    4SAPS    C3  428   4.920   5.950  10.526 -0.6005  0.1540  0.0716
    4SAPS    HX  429   4.881   6.009  10.613 -2.2385 -0.4262 -0.2481
    4SAPS    HY  430   4.869   5.975  10.431 -1.4807 -0.4471  0.3759
    4SAPS   O31  431   5.061   5.977  10.493 -0.0488  0.1298 -0.8513
    4SAPS   C31  432   5.078   6.109  10.492  0.4734  0.1472 -0.2973
    4SAPS   O32  433   5.001   6.188  10.537 -0.6511  0.1571 -0.2170
    4SAPS   C32  434   5.203   6.144  10.403 -0.0166 -0.0349 -0.5971
    4SAPS   H2X  435   5.165   6.104  10.307 -1.0582 -1.1847  0.2706
    4SAPS   H2Y  436   5.289   6.078  10.427 -0.0710 -0.3360 -1.2344
    4SAPS   C23  437   4.870   5.561  10.156  0.1763  1.0283 -0.1715
    4SAPS   H3R  438   4.777   5.619  10.136 -0.0984  0.8234  0.5028
    4SAPS   H3S  439   4.835   5.476  10.218 -1.0224  1.2961 -0.4620
    4SAPS   C24  440   4.927   5.493  10.032  0.2192 -0.6112  0.2947
    4SAPS   H4R  441   4.972   5.397  10.067  0.9548 -0.0592  0.8870
    4SAPS   H4S  442   5.014   5.554   9.998 -0.2980  0.8418  1.5688
    4SAPS   C25  443   4.830   5.454   9.924  0.4847 -0.2041 -0.5382
    4SAPS   H5R  444   4.738   5.403   9.957 -0.6386  1.4976 -1.0199
    4SAPS   C26  445   4.844   5.467   9.791  0.4708  0.0844 -0.3157
    4SAPS   H6R  446   4.759   5.427   9.733 -0.3555  0.9116  0.3061
    4SAPS   C27  447   4.960   5.538   9.714 -0.2699  1.2785  0.1120
    4SAPS   H7R  448   5.004   5.625   9.767 -1.7797  2.1430 -0.0299
    4SAPS   H7S  449   4.922   5.585   9.621 -1.7724 -0.6456 -0.2693
    4SAPS   C28  450   5.063   5.439   9.682 -0.0481  0.8306  0.2445
    4SAPS   H8R  451   5.106   5.402   9.777  2.1612  0.9914 -0.6623
    4SAPS   C29  452   5.098   5.384   9.569 -0.5063 -0.0598  0.4903
    4SAPS   H9R  453   5.189   5.322   9.569 -0.4192 -0.0107  3.8324
    4SAPS  C210  454   5.044   5.422   9.430 -0.0741 -0.7439  0.4686
    4SAPS  H10R  455   5.124   5.397   9.356 -0.0503 -0.9946  0.5763
    4SAPS  H10S  456   5.024   5.531   9.431 -0.6714 -0.8540  0.2962
    4SAPS  C211  457   4.910   5.347   9.407 -0.2899  0.0434  0.8382
    4SAPS  H11R  458   4.858   5.291   9.486 -1.0362 -1.3885 -0.6360
    4SAPS  C212  459   4.853   5.339   9.284 -0.1043  0.2302  0.1587
    4SAPS  H12R  460   4.755   5.290   9.276 -0.3434  0.8143 -0.4669
    4SAPS  C213  461   4.897   5.404   9.153  0.2439  0.0795 -0.4183
    4SAPS  H13R  462   4.990   5.464   9.162 -1.2339  2.2749  0.5580
    4SAPS  H13S  463   4.823   5.479   9.117  0.2611  0.2917 -0.0142
    4SAPS  C214  464   4.909   5.292   9.045  0.0319 -0.1173 -0.0790
    4SAPS  H14R  465   5.005   5.240   9.063 -0.9533 -1.6276  0.8912
    4SAPS  C215  466   4.839   5.257   8.936 -0.4218  0.4911 -0.6208
    4SAPS  H15R  467   4.878   5.175   8.874  1.3630  2.3850 -2.0670
    4SAPS  C216  468   4.715   5.335   8.897 -0.1337  0.5086  0.8743
    4SAPS  H16R  469   4.739   5.429   8.843  0.8571 -0.7782 -1.0148
    4SAPS  H16S  470   4.653   5.363   8.984 -1.5532 -2.0536  0.7317
    4SAPS  C217  471   4.624   5.236   8.821  0.0024  0.5457 -0.4145
    4SAPS  H17R  472   4.672   5.212   8.723  1.6079 -0.4234  0.5845
    4SAPS  H17S  473   4.536   5.301   8.801  0.8139  2.0887  0.8816
    4SAPS  C218  474   4.570   5.122   8.899 -0.3611  0.3627 -0.7413
    4SAPS  H18R  475   4.558   5.150   9.006  0.3819 -0.0786 -0.5392
    4SAPS  H18S  476   4.635   5.032   8.895  1.2586  1.4086  1.3995
    4SAPS  C219  477   4.427   5.071   8.858 -0.0764 -0.6087  0.8101
    4SAPS  H19R  478   4.435   5.033   8.753 -2.1383  1.0334  0.0186
    4SAPS  H19S  479   4.365   5.163   8.853  0.8376  0.0530  1.5073
    4SAPS  C220  480   4.371   4.961   8.950 -0.5101 -1.1024  0.2431
    4SAPS  H20R  481   4.430   4.868   8.938 -0.1484 -0.9179  0.5732
    4SAPS  H20S  482   4.271   4.925   8.916 -0.8732 -0.3710  0.5290
    4SAPS  H20T  483   4.364   4.989   9.057 -0.6188  2.3318 -0.5887
    4SAPS   C33  484   5.226   6.292  10.413  1.0287 -1.0000 -0.1989
    4SAPS   H3X  485   5.238   6.326  10.518 -2.5933  4.2518 -1.2288
    4SAPS   H3Y  486   5.130   6.334  10.376  0.8966 -0.1503  1.0640
    4SAPS   C34  487   5.346   6.340  10.333  0.2734 -0.4974  0.2161
    4SAPS   H4X  488   5.437   6.291  10.374  0.1070  0.0615  1.2766
    4SAPS   H4Y  489   5.360   6.450  10.339  0.8320 -0.3678 -2.6545
    4SAPS   C35  490   5.347   6.296  10.189 -0.4219  0.2333  0.4052
    4SAPS   H5X  491   5.250   6.333  10.150  0.1059 -0.0728 -1.2304
    4SAPS   H5Y  492   5.345   6.186  10.178  2.1887  0.0696  1.2082
    4SAPS   C36  493   5.466   6.334  10.102  0.3899  0.1026 -0.2971
    4SAPS   H6X  494   5.562   6.302  10.149 -0.0166  0.9896  1.1771
    4SAPS   H6Y  495   5.469   6.445  10.100 -1.4848  0.1412 -1.7282
    4SAPS   C37  496   5.460   6.281   9.957  0.3153 -0.5124 -0.6096
    4SAPS   H7X  497   5.455   6.173   9.980  2.2616  0.0039  2.6008
    4SAPS   H7Y  498   5.560   6.298   9.911  0.6913 -2.1141 -0.4324
    4SAPS   C38  499   5.342   6.329   9.877  0.1248  0.4570 -0.2760
    4SAPS   H8X  500   5.289   6.415   9.924 -2.8149 -0.2938 -2.0793
    4SAPS   H8Y  501   5.278   6.238   9.877  0.1526  0.3836  2.8584
    4SAPS   C39  502   5.364   6.343   9.727 -0.2956  0.2685  0.5395
    4SAPS   H9X  503   5.438   6.420   9.699 -0.3796  0.3630  0.5774
    4SAPS   H9Y  504   5.265   6.367   9.682  0.8534 -0.6101 -2.5930
    4SAPS  C310  505   5.416   6.217   9.653  0.8651  0.3194  0.3184
    4SAPS  H10X  506   5.356   6.124   9.652 -0.4414  1.1491 -0.9298
    4SAPS  H10Y  507   5.517   6.182   9.683  0.0647 -2.4602 -0.1408
    4SAPS  C311  508   5.440   6.242   9.504 -0.6488 -0.1996  0.2863
    4SAPS  H11X  509   5.489   6.150   9.467  0.8309  1.0287 -0.8583
    4SAPS  H11Y  510   5.504   6.331   9.486  0.7093 -1.5501 -1.7092
    4SAPS  C312  511   5.307   6.264   9.417  0.5369  0.8448  0.4510
    4SAPS  H12X  512   5.250   6.356   9.439 -0.9760  0.2062 -0.6717
    4SAPS  H12Y  513   5.243   6.173   9.430 -1.4049  2.0785 -0.2230
    4SAPS  C313  514   5.335   6.281   9.269  0.9295  0.0019 -0.5877
    4SAPS  H13X  515   5.380   6.184   9.239 -1.2045 -0.9439 -0.8081
    4SAPS  H13Y  516   5.403   6.368   9.255  1.8241 -0.8707 -1.7928
    4SAPS  C314  517   5.216   6.308   9.182 -0.4805 -0.2222 -0.2913
    4SAPS  H14X  518   5.156   6.397   9.207  0.9567  1.2647 -2.0221
    4SAPS  H14Y  519   5.137   6.231   9.201  0.7189 -1.2010  0.8768
    4SAPS  C315  520   5.261   6.328   9.038  0.1279 -0.1173  0.2955
    4SAPS  H15X  521   5.309   6.232   9.009 -3.0885 -1.1072 -2.1014
    4SAPS  H15Y  522   5.339   6.407   9.035 -0.3145  0.3071 -0.5862
    4SAPS  C316  523   5.149   6.355   8.942  0.2295  0.0068  0.0407
    4SAPS  H16X  524   5.181   6.388   8.841  0.7696  0.5718  0.3918
    4SAPS  H16Y  525   5.085   6.440   8.975 -1.6400 -1.4901  0.3550
    4SAPS  C317  526   5.064   6.233   8.930 -0.3036 -0.6882 -0.8966
    4SAPS  H17X  527   5.025   6.200   9.028  0.3746  2.2191  0.4095
    4SAPS  H17Y  528   5.128   6.151   8.892  1.2138 -0.3707  0.9240
    4SAPS  C318  529   4.955   6.253   8.831 -0.2518  0.1654  0.0021
    4SAPS  H18X  530   4.906   6.155   8.814  0.1125 -0.4531  2.2552
    4SAPS  H18Y  531   4.989   6.307   8.740  0.0227  0.6247  0.3693
    4SAPS  H18Z  532   4.882   6.325   8.875  0.8439  2.0372 -1.1616
    5SAPS     N  533   1.852   5.651  10.872 -0.0251 -0.8540 -0.3570
    5SAPS   HN1  534   1.916   5.587  10.820  2.2533 -0.2516  1.6137
    5SAPS   HN2  535   1.756   5.612  10.870 -0.9507  1.2779  1.2650
    5SAPS   HN3  536   1.844   5.747  10.834 -1.6959  0.5964  3.4308
    5SAPS   C12  537   1.899   5.660  11.013  0.0415 -0.0377  0.4035
    5SAPS  H12A  538   1.830   5.726  11.065 -0.7870  0.6442 -1.5231
    5SAPS   C13  539   1.905   5.523  11.095 -0.5396 -0.8380  0.1180
    5SAPS  O13A  540   1.886   5.418  11.041  0.8622  0.5668  0.2683
    5SAPS  O13B  541   1.948   5.526  11.213  0.0369 -0.3670 -0.2002
    5SAPS   C11  542   2.033   5.739  11.014  0.8032  0.0770  0.3113
    5SAPS  H11A  543   2.118   5.682  10.969 -0.6993 -1.2658 -0.8829
    5SAPS  H11B  544   2.047   5.756  11.123  1.1338  1.4166  0.0684
    5SAPS     P  545   2.093   5.980  11.008  0.0449 -0.2363  0.0771
    5SAPS   O13  546   2.000   6.082  11.050 -0.0070  0.0716 -0.3310
    5SAPS   O14  547   2.189   5.939  11.107  0.1022 -0.9381  0.3735
    5SAPS   O12  548   2.007   5.863  10.955 -0.1447 -0.2662  0.1464
    5SAPS   O11  549   2.174   6.035  10.887  0.5862  0.5377  0.3275
    5SAPS    C1  550   2.177   5.963  10.762 -0.4557  0.0773 -0.3143
    5SAPS    HA  551   2.206   5.863  10.800  0.1426  0.6246  0.6953
    5SAPS    HB  552   2.072   5.952  10.728 -0.5228  0.9964 -0.4342
    5SAPS    C2  553   2.273   6.016  10.661 -0.1914 -0.6161  0.1212
    5SAPS    HS  554   2.229   6.098  10.600  2.8675  0.1926 -1.0605
    5SAPS   O21  555   2.324   5.910  10.573 -0.1674 -0.2681  1.0600
    5SAPS   C21  556   2.239   5.852  10.486 -0.2511 -0.6512 -0.1235
    5SAPS   O22  557   2.118   5.868  10.486  0.8826 -0.2530 -1.1072
    5SAPS   C22  558   2.317   5.774  10.389 -0.6478 -0.0729  0.3839
    5SAPS   H2R  559   2.403   5.831  10.349 -1.0985 -0.3430 -0.9811
    5SAPS   H2S  560   2.355   5.682  10.439  0.7720  1.1322  1.5729
    5SAPS    C3  561   2.403   6.080  10.713 -0.5555  0.2860  0.1179
    5SAPS    HX  562   2.439   6.007  10.789 -0.6165 -0.0553 -0.1786
    5SAPS    HY  563   2.369   6.170  10.768 -1.3967 -0.2806  0.5418
    5SAPS   O31  564   2.504   6.117  10.615  0.3837  0.5295  0.1357
    5SAPS   C31  565   2.610   6.040  10.607  0.0022 -0.2168  0.9917
    5SAPS   O32  566   2.635   5.939  10.671 -0.3720  0.0008  0.3152
    5SAPS   C32  567   2.705   6.091  10.490  0.4671 -0.1107  0.7577
    5SAPS   H2X  568   2.799   6.039  10.519  0.7316  0.1053  0.3066
    5SAPS   H2Y  569   2.728   6.198  10.507 -0.4401  0.0832  0.7439
    5SAPS   C23  570   2.239   5.740  10.259 -0.0841 -0.1186  0.1885
    5SAPS   H3R  571   2.175   5.824  10.225  1.3756  0.0439 -2.2659
    5SAPS   H3S  572   2.170   5.654  10.275  0.1575 -0.6053 -1.3791
    5SAPS   C24  573   2.331   5.701  10.141  0.3596 -0.5820  0.0050
    5SAPS   H4R  574   2.409   5.631  10.177 -0.6155 -1.6552  0.0796
    5SAPS   H4S  575   2.395   5.788  10.116  1.4300 -0.6735  2.3058
    5SAPS   C25  576   2.246   5.644  10.032 -0.2032  0.6796 -0.3622
    5SAPS   H5R  577   2.189   5.555  10.064  1.8586  0.4942  2.9777
    5SAPS   C26  578   2.226   5.697   9.912  0.4181 -0.2076  0.1824
    5SAPS   H6R  579   2.163   5.638   9.844 -0.5052  1.4963 -0.4807
    5SAPS   C27  580   2.278   5.829   9.852  0.0072  0.3378 -0.6347
    5SAPS   H7R  581   2.385   5.808   9.831 -0.2482 -1.2905 -0.4280
    5SAPS   H7S  582   2.278   5.910   9.927 -1.4808  0.8782 -1.1846
    5SAPS   C28  583   2.193   5.866   9.732  0.0076 -0.4201  0.3759
    5SAPS   H8R  584   2.086   5.871   9.757 -0.0602  1.2446 -0.1616
    5SAPS   C29  585   2.245   5.916   9.614 -0.0682  0.6623 -0.4374
    5SAPS   H9R  586   2.184   5.929   9.524 -0.4383  0.5429 -0.2042
    5SAPS  C210  587   2.393   5.914   9.579 -0.0427  0.7954  0.5726
    5SAPS  H10R  588   2.462   5.876   9.657 -0.8225  0.7400  1.2405
    5SAPS  H10S  589   2.415   6.019   9.547  0.3184  0.9152  1.1988
    5SAPS  C211  590   2.413   5.818   9.465 -0.0666  0.0875 -0.1059
    5SAPS  H11R  591   2.429   5.714   9.497 -1.7398 -0.9468 -2.5079
    5SAPS  C212  592   2.405   5.846   9.334 -0.0254  0.0065  0.1968
    5SAPS  H12R  593   2.417   5.762   9.265  0.4481 -0.0890  0.3929
    5SAPS  C213  594   2.376   5.990   9.290 -0.0745  0.2983  0.6601
    5SAPS  H13R  595   2.457   6.007   9.216 -0.4488 -0.5034  0.0579
    5SAPS  H13S  596   2.404   6.069   9.362  2.6066  0.0098 -0.0201
    5SAPS  C214  597   2.238   6.001   9.229 -0.5622 -0.4724  0.7409
    5SAPS  H14R  598   2.162   5.945   9.285  0.4611 -1.7145  0.9232
    5SAPS  C215  599   2.194   6.082   9.126 -1.2812  0.5726 -0.6445
    5SAPS  H15R  600   2.098   6.054   9.081 -1.6388 -2.2684  1.7611
    5SAPS  C216  601   2.279   6.172   9.044  0.4244 -0.5152 -0.0393
    5SAPS  H16R  602   2.361   6.218   9.102  0.8811 -2.5304  0.9582
    5SAPS  H16S  603   2.219   6.254   8.999 -0.5537  0.5769  3.1214
    5SAPS  C217  604   2.342   6.091   8.933  0.3289 -0.3755  0.1254
    5SAPS  H17R  605   2.264   6.036   8.877  1.1874 -1.5660  0.0858
    5SAPS  H17S  606   2.419   6.020   8.969  0.0020 -0.5034  0.5828
    5SAPS  C218  607   2.414   6.173   8.827 -0.5882 -0.0741  0.7043
    5SAPS  H18R  608   2.444   6.274   8.863 -4.2416  1.3202  0.0788
    5SAPS  H18S  609   2.507   6.121   8.797  0.0849  1.1580  0.6066
    5SAPS  C219  610   2.338   6.178   8.698  0.4875  0.4796  0.4970
    5SAPS  H19R  611   2.310   6.080   8.653  2.0314  1.4537 -2.7463
    5SAPS  H19S  612   2.402   6.217   8.617  0.2286 -0.3495 -0.1156
    5SAPS  C220  613   2.211   6.267   8.698 -0.5856 -0.3181  0.4493
    5SAPS  H20R  614   2.151   6.251   8.606  0.3901 -1.0107 -0.0751
    5SAPS  H20S  615   2.245   6.372   8.689 -3.2973  0.4199 -2.1383
    5SAPS  H20T  616   2.150   6.255   8.790 -0.3729 -0.3310  0.5895
    5SAPS   C33  617   2.642   6.080  10.347 -0.2068 -0.1115 -0.6387
    5SAPS   H3X  618   2.670   6.177  10.299  1.9671  0.2673  1.2792
    5SAPS   H3Y  619   2.532   6.083  10.361 -0.1666  0.8963 -0.4469
    5SAPS   C34  620   2.688   5.963  10.257 -0.2660 -0.5368 -0.0295
    5SAPS   H4X  621   2.643   5.868  10.296 -1.9593 -0.2330 -1.1963
    5SAPS   H4Y  622   2.799   5.961  10.263 -0.2143  1.5566  0.0110
    5SAPS   C35  623   2.664   5.976  10.107  0.1962  0.0679 -0.5373
    5SAPS   H5X  624   2.725   6.052  10.053 -0.1413 -0.0738 -1.1273
    5SAPS   H5Y  625   2.563   6.018  10.088  0.2459  0.8265  0.8035
    5SAPS   C36  626   2.684   5.847  10.017  0.4496 -0.4902 -0.1240
    5SAPS   H6X  627   2.605   5.775  10.046  1.2072 -0.2727  2.6367
    5SAPS   H6Y  628   2.780   5.800  10.047  0.7932 -0.1353 -0.6492
    5SAPS   C37  629   2.690   5.877   9.864 -0.3437  0.1912  0.3693
    5SAPS   H7X  630   2.593   5.916   9.828 -0.6703 -0.4521  0.5549
    5SAPS   H7Y  631   2.708   5.779   9.814  2.4006  1.2905 -0.9207
    5SAPS   C38  632   2.802   5.972   9.814 -0.0436 -0.2941  0.6664
    5SAPS   H8X  633   2.896   5.958   9.872  0.0238 -0.1052  0.6035
    5SAPS   H8Y  634   2.771   6.078   9.815  1.8278  0.2665  0.9503
    5SAPS   C39  635   2.840   5.934   9.669 -0.2546  0.1706 -0.5482
    5SAPS   H9X  636   2.887   6.023   9.622 -0.0617  0.1040 -0.4810
    5SAPS   H9Y  637   2.744   5.915   9.617 -0.0410 -4.5861  0.5546
    5SAPS  C310  638   2.942   5.831   9.638  0.5274  0.0360  1.2118
    5SAPS  H10X  639   2.905   5.731   9.671 -0.3407 -0.3304 -0.7740
    5SAPS  H10Y  640   3.037   5.852   9.691  0.3539  1.9993  0.7735
    5SAPS  C311  641   2.949   5.832   9.484  0.4920  0.2498 -0.2016
    5SAPS  H11X  642   2.990   5.920   9.430  2.2507 -0.9704 -0.9060
    5SAPS  H11Y  643   2.847   5.807   9.447  1.6545 -1.8288 -2.0906
    5SAPS  C312  644   3.049   5.730   9.440 -0.3370 -0.0155 -0.0006
    5SAPS  H12X  645   3.020   5.629   9.474  1.3998  0.0218  1.6372
    5SAPS  H12Y  646   3.145   5.752   9.491 -0.6859 -1.1435  1.1442
    5SAPS  C313  647   3.083   5.725   9.289 -0.8485 -0.7839 -0.0222
    5SAPS  H13X  648   3.165   5.660   9.254 -2.0208 -1.4512 -1.5476
    5SAPS  H13Y  649   3.114   5.829   9.265 -0.8135 -0.4113  1.5623
    5SAPS  C314  650   2.967   5.688   9.203  0.2647  0.3946  0.1031
    5SAPS  H14X  651   2.880   5.757   9.214 -0.0812 -0.0039 -0.0859
    5SAPS  H14Y  652   2.928   5.591   9.240 -2.0379  1.6297  1.0740
    5SAPS  C315  653   2.989   5.696   9.046 -0.6301  0.1541 -0.0646
    5SAPS  H15X  654   3.081   5.644   9.013 -0.3171  1.3082 -1.0674
    5SAPS  H15Y  655   3.028   5.795   9.014 -0.9002  0.1745 -0.3346
    5SAPS  C316  656   2.864   5.648   8.971  0.0393 -0.6760  0.5845
    5SAPS  H16X  657   2.785   5.720   9.003  1.2028  0.9694 -0.2282
    5SAPS  H16Y  658   2.847   5.547   9.014 -1.5365  0.2552  2.2363
    5SAPS  C317  659   2.888   5.634   8.818  1.1813 -0.4125 -0.3155
    5SAPS  H17X  660   2.812   5.568   8.772 -0.0515  0.6437  0.1720
    5SAPS  H17Y  661   2.979   5.574   8.797  0.1271 -1.6337 -1.4922
    5SAPS  C318  662   2.886   5.763   8.741  0.8244  0.2642  0.4266
    5SAPS  H18X  663   2.966   5.833   8.774  1.4705 -0.7748  1.0986
    5SAPS  H18Y  664   2.792   5.822   8.749  1.3299  1.2152 -0.3702
    5SAPS  H18Z  665   2.902   5.740   8.633 -1.7595 -1.9943  0.4791
    6SAPS     N  666   0.838   4.111  11.297  0.0296 -0.5976  0.3130
    6SAPS   HN1  667   0.854   4.011  11.276  1.0305 -0.2617 -0.6076
    6SAPS   HN2  668   0.916   4.140  11.360  1.6520 -1.3703 -1.2989
    6SAPS   HN3  669   0.757   4.109  11.362 -0.9838  2.1643 -0.7938
    6SAPS   C12  670   0.825   4.206  11.186  0.7588 -0.0612  0.1121
    6SAPS  H12A  671   0.749   4.162  11.123 -0.9705  0.9105  1.4641
    6SAPS   C13  672   0.769   4.352  11.222  0.2594  0.3633 -0.3058
    6SAPS  O13A  673   0.756   4.379  11.344  0.3425  0.5588  1.2316
    6SAPS  O13B  674   0.747   4.436  11.138 -0.3887 -0.1094 -0.4522
    6SAPS   C11  675   0.954   4.219  11.104 -0.2718 -0.0716  0.3460
    6SAPS  H11A  676   1.022   4.269  11.177 -1.4211  0.7840  0.8322
    6SAPS  H11B  677   0.945   4.291  11.021  0.5080 -0.8774 -0.4529
    6SAPS     P  678   1.121   4.089  10.962 -0.3514  0.3197 -0.2685
    6SAPS   O13  679   1.213   4.185  11.020  0.2192 -0.4406  0.0705
    6SAPS   O14  680   1.168   3.950  10.954 -0.3642 -0.5306 -0.1870
    6SAPS   O12  681   0.994   4.089  11.056 -0.7593 -0.0279 -0.4475
    6SAPS   O11  682   1.060   4.140  10.829 -0.0355 -0.1421  0.1724
    6SAPS    C1  683   0.951   4.095  10.749  0.6410 -0.0622 -0.0413
    6SAPS    HA  684   0.925   3.993  10.785  1.0113  0.3511  1.4496
    6SAPS    HB  685   0.865   4.165  10.760 -0.0683 -1.1413  1.4762
    6SAPS    C2  686   0.982   4.083  10.588  0.3164  0.1909 -0.7192
    6SAPS    HS  687   1.067   4.012  10.587  0.3209  0.1762  0.2271
    6SAPS   O21  688   1.011   4.211  10.540 -0.0855 -0.6021 -0.0734
    6SAPS   C21  689   1.136   4.242  10.526 -0.6662  0.1075  0.1013
    6SAPS   O22  690   1.235   4.176  10.552 -0.5803 -0.9071  0.5342
    6SAPS   C22  691   1.142   4.378  10.456  0.2951 -0.5769  0.7041
    6SAPS   H2R  692   1.045   4.419  10.421  1.6289  1.1099 -1.1433
    6SAPS   H2S  693   1.193   4.443  10.531 -1.8391  0.9031  0.9095
    6SAPS    C3  694   0.862   4.023  10.519  0.5559  0.3178 -0.3932
    6SAPS    HX  695   0.781   4.098  10.503  0.7335  0.8765  1.1855
    6SAPS    HY  696   0.815   3.940  10.576  0.9735  1.0082  0.9889
    6SAPS   O31  697   0.898   3.974  10.387 -0.3967 -0.1540  0.8101
    6SAPS   C31  698   0.943   3.852  10.368 -0.1275 -0.0384 -0.4728
    6SAPS   O32  699   0.977   3.776  10.457 -0.0869 -0.0089 -0.0185
    6SAPS   C32  700   0.952   3.820  10.216  0.5633  0.0578 -0.3546
    6SAPS   H2X  701   0.846   3.799  10.188  0.3790  0.2965  0.1562
    6SAPS   H2Y  702   1.008   3.724  10.212 -0.9827 -0.8352 -1.5514
    6SAPS   C23  703   1.230   4.379  10.333  0.0405 -0.3519  0.5218
    6SAPS   H3R  704   1.187   4.302  10.265 -0.0237 -0.6482  0.8902
    6SAPS   H3S  705   1.330   4.340  10.360 -0.0431 -1.6677 -0.9859
    6SAPS   C24  706   1.234   4.518  10.279  0.2178 -0.8088  0.0949
    6SAPS   H4R  707   1.132   4.559  10.274 -0.1266 -1.8011 -1.1232
    6SAPS   H4S  708   1.275   4.492  10.179 -0.3673 -1.9583  0.1526
    6SAPS   C25  709   1.347   4.590  10.346  0.1522  0.2418 -0.7158
    6SAPS   H5R  710   1.337   4.601  10.455 -0.3815  0.3073 -0.7687
    6SAPS   C26  711   1.449   4.651  10.286 -0.5958 -0.1759  0.9827
    6SAPS   H6R  712   1.525   4.687  10.357  0.8194 -2.5682  0.7792
    6SAPS   C27  713   1.487   4.674  10.137 -1.2066  0.4810 -0.3100
    6SAPS   H7R  714   1.397   4.648  10.079 -1.3763 -1.2125  0.6908
    6SAPS   H7S  715   1.561   4.604  10.093 -0.3746 -0.5628  2.6229
    6SAPS   C28  716   1.513   4.822  10.122  0.6138  0.1791  0.7297
    6SAPS   H8R  717   1.477   4.892  10.199 -0.6841 -0.7670  0.9999
    6SAPS   C29  718   1.573   4.868  10.015  0.4561 -0.7368 -0.7472
    6SAPS   H9R  719   1.602   4.974  10.018  2.7097 -1.3721  1.3995
    6SAPS  C210  720   1.623   4.798   9.893  0.7423  0.1278 -0.4463
    6SAPS  H10R  721   1.600   4.689   9.897 -3.2839  0.9505  0.8080
    6SAPS  H10S  722   1.732   4.808   9.875  0.6686  2.0240  0.1353
    6SAPS  C211  723   1.544   4.854   9.782 -0.0701 -0.5197 -0.1875
    6SAPS  H11R  724   1.455   4.909   9.818  0.7336  1.4165 -1.0542
    6SAPS  C212  725   1.566   4.852   9.648  0.0863  0.7293  0.5078
    6SAPS  H12R  726   1.478   4.876   9.586 -0.8070 -1.1023  1.0477
    6SAPS  C213  727   1.682   4.787   9.579  0.6002  0.1142  1.0430
    6SAPS  H13R  728   1.744   4.736   9.656 -1.1111 -0.1618  2.2607
    6SAPS  H13S  729   1.745   4.866   9.533  1.9822 -1.7733 -0.4224
    6SAPS  C214  730   1.629   4.696   9.475 -1.1416  0.0516  0.0470
    6SAPS  H14R  731   1.573   4.611   9.516 -0.8513 -0.0377  0.2580
    6SAPS  C215  732   1.617   4.710   9.341 -0.3466  0.5019 -0.7376
    6SAPS  H15R  733   1.578   4.633   9.273  2.3667 -1.5960 -0.0118
    6SAPS  C216  734   1.672   4.830   9.264 -0.4619 -0.4782  0.7504
    6SAPS  H16R  735   1.680   4.920   9.329  0.7633  1.7222 -2.3095
    6SAPS  H16S  736   1.596   4.838   9.182 -1.7148 -0.0443  1.9415
    6SAPS  C217  737   1.810   4.808   9.193 -0.0686  0.3855 -0.2081
    6SAPS  H17R  738   1.881   4.795   9.278  0.0922 -0.2460 -0.4427
    6SAPS  H17S  739   1.843   4.892   9.127  0.9599 -0.7862 -1.2102
    6SAPS  C218  740   1.827   4.677   9.106 -0.1057 -0.1828 -0.5788
    6SAPS  H18R  741   1.768   4.687   9.013 -0.8144  0.9531 -0.0324
    6SAPS  H18S  742   1.786   4.589   9.159 -2.3370  1.1811  0.0533
    6SAPS  C219  743   1.966   4.642   9.067  0.1649 -0.1495  0.5150
    6SAPS  H19R  744   2.018   4.639   9.165 -0.4260  0.2874  0.8474
    6SAPS  H19S  745   2.004   4.727   9.005 -2.6833  0.4355 -0.5166
    6SAPS  C220  746   1.977   4.509   8.989 -0.5488 -0.1767 -0.0190
    6SAPS  H20R  747   1.928   4.536   8.892 -2.4861 -1.0816  0.6743
    6SAPS  H20S  748   1.924   4.430   9.046 -0.1040  0.4389  1.2605
    6SAPS  H20T  749   2.085   4.486   8.982  0.1770  2.6197  1.1669
    6SAPS   C33  750   0.996   3.931  10.120 -0.1647  0.1464 -0.4174
    6SAPS   H3X  751   1.094   3.975  10.147  0.6138 -2.0804  0.5089
    6SAPS   H3Y  752   0.928   4.019  10.119  0.4227  0.6102 -0.0918
    6SAPS   C34  753   0.980   3.883   9.977 -0.1835 -0.3643 -0.2267
    6SAPS   H4X  754   0.876   3.893   9.939 -0.4280 -0.7023  0.3430
    6SAPS   H4Y  755   1.003   3.774   9.966 -1.2063 -0.3553 -2.5899
    6SAPS   C35  756   1.080   3.965   9.885 -0.8279 -0.2037 -0.7084
    6SAPS   H5X  757   1.186   3.936   9.901 -0.2161  1.9816 -0.5609
    6SAPS   H5Y  758   1.065   4.073   9.908 -1.1326 -0.7353  1.7142
    6SAPS   C36  759   1.048   3.938   9.737 -0.5914 -0.4009  0.3927
    6SAPS   H6X  760   0.952   3.992   9.720 -1.1913 -1.1365  1.4065
    6SAPS   H6Y  761   1.045   3.829   9.716 -1.2054 -0.4027  0.4629
    6SAPS   C37  762   1.149   4.005   9.648  0.5364  0.4979 -0.0517
    6SAPS   H7X  763   1.248   3.993   9.696 -0.2611 -0.3955  1.3798
    6SAPS   H7Y  764   1.136   4.115   9.636  0.2630  0.3137 -1.5978
    6SAPS   C38  765   1.146   3.953   9.502  0.4723  0.2097 -0.1128
    6SAPS   H8X  766   1.140   3.842   9.503  0.5425  0.1781 -2.3320
    6SAPS   H8Y  767   1.243   3.982   9.456  0.7920 -1.5380 -0.5807
    6SAPS   C39  768   1.038   4.019   9.419 -0.3905 -0.0196 -0.0149
    6SAPS   H9X  769   1.052   4.124   9.389 -0.5370  0.1728  0.5654
    6SAPS   H9Y  770   0.940   3.994   9.467  0.3478 -2.7522  0.1805
    6SAPS  C310  771   1.025   3.944   9.283  0.0971  0.6076 -0.0887
    6SAPS  H10X  772   0.989   3.844   9.315 -0.9717  0.8707 -0.4428
    6SAPS  H10Y  773   1.125   3.942   9.234  0.8338 -0.2536  1.4009
    6SAPS  C311  774   0.929   3.995   9.174 -0.2089  0.0668 -0.0816
    6SAPS  H11X  775   0.938   4.106   9.164 -0.4780 -0.1019 -2.4870
    6SAPS  H11Y  776   0.821   3.980   9.198 -0.3086  1.5470  0.4774
    6SAPS  C312  777   0.952   3.940   9.035 -0.2858 -1.0248 -0.0544
    6SAPS  H12X  778   0.872   3.965   8.961 -2.3067 -1.4080  1.9576
    6SAPS  H12Y  779   0.966   3.830   9.044 -0.3678 -1.0396 -0.1035
    6SAPS  C313  780   1.078   3.996   8.972  0.2452 -0.7943 -0.3178
    6SAPS  H13X  781   1.167   3.983   9.037  2.0080  0.6357 -2.3706
    6SAPS  H13Y  782   1.077   4.102   8.940  1.6625 -0.9039 -0.7541
    6SAPS  C314  783   1.111   3.910   8.848 -0.0075  0.0321  0.3152
    6SAPS  H14X  784   1.020   3.887   8.788 -0.2339  1.2909  0.1507
    6SAPS  H14Y  785   1.143   3.810   8.883  0.1359 -0.1091 -0.2182
    6SAPS  C315  786   1.215   3.970   8.755  0.0835  0.5966 -0.4647
    6SAPS  H15X  787   1.307   3.986   8.816  0.3922 -0.1874 -0.7258
    6SAPS  H15Y  788   1.162   4.062   8.722  0.2746  1.0400  0.4441
    6SAPS  C316  789   1.247   3.877   8.629  0.0059  0.1526 -0.2020
    6SAPS  H16X  790   1.174   3.888   8.546 -0.0341 -1.4475 -0.4027
    6SAPS  H16Y  791   1.224   3.777   8.671 -2.4064  0.4204 -0.7832
    6SAPS  C317  792   1.385   3.899   8.578 -0.2296 -0.3743 -0.8340
    6SAPS  H17X  793   1.451   3.876   8.664 -1.4226  0.6721  0.3911
    6SAPS  H17Y  794   1.401   4.004   8.545 -0.3231 -1.0400 -3.0608
    6SAPS  C318  795   1.412   3.799   8.465  0.2833  0.4733 -0.3358
    6SAPS  H18X  796   1.382   3.700   8.505  1.7786  0.4466  0.7689
    6SAPS  H18Y  797   1.522   3.809   8.451  0.3275  0.9438  0.3384
    6SAPS  H18Z  798   1.367   3.829   8.368 -1.1261 -1.0847 -0.1714
    7SAPS     N  799   3.795   5.502  11.117  0.3362 -0.9844  1.3521
    7SAPS   HN1  800   3.807   5.464  11.021  0.7240 -1.4479  1.5847
    7SAPS   HN2  801   3.871   5.571  11.136  0.9704 -0.7123 -1.8361
    7SAPS   HN3  802   3.795   5.433  11.195  2.8613 -0.3592  1.9415
    7SAPS   C12  803   3.666   5.574  11.097  0.7123 -0.5062  0.7746
    7SAPS  H12A  804   3.595   5.499  11.065  0.4264 -0.1814  0.6347
    7SAPS   C13  805   3.606   5.644  11.220  0.1385 -0.1986  0.0708
    7SAPS  O13A  806   3.665   5.660  11.329  0.2661  0.5547 -0.3514
    7SAPS  O13B  807   3.481   5.674  11.203 -0.6067 -0.4420 -0.0894
    7SAPS   C11  808   3.677   5.668  10.978  0.2840 -0.0829 -0.8478
    7SAPS  H11A  809   3.742   5.748  11.018 -1.0688  0.1535  0.9430
    7SAPS  H11B  810   3.582   5.709  10.938  0.2450  0.0077 -0.6638
    7SAPS     P  811   3.660   5.537  10.744  0.0390  0.0905  0.3393
    7SAPS   O13  812   3.731   5.572  10.616  0.1900  0.2785 -0.1958
    7SAPS   O14  813   3.645   5.391  10.761 -0.2240  0.6475  0.4676
    7SAPS   O12  814   3.735   5.600  10.861 -0.6459 -0.4290  0.1482
    7SAPS   O11  815   3.521   5.610  10.739 -0.3913  0.3553  0.5063
    7SAPS    C1  816   3.412   5.544  10.677  0.0002 -0.5471  0.3073
    7SAPS    HA  817   3.409   5.438  10.709 -0.8743 -0.4652  0.5098
    7SAPS    HB  818   3.318   5.595  10.707  0.7540 -0.0277  1.8440
    7SAPS    C2  819   3.411   5.569  10.514  0.1898 -0.2733  0.4292
    7SAPS    HS  820   3.518   5.568  10.483 -0.4250 -2.1369 -1.7930
    7SAPS   O21  821   3.352   5.696  10.484 -0.3438  0.3526 -0.6221
    7SAPS   C21  822   3.395   5.758  10.368 -0.2031  0.3633 -0.4026
    7SAPS   O22  823   3.472   5.703  10.292  0.1784  0.0290 -0.0133
    7SAPS   C22  824   3.338   5.895  10.354  0.1337 -0.0601  0.6577
    7SAPS   H2R  825   3.232   5.896  10.389 -0.9591 -1.5816 -2.4274
    7SAPS   H2S  826   3.388   5.966  10.423 -0.2654  0.8906 -0.0196
    7SAPS    C3  827   3.344   5.457  10.432 -0.1288  0.1671 -0.5190
    7SAPS    HX  828   3.233   5.454  10.443 -0.1376  0.0977 -0.6208
    7SAPS    HY  829   3.383   5.363  10.476 -2.5173 -1.2141 -1.2045
    7SAPS   O31  830   3.367   5.449  10.295 -0.1001  0.0270 -0.1244
    7SAPS   C31  831   3.483   5.394  10.248  0.6526 -0.6113 -0.6896
    7SAPS   O32  832   3.571   5.342  10.312 -0.7079 -0.8873 -0.5436
    7SAPS   C32  833   3.490   5.424  10.094  0.0227 -0.6386  0.4292
    7SAPS   H2X  834   3.498   5.534  10.085 -0.5054 -0.6505 -0.2186
    7SAPS   H2Y  835   3.391   5.398  10.052 -0.3127  0.1740  0.7159
    7SAPS   C23  836   3.335   5.961  10.215 -0.4383 -0.3025  0.1499
    7SAPS   H3R  837   3.266   5.904  10.149  0.1857 -0.0591 -0.7151
    7SAPS   H3S  838   3.435   5.944  10.168 -0.7816  1.1629 -1.1391
    7SAPS   C24  839   3.290   6.110  10.212  0.5739 -0.7048  0.3718
    7SAPS   H4R  840   3.282   6.150  10.109  1.4305 -0.3391  0.4438
    7SAPS   H4S  841   3.362   6.171  10.270 -0.5182  0.1030  0.8938
    7SAPS   C25  842   3.157   6.125  10.282  0.4587  0.1099  0.5929
    7SAPS   H5R  843   3.145   6.064  10.372 -0.8784  0.0393  0.3747
    7SAPS   C26  844   3.056   6.185  10.225  0.2961 -0.0355 -0.5240
    7SAPS   H6R  845   2.965   6.197  10.285 -0.6348  0.4462 -1.9930
    7SAPS   C27  846   3.046   6.254  10.091  0.2708  0.2176 -1.0190
    7SAPS   H7R  847   3.122   6.333  10.073  0.0861 -0.0098 -2.8048
    7SAPS   H7S  848   2.947   6.305  10.087  0.9954  2.2171  3.1519
    7SAPS   C28  849   3.042   6.151   9.980 -0.3782 -0.0222 -0.9276
    7SAPS   H8R  850   3.005   6.055  10.017 -0.3689  0.7325  1.1269
    7SAPS   C29  851   3.085   6.160   9.854  0.6420 -0.8229  0.8254
    7SAPS   H9R  852   3.084   6.064   9.801 -0.4450 -1.3482  1.7718
    7SAPS  C210  853   3.150   6.276   9.786  0.0433  0.0954  0.4082
    7SAPS  H10R  854   3.252   6.251   9.751  0.5763  0.3247  1.7379
    7SAPS  H10S  855   3.167   6.367   9.849 -0.3490 -0.3333  1.1330
    7SAPS  C211  856   3.061   6.321   9.671 -0.4973  0.4338 -0.0855
    7SAPS  H11R  857   2.959   6.352   9.698 -0.8902 -0.2719 -0.7264
    7SAPS  C212  858   3.087   6.313   9.543 -0.1031  1.5298 -0.4167
    7SAPS  H12R  859   3.009   6.344   9.472  1.2792  0.6841 -2.3403
    7SAPS  C213  860   3.214   6.258   9.478  0.1450  0.7537  0.4883
    7SAPS  H13R  861   3.287   6.316   9.539  2.3748  0.9644 -2.3067
    7SAPS  H13S  862   3.224   6.313   9.383 -1.2160  1.1719  0.5794
    7SAPS  C214  863   3.237   6.107   9.473  0.5409  0.2200 -0.2296
    7SAPS  H14R  864   3.179   6.044   9.542 -1.7359  2.2581 -0.2084
    7SAPS  C215  865   3.320   6.055   9.386 -0.1953  0.0127 -0.1779
    7SAPS  H15R  866   3.344   5.948   9.379  1.2023  0.3694 -0.9446
    7SAPS  C216  867   3.395   6.141   9.290  0.3047 -0.7727  0.0022
    7SAPS  H16R  868   3.496   6.099   9.273  1.2661  1.4411  0.0082
    7SAPS  H16S  869   3.411   6.248   9.317  2.3382 -0.4367 -2.3041
    7SAPS  C217  870   3.315   6.135   9.156 -0.1636  1.0656  0.2542
    7SAPS  H17R  871   3.350   6.221   9.095 -0.7152  1.7761  0.9139
    7SAPS  H17S  872   3.204   6.147   9.163 -0.4948 -0.4223 -1.9230
    7SAPS  C218  873   3.333   6.002   9.078  0.1174 -0.3715 -0.2084
    7SAPS  H18R  874   3.303   5.919   9.145 -0.0497 -0.5669 -0.5256
    7SAPS  H18S  875   3.441   5.998   9.051 -0.2860  0.8742 -2.0950
    7SAPS  C219  876   3.262   5.991   8.944  0.7416 -0.3020 -0.2186
    7SAPS  H19R  877   3.305   6.060   8.868 -0.2793 -0.1715 -0.6940
    7SAPS  H19S  878   3.156   6.025   8.951  0.2041 -1.8348 -0.7090
    7SAPS  C220  879   3.269   5.849   8.890 -0.1522  0.0543  0.6787
    7SAPS  H20R  880   3.199   5.838   8.804 -1.0061 -2.5604  1.6790
    7SAPS  H20S  881   3.247   5.770   8.965 -1.6555 -0.1068  0.0852
    7SAPS  H20T  882   3.373   5.826   8.858 -0.4508 -0.4957  0.0943
    7SAPS   C33  883   3.606   5.347  10.023  0.5698  0.1607  0.0384
    7SAPS   H3X  884   3.578   5.243  10.051  1.4668 -0.3312 -0.8581
    7SAPS   H3Y  885   3.704   5.366  10.072 -0.2331 -2.2040  2.6657
    7SAPS   C34  886   3.602   5.372   9.873  0.6109  0.6810 -0.0428
    7SAPS   H4X  887   3.700   5.348   9.828  0.3774 -0.9611  0.2759
    7SAPS   H4Y  888   3.582   5.477   9.842  3.2045  0.7712 -1.4908
    7SAPS   C35  889   3.484   5.300   9.802  0.1444  0.2462 -0.7936
    7SAPS   H5X  890   3.390   5.348   9.835  0.6924 -1.1874  3.0429
    7SAPS   H5Y  891   3.472   5.199   9.847  2.1145 -0.6763 -2.2600
    7SAPS   C36  892   3.495   5.286   9.646 -0.4196  0.3628  0.0945
    7SAPS   H6X  893   3.522   5.387   9.610 -0.5226  0.3424 -0.0370
    7SAPS   H6Y  894   3.390   5.273   9.613 -0.1791  2.5608 -1.5979
    7SAPS   C37  895   3.591   5.181   9.604 -1.0395 -0.2556 -0.0194
    7SAPS   H7X  896   3.565   5.079   9.640 -4.1415  1.3769  2.5924
    7SAPS   H7Y  897   3.679   5.198   9.670 -1.3906 -2.0976  0.9526
    7SAPS   C38  898   3.644   5.177   9.454  0.6173 -0.0438 -0.0504
    7SAPS   H8X  899   3.727   5.247   9.429  0.2953 -0.2592 -1.7885
    7SAPS   H8Y  900   3.573   5.214   9.377 -1.1737 -0.0966  1.5578
    7SAPS   C39  901   3.658   5.034   9.412  0.0378  0.2300 -0.5322
    7SAPS   H9X  902   3.558   4.987   9.418 -0.0154  0.4077  0.0570
    7SAPS   H9Y  903   3.733   4.983   9.477  0.3242 -1.5181 -2.2080
    7SAPS  C310  904   3.717   4.991   9.273 -0.1848 -0.8099 -0.7660
    7SAPS  H10X  905   3.708   4.881   9.257 -2.7600 -0.8116  0.2946
    7SAPS  H10Y  906   3.823   5.022   9.284 -0.5947 -0.4373  2.7113
    7SAPS  C311  907   3.638   5.060   9.154  0.4618  0.2906 -0.5386
    7SAPS  H11X  908   3.653   5.170   9.155 -1.1673  0.5311  0.0365
    7SAPS  H11Y  909   3.527   5.053   9.160  0.3832  2.5187  0.7450
    7SAPS  C312  910   3.698   5.031   9.013  0.0883  0.6047  0.7407
    7SAPS  H12X  911   3.687   4.925   8.980 -3.8209  1.2063 -0.1291
    7SAPS  H12Y  912   3.804   5.057   9.031  0.5822  0.4547 -1.7955
    7SAPS  C313  913   3.637   5.117   8.905 -0.2872 -0.1236  0.0241
    7SAPS  H13X  914   3.660   5.222   8.933 -0.1293 -0.1584  0.0246
    7SAPS  H13Y  915   3.527   5.110   8.893 -0.5320  3.3247 -0.3166
    7SAPS  C314  916   3.698   5.098   8.766  0.0015 -0.5963  0.8305
    7SAPS  H14X  917   3.636   5.164   8.701 -2.4361 -0.6810  3.0153
    7SAPS  H14Y  918   3.678   4.992   8.742 -0.2073 -0.1751 -0.9399
    7SAPS  C315  919   3.842   5.130   8.748 -0.4821 -0.1435  0.7188
    7SAPS  H15X  920   3.896   5.061   8.815  0.8668 -0.5051 -0.7171
    7SAPS  H15Y  921   3.868   5.233   8.780 -0.6588 -0.6291  2.4705
    7SAPS  C316  922   3.898   5.103   8.611  0.4061 -1.1500 -0.3567
    7SAPS  H16X  923   3.840   5.161   8.536  2.2282  1.1402 -0.0370
    7SAPS  H16Y  924   3.885   4.996   8.586 -1.6455 -1.3802  1.5660
    7SAPS  C317  925   4.044   5.157   8.581  0.1157  0.4288 -1.0002
    7SAPS  H17X  926   4.048   5.268   8.575 -0.8045  0.5260  0.0527
    7SAPS  H17Y  927   4.066   5.101   8.488 -0.0039 -0.2885 -0.5977
    7SAPS  C318  928   4.153   5.111   8.674 -0.2603 -1.2523 -0.2795
    7SAPS  H18X  929   4.176   5.004   8.654  1.3026 -1.1539  0.8271
    7SAPS  H18Y  930   4.134   5.120   8.783 -1.7754  0.4078 -0.6562
    7SAPS  H18Z  931   4.247   5.169   8.658 -0.1283 -1.4591 -0.2506
    8SAPS     N  932   0.867   0.351  10.726 -0.4418 -0.2653  0.7569
    8SAPS   HN1  933   0.920   0.326  10.640  0.9029 -2.1350  2.0920
    8SAPS   HN2  934   0.812   0.268  10.755 -1.7551  0.0943 -0.6300
    8SAPS   HN3  935   0.804   0.430  10.701 -1.0044 -1.3853 -1.4984
    8SAPS   C12  936   0.960   0.384  10.837  0.1405  0.0268 -0.6308
    8SAPS  H12A  937   1.044   0.423  10.782 -0.3804  1.4808 -0.4367
    8SAPS   C13  938   0.910   0.502  10.932 -0.0380  0.5298  0.3807
    8SAPS  O13A  939   0.806   0.568  10.898 -0.7922  0.0035 -0.4668
    8SAPS  O13B  940   0.999   0.553  11.005 -0.9192 -0.1148 -0.0073
    8SAPS   C11  941   0.998   0.260  10.924  0.2775 -0.3577  0.3365
    8SAPS  H11A  942   0.918   0.243  10.999  1.3760 -1.0808  1.3689
    8SAPS  H11B  943   1.087   0.295  10.981  0.5164 -1.6079  0.7449
    8SAPS     P  944   1.068   0.024  10.926  0.5536  0.2010  0.0119
    8SAPS   O13  945   1.161   0.064  11.033  0.4082 -0.4559  0.5071
    8SAPS   O14  946   0.942  -0.038  10.974 -0.0822  0.5299 -0.2672
    8SAPS   O12  947   1.040   0.150  10.840  0.1702  0.3479 -0.6473
    8SAPS   O11  948   1.128  -0.076  10.828  0.8071  0.3977 -0.1688
    8SAPS    C1  949   1.233  -0.042  10.734 -0.0996 -0.9714  0.1647
    8SAPS    HA  950   1.297   0.038  10.777 -0.4339 -1.6408  1.9427
    8SAPS    HB  951   1.307  -0.124  10.724  0.7556  0.0295 -1.9967
    8SAPS    C2  952   1.166  -0.004  10.598 -0.2517  0.2346  0.0499
    8SAPS    HS  953   1.061   0.029  10.618  0.0829  0.0247  2.3832
    8SAPS   O21  954   1.165  -0.114  10.505 -0.4979  0.0435 -0.6082
    8SAPS   C21  955   1.061  -0.122  10.419 -0.3681 -0.3088 -0.4118
    8SAPS   O22  956   0.964  -0.049  10.419 -0.4351  0.1228  0.5400
    8SAPS   C22  957   1.093  -0.235  10.323  0.2827  0.6276 -0.3003
    8SAPS   H2R  958   1.191  -0.224  10.270  0.8568  0.4035  0.7130
    8SAPS   H2S  959   1.097  -0.329  10.381  0.9194  1.0284  0.3139
    8SAPS    C3  960   1.247   0.123  10.541  1.1420 -0.2341  0.3067
    8SAPS    HX  961   1.355   0.097  10.539  0.4245 -3.5534  0.5866
    8SAPS    HY  962   1.237   0.195  10.625  1.7987 -1.5732  1.5534
    8SAPS   O31  963   1.197   0.165  10.410 -0.3638  0.0049 -0.4197
    8SAPS   C31  964   1.103   0.256  10.416 -0.2929 -0.0730 -0.5632
    8SAPS   O32  965   1.043   0.289  10.518  0.5518 -0.0790 -0.1996
    8SAPS   C32  966   1.078   0.334  10.281  0.1203  0.5460 -0.1534
    8SAPS   H2X  967   1.036   0.260  10.210 -0.9044  0.6195  0.3750
    8SAPS   H2Y  968   1.180   0.366  10.250 -0.3231  2.5089  0.3893
    8SAPS   C23  969   0.982  -0.257  10.219 -0.3478 -0.7220 -0.5418
    8SAPS   H3R  970   0.923  -0.166  10.197  0.4030  0.4671  2.2488
    8SAPS   H3S  971   0.910  -0.333  10.257 -1.4918  0.4143 -0.4109
    8SAPS   C24  972   1.039  -0.315  10.086  0.5620 -0.0206 -0.1251
    8SAPS   H4R  973   0.958  -0.377  10.040  0.8038  0.0045 -0.5850
    8SAPS   H4S  974   1.128  -0.377  10.108  1.4811  1.2432 -0.2405
    8SAPS   C25  975   1.084  -0.201   9.990 -0.3960  0.0831  0.0747
    8SAPS   H5R  976   1.147  -0.122  10.033  0.4179 -1.5910  2.0525
    8SAPS   C26  977   1.043  -0.199   9.856 -0.0116  0.1333 -0.2127
    8SAPS   H6R  978   1.076  -0.118   9.789 -0.0641 -0.0063 -0.4102
    8SAPS   C27  979   0.948  -0.298   9.788  0.2749  0.2536  0.6047
    8SAPS   H7R  980   0.862  -0.313   9.856 -0.0857 -1.9386 -0.2975
    8SAPS   H7S  981   1.009  -0.391   9.782  0.2272  0.1996  0.9578
    8SAPS   C28  982   0.896  -0.268   9.646  0.4960  0.5265 -0.1127
    8SAPS   H8R  983   0.791  -0.298   9.630  1.0343 -0.1973 -2.5951
    8SAPS   C29  984   0.964  -0.230   9.538  0.0450 -0.0791  0.0076
    8SAPS   H9R  985   0.902  -0.201   9.452 -1.3508  2.5468  1.8520
    8SAPS  C210  986   1.118  -0.221   9.522  0.0757 -0.1306  0.1444
    8SAPS  H10R  987   1.163  -0.304   9.464  1.0313  0.6181 -0.1881
    8SAPS  H10S  988   1.166  -0.243   9.620  0.0114  1.5240  0.5553
    8SAPS  C211  989   1.149  -0.087   9.455 -0.6375  0.0931  0.1068
    8SAPS  H11R  990   1.092  -0.066   9.363  1.7496  0.1901 -1.3692
    8SAPS  C212  991   1.243  -0.006   9.504 -0.3265 -0.1884 -0.6357
    8SAPS  H12R  992   1.260   0.094   9.460 -0.2089  0.5727  1.1039
    8SAPS  C213  993   1.345  -0.028   9.615 -0.0325  0.5702  0.7442
    8SAPS  H13R  994   1.388  -0.130   9.603 -1.9598  0.0411 -2.1691
    8SAPS  H13S  995   1.283  -0.024   9.707 -0.2716  2.7620  0.5165
    8SAPS  C214  996   1.461   0.076   9.606  0.4546  0.2045  0.5244
    8SAPS  H14R  997   1.430   0.181   9.593  0.4644  0.4290  2.2287
    8SAPS  C215  998   1.588   0.052   9.614 -0.2992  0.1473  0.0879
    8SAPS  H15R  999   1.654   0.136   9.587  0.1342 -0.6441 -1.3562
    8SAPS  C216 1000   1.647  -0.082   9.639  0.9091 -0.3008 -0.3893
    8SAPS  H16R 1001   1.589  -0.143   9.713  0.6282  0.0147 -0.3462
    8SAPS  H16S 1002   1.747  -0.083   9.686  0.9933 -0.6920 -0.5802
    8SAPS  C217 1003   1.634  -0.164   9.511 -0.0006 -0.3360 -0.4817
    8SAPS  H17R 1004   1.533  -0.159   9.466 -0.8387 -0.9582  1.2822
    8SAPS  H17S 1005   1.646  -0.273   9.531 -1.3800 -0.0661  1.9379
    8SAPS  C218 1006   1.723  -0.119   9.394 -0.6550  0.4204 -0.1512
    8SAPS  H18R 1007   1.826  -0.148   9.424  0.8857  0.8457 -4.6594
    8SAPS  H18S 1008   1.722  -0.008   9.391  0.5074  0.4083 -1.3387
    8SAPS  C219 1009   1.701  -0.172   9.257  1.1964 -0.1053 -0.3482
    8SAPS  H19R 1010   1.591  -0.159   9.243  0.9766  0.7267  1.8840
    8SAPS  H19S 1011   1.717  -0.282   9.257 -1.0711 -0.4891 -2.3282
    8SAPS  C220 1012   1.785  -0.115   9.144  0.0240 -0.0530  0.4693
    8SAPS  H20R 1013   1.831  -0.016   9.167 -0.9650 -0.2858  3.6406
    8SAPS  H20S 1014   1.721  -0.104   9.053 -0.6594  0.5511  1.0097
    8SAPS  H20T 1015   1.867  -0.187   9.127 -0.2960  0.0244 -1.4961
    8SAPS   C33 1016   0.985   0.459  10.289 -0.3218  0.0241 -0.2110
    8SAPS   H3X 1017   1.032   0.545  10.341  0.4399 -0.7492  0.3873
    8SAPS   H3Y 1018   0.891   0.433  10.343 -1.1213  1.8399 -0.6804
    8SAPS   C34 1019   0.939   0.497  10.150  0.1314 -0.5963  0.2007
    8SAPS   H4X 1020   0.904   0.409  10.092  1.5252 -0.1056 -1.4385
    8SAPS   H4Y 1021   1.034   0.532  10.104 -1.3149  0.6770 -1.9116
    8SAPS   C35 1022   0.822   0.598  10.148 -0.5050  0.0043 -0.5421
    8SAPS   H5X 1023   0.856   0.668  10.228  1.8173  0.8916 -2.2098
    8SAPS   H5Y 1024   0.726   0.551  10.178  0.0964  0.4037  2.1361
    8SAPS   C36 1025   0.812   0.667  10.013 -0.0696 -0.2344 -0.3006
    8SAPS   H6X 1026   0.714   0.717   9.999 -0.5006 -1.2556 -1.0033
    8SAPS   H6Y 1027   0.819   0.601   9.923  5.4913  0.6379 -0.6873
    8SAPS   C37 1028   0.928   0.774  10.013 -0.8080  0.0012 -0.3042
    8SAPS   H7X 1029   1.026   0.740  10.054 -0.4275 -0.4670 -1.5819
    8SAPS   H7Y 1030   0.903   0.854  10.085 -1.7780 -0.3842 -0.2105
    8SAPS   C38 1031   0.959   0.823   9.874 -0.2213 -0.2229  1.1550
    8SAPS   H8X 1032   0.864   0.837   9.819  1.0253  0.2930 -0.9433
    8SAPS   H8Y 1033   1.028   0.754   9.822 -0.7361 -0.1561  0.3820
    8SAPS   C39 1034   1.015   0.964   9.887  0.0562  0.5038  0.3617
    8SAPS   H9X 1035   1.112   0.964   9.942 -0.6572 -1.5741  1.6813
    8SAPS   H9Y 1036   0.942   1.021   9.949  0.7271  1.3090  0.4281
    8SAPS  C310 1037   1.032   1.039   9.758  0.1190  0.6463  0.1779
    8SAPS  H10X 1038   1.091   0.969   9.696 -0.0870  0.0112  0.7019
    8SAPS  H10Y 1039   1.094   1.132   9.761  1.8824 -0.5683  2.3079
    8SAPS  C311 1040   0.907   1.066   9.667 -0.1549  0.3912  0.3333
    8SAPS  H11X 1041   0.854   1.149   9.717  0.3076  1.3877 -0.8240
    8SAPS  H11Y 1042   0.834   0.982   9.667 -0.4719  0.6659  0.2438
    8SAPS  C312 1043   0.938   1.112   9.521  0.2968 -0.0550 -0.7755
    8SAPS  H12X 1044   0.966   1.016   9.472  1.2482 -0.6572  0.9009
    8SAPS  H12Y 1045   1.018   1.189   9.521 -0.1638  0.4288 -0.2775
    8SAPS  C313 1046   0.820   1.157   9.446  0.4961 -0.1840  0.3035
    8SAPS  H13X 1047   0.811   1.266   9.467  1.9475 -0.2472  1.2775
    8SAPS  H13Y 1048   0.736   1.094   9.483  0.5861 -1.6435 -1.8995
    8SAPS  C314 1049   0.842   1.156   9.293  0.2599  0.7047  0.8838
    8SAPS  H14X 1050   0.747   1.193   9.248  0.2815 -2.0175 -1.5934
    8SAPS  H14Y 1051   0.839   1.050   9.258 -1.9714  0.9948  0.0667
    8SAPS  C315 1052   0.956   1.241   9.240  0.7347  0.9735 -0.5176
    8SAPS  H15X 1053   1.046   1.199   9.290 -0.5982 -0.2399  0.9105
    8SAPS  H15Y 1054   0.945   1.337   9.295  0.6925 -0.5677  2.2551
    8SAPS  C316 1055   0.966   1.259   9.090  0.4424 -0.5096  0.5990
    8SAPS  H16X 1056   1.056   1.321   9.076 -1.4262  2.9383  3.0108
    8SAPS  H16Y 1057   0.880   1.329   9.079  0.9804  0.4260  2.0853
    8SAPS  C317 1058   0.964   1.133   9.007 -0.1644 -0.0963  1.1198
    8SAPS  H17X 1059   0.944   1.153   8.899  1.2178  0.1784  0.9104
    8SAPS  H17Y 1060   0.880   1.064   9.030  1.6598 -1.9650  2.3679
    8SAPS  C318 1061   1.092   1.052   9.023  0.6664 -0.1113 -0.1769
    8SAPS  H18X 1062   1.086   1.002   9.123 -1.0208 -1.3487 -0.8600
    8SAPS  H18Y 1063   1.183   1.115   9.017  0.6249  0.0642  0.9479
    8SAPS  H18Z 1064   1.091   0.969   8.949 -1.3949 -0.2444 -0.0460
    9SAPS     N 1065   3.480   2.857   6.371  0.0528 -0.3900  0.4486
    9SAPS   HN1 1066   3.388   2.866   6.418 -1.3975  2.1312 -2.7241
    9SAPS   HN2 1067   3.480   2.781   6.300  0.9513 -1.3211  1.4192
    9SAPS   HN3 1068   3.549   2.811   6.434  0.1503  0.1750  0.7612
    9SAPS   C12 1069   3.521   2.988   6.313  0.5254  0.6570 -0.1964
    9SAPS  H12A 1070   3.618   2.965   6.271  0.7523  0.2702  0.5265
    9SAPS   C13 1071   3.425   3.045   6.201  0.7361 -0.5184 -0.1560
    9SAPS  O13A 1072   3.350   2.962   6.140 -0.1402 -0.3154  0.8297
    9SAPS  O13B 1073   3.451   3.158   6.163  0.3939 -0.0218  0.3823
    9SAPS   C11 1074   3.515   3.088   6.430  0.1854  0.4339  0.2163
    9SAPS  H11A 1075   3.413   3.107   6.470  0.1427  2.6810 -0.8725
    9SAPS  H11B 1076   3.543   3.191   6.397 -3.5455  1.1564 -0.9064
    9SAPS     P 1077   3.744   3.032   6.538  0.2001 -0.1332 -0.4730
    9SAPS   O13 1078   3.768   2.898   6.488 -0.5774 -0.2547  0.2566
    9SAPS   O14 1079   3.807   3.148   6.469  0.3743 -0.8497 -0.0634
    9SAPS   O12 1080   3.585   3.045   6.548  0.1596  0.5030  0.2621
    9SAPS   O11 1081   3.778   3.033   6.690 -0.0514  0.1164  0.0270
    9SAPS    C1 1082   3.788   3.161   6.759 -0.3192 -0.0353  0.2299
    9SAPS    HA 1083   3.881   3.215   6.730 -0.3122  0.8465  1.8526
    9SAPS    HB 1084   3.703   3.226   6.727 -0.5525 -0.6852 -0.5095
    9SAPS    C2 1085   3.785   3.142   6.904 -0.4412 -0.1546  0.5755
    9SAPS    HS 1086   3.776   3.240   6.956  1.7597 -0.9395  2.5266
    9SAPS   O21 1087   3.911   3.088   6.950  0.0508 -0.2531 -0.6278
    9SAPS   C21 1088   4.012   3.173   6.980 -0.1713 -0.0923 -0.2132
    9SAPS   O22 1089   4.004   3.294   6.972  0.5683  0.2240  0.8535
    9SAPS   C22 1090   4.133   3.083   7.027  0.1799 -0.3236  0.1164
    9SAPS   H2R 1091   4.098   2.979   7.007 -1.5864  0.3385 -0.3262
    9SAPS   H2S 1092   4.222   3.095   6.962  0.3257 -1.1964  0.1484
    9SAPS    C3 1093   3.668   3.053   6.950 -0.3358  0.3874  0.6793
    9SAPS    HX 1094   3.691   2.955   6.904  0.2642  1.5399 -1.5024
    9SAPS    HY 1095   3.570   3.087   6.911  0.5814  1.0718 -1.1075
    9SAPS   O31 1096   3.654   3.053   7.093 -0.3848  0.4791  0.5924
    9SAPS   C31 1097   3.657   2.929   7.151  0.2486  0.1958 -0.6480
    9SAPS   O32 1098   3.691   2.826   7.098  0.4155  0.2497 -0.6055
    9SAPS   C32 1099   3.630   2.937   7.299  1.0459  0.1818 -0.1599
    9SAPS   H2X 1100   3.657   2.842   7.351  1.3656  0.9701  1.1241
    9SAPS   H2Y 1101   3.520   2.947   7.310  1.2470  2.2050  0.0381
    9SAPS   C23 1102   4.159   3.098   7.174  0.7301  0.3964  0.5044
    9SAPS   H3R 1103   4.192   2.999   7.213  0.9172  0.5999  0.8640
    9SAPS   H3S 1104   4.064   3.125   7.225 -0.2066 -0.3001 -0.8292
    9SAPS   C24 1105   4.257   3.207   7.214 -0.5288  0.6533 -0.1286
    9SAPS   H4R 1106   4.332   3.201   7.132 -1.5600  0.9751 -1.1082
    9SAPS   H4S 1107   4.314   3.181   7.306 -2.0126  1.1679  0.9509
    9SAPS   C25 1108   4.198   3.342   7.228  0.2218 -0.1211 -0.2069
    9SAPS   H5R 1109   4.162   3.383   7.132  0.2454  0.9090  0.2204
    9SAPS   C26 1110   4.191   3.413   7.338  0.2527 -0.2157 -0.8075
    9SAPS   H6R 1111   4.140   3.510   7.340  0.0326 -0.3244 -1.2539
    9SAPS   C27 1112   4.238   3.390   7.481 -0.5595 -0.1747  0.1021
    9SAPS   H7R 1113   4.274   3.486   7.523 -1.6338  0.3347 -0.1080
    9SAPS   H7S 1114   4.328   3.325   7.482 -0.0829  0.4797  0.1757
    9SAPS   C28 1115   4.134   3.332   7.574 -0.4145 -0.1640  1.0756
    9SAPS   H8R 1116   4.061   3.261   7.532  2.9902 -1.6014 -2.6902
    9SAPS   C29 1117   4.138   3.330   7.710 -0.1493 -0.7175 -0.2777
    9SAPS   H9R 1118   4.055   3.281   7.763 -1.5734  0.1426 -1.6710
    9SAPS  C210 1119   4.252   3.375   7.801  0.0894 -0.9267 -0.0340
    9SAPS  H10R 1120   4.346   3.397   7.747 -0.1764  0.6894  0.1212
    9SAPS  H10S 1121   4.276   3.290   7.867  0.6094 -0.5480  0.2631
    9SAPS  C211 1122   4.205   3.493   7.883  0.3524  0.3325  0.1352
    9SAPS  H11R 1123   4.192   3.587   7.828 -0.4207  0.5239  0.6399
    9SAPS  C212 1124   4.178   3.496   8.012  0.6819  0.3276 -0.5025
    9SAPS  H12R 1125   4.150   3.594   8.053  0.7953 -0.2613  1.0319
    9SAPS  C213 1126   4.180   3.388   8.117  0.1105 -0.1551 -0.1325
    9SAPS  H13R 1127   4.169   3.288   8.071  0.1031 -2.0240  3.6932
    9SAPS  H13S 1128   4.095   3.403   8.188 -2.1165  0.7979 -2.8925
    9SAPS  C214 1129   4.312   3.380   8.182  0.0083 -0.7246  0.0800
    9SAPS  H14R 1130   4.398   3.370   8.114 -0.0585 -0.6424 -0.0177
    9SAPS  C215 1131   4.350   3.395   8.312 -0.3625 -0.3568  0.3261
    9SAPS  H15R 1132   4.455   3.379   8.337 -0.3299 -1.5661 -0.5379
    9SAPS  C216 1133   4.255   3.433   8.424  0.1849  0.1449  0.8015
    9SAPS  H16R 1134   4.151   3.407   8.393 -0.2624  2.0453  0.6256
    9SAPS  H16S 1135   4.259   3.540   8.454  2.1535  1.0210 -2.4325
    9SAPS  C217 1136   4.286   3.360   8.564  0.8804 -0.1534 -0.0076
    9SAPS  H17R 1137   4.286   3.249   8.558  0.7436 -0.0694 -1.9714
    9SAPS  H17S 1138   4.199   3.387   8.628  0.5671  0.3790 -0.6573
    9SAPS  C218 1139   4.413   3.408   8.632 -0.5172 -0.4755 -0.6772
    9SAPS  H18R 1140   4.404   3.518   8.635 -2.0959 -0.6255  1.4981
    9SAPS  H18S 1141   4.508   3.400   8.575  1.0442 -0.2042  1.8231
    9SAPS  C219 1142   4.436   3.383   8.775 -0.0895 -0.6640  0.4529
    9SAPS  H19R 1143   4.438   3.273   8.786 -0.8952 -0.6190  1.0344
    9SAPS  H19S 1144   4.347   3.429   8.822  0.6257  1.5898 -0.3112
    9SAPS  C220 1145   4.561   3.454   8.836  1.3084 -0.2015  0.4563
    9SAPS  H20R 1146   4.660   3.424   8.796  1.7872  1.7747  0.1483
    9SAPS  H20S 1147   4.570   3.444   8.947 -0.6356 -1.9803  0.4909
    9SAPS  H20T 1148   4.550   3.562   8.813 -1.1784 -0.8067 -1.4151
    9SAPS   C33 1149   3.704   3.047   7.370  0.2941 -0.9828  0.4256
    9SAPS   H3X 1150   3.666   3.148   7.343  0.4118 -1.2548 -0.8123
    9SAPS   H3Y 1151   3.810   3.048   7.336 -0.5783  0.2448 -2.4316
    9SAPS   C34 1152   3.718   3.027   7.519 -0.2873 -0.1356 -0.4481
    9SAPS   H4X 1153   3.777   2.936   7.543 -0.0638  0.0370 -0.3383
    9SAPS   H4Y 1154   3.622   3.016   7.575 -0.4624  1.2474 -0.4483
    9SAPS   C35 1155   3.792   3.150   7.577  0.4531 -0.0846  0.5415
    9SAPS   H5X 1156   3.874   3.182   7.510 -1.5330 -1.4468 -2.6173
    9SAPS   H5Y 1157   3.832   3.113   7.674 -0.4504 -0.4657  0.7704
    9SAPS   C36 1158   3.702   3.266   7.616 -0.1733  0.3589  0.5600
    9SAPS   H6X 1159   3.620   3.216   7.672 -0.5871 -1.3102 -1.4902
    9SAPS   H6Y 1160   3.655   3.318   7.529  0.1901 -0.6129 -0.2205
    9SAPS   C37 1161   3.769   3.366   7.711  0.3474 -0.2433 -0.0645
    9SAPS   H7X 1162   3.865   3.400   7.667  1.2120 -1.3651  0.9395
    9SAPS   H7Y 1163   3.794   3.324   7.811  0.5983 -0.3727 -0.1809
    9SAPS   C38 1164   3.686   3.495   7.736 -0.6491 -0.0247 -0.0007
    9SAPS   H8X 1165   3.594   3.469   7.793 -1.6634  0.3200 -1.4409
    9SAPS   H8Y 1166   3.655   3.523   7.633 -1.0851 -0.1970  0.0821
    9SAPS   C39 1167   3.756   3.612   7.811 -0.3855  0.6143  0.2053
    9SAPS   H9X 1168   3.698   3.703   7.787  0.8719  1.7926  1.5315
    9SAPS   H9Y 1169   3.859   3.627   7.773 -0.4725 -1.5328 -0.9685
    9SAPS  C310 1170   3.763   3.607   7.969  0.0947  0.2174  0.1891
    9SAPS  H10X 1171   3.822   3.518   8.001 -2.1741 -1.1228  0.8098
    9SAPS  H10Y 1172   3.660   3.581   8.004 -0.1280 -0.5842 -1.0292
    9SAPS  C311 1173   3.823   3.731   8.028 -0.4605  0.5618 -0.5687
    9SAPS  H11X 1174   3.747   3.811   8.032  0.2577  1.2174  0.3779
    9SAPS  H11Y 1175   3.909   3.758   7.962 -0.4751 -0.0373 -0.8348
    9SAPS  C312 1176   3.872   3.726   8.177  0.0865 -0.5685  0.5850
    9SAPS  H12X 1177   3.866   3.827   8.222  2.7014 -0.7197  1.3335
    9SAPS  H12Y 1178   3.977   3.690   8.174 -0.0153 -0.7673 -0.5500
    9SAPS  C313 1179   3.791   3.632   8.274  0.0824 -0.2792 -0.2728
    9SAPS  H13X 1180   3.819   3.531   8.238  1.4892 -0.2254  0.6468
    9SAPS  H13Y 1181   3.682   3.645   8.255  0.1994  2.2646  0.5150
    9SAPS  C314 1182   3.833   3.639   8.419 -0.0909 -0.3116  0.6295
    9SAPS  H14X 1183   3.759   3.690   8.485  2.3528  1.1897  2.3050
    9SAPS  H14Y 1184   3.932   3.689   8.432 -0.1209  0.4915 -2.0268
    9SAPS  C315 1185   3.842   3.506   8.500 -0.4431  0.1918  0.4007
    9SAPS  H15X 1186   3.907   3.434   8.446 -3.8803 -1.2949 -1.8889
    9SAPS  H15Y 1187   3.746   3.451   8.495 -0.2248 -0.1782  0.2803
    9SAPS  C316 1188   3.906   3.521   8.635 -0.5133 -0.1008  0.7861
    9SAPS  H16X 1189   3.845   3.577   8.710 -0.7914  0.4718  0.1436
    9SAPS  H16Y 1190   4.002   3.576   8.623 -0.3946 -0.4275  0.2628
    9SAPS  C317 1191   3.940   3.391   8.708 -0.2563 -0.4342  0.2300
    9SAPS  H17X 1192   3.998   3.411   8.800 -0.1770  1.1960 -0.1624
    9SAPS  H17Y 1193   4.006   3.333   8.640 -2.1959 -0.4173 -1.7522
    9SAPS  C318 1194   3.811   3.318   8.741  0.2097 -0.3380 -0.5820
    9SAPS  H18X 1195   3.727   3.332   8.670 -0.1461 -0.2946 -0.1539
    9SAPS  H18Y 1196   3.770   3.352   8.838 -2.2090 -2.2761 -0.8921
    9SAPS  H18Z 1197   3.833   3.210   8.758  0.5036  0.0805  1.8794
   10SAPS     N 1198   3.105   2.365   6.254  0.0725 -0.3286  0.3137
   10SAPS   HN1 1199   3.075   2.348   6.352  0.6359 -0.8406  0.3996
   10SAPS   HN2 1200   3.142   2.462   6.246 -0.3710 -0.2417 -0.8257
   10SAPS   HN3 1201   3.020   2.371   6.194  0.7523  2.4786 -0.4741
   10SAPS   C12 1202   3.202   2.276   6.197 -0.9275  0.3327 -0.2881
   10SAPS  H12A 1203   3.205   2.180   6.248  0.5839 -0.5826 -2.0362
   10SAPS   C13 1204   3.177   2.244   6.051  0.0494 -0.7863 -0.4371
   10SAPS  O13A 1205   3.086   2.300   5.981  0.1337 -0.2186 -0.2128
   10SAPS  O13B 1206   3.257   2.162   6.003  0.6673  0.5884  0.0175
   10SAPS   C11 1207   3.351   2.329   6.218  0.2942 -0.3035 -0.2845
   10SAPS  H11A 1208   3.382   2.397   6.136 -1.5405 -0.2166 -0.9432
   10SAPS  H11B 1209   3.417   2.241   6.206  2.2582  0.7563  2.2132
   10SAPS     P 1210   3.400   2.301   6.477 -0.2976 -0.1275 -0.3463
   10SAPS   O13 1211   3.418   2.396   6.588  0.7344 -0.0664 -0.7412
   10SAPS   O14 1212   3.295   2.201   6.494 -0.0688 -0.2909 -0.7723
   10SAPS   O12 1213   3.370   2.387   6.346 -0.0417  0.3899 -0.2601
   10SAPS   O11 1214   3.541   2.232   6.446 -0.0523  0.0956  0.3033
   10SAPS    C1 1215   3.650   2.309   6.414  0.1908 -0.4347 -0.0418
   10SAPS    HA 1216   3.688   2.281   6.314  1.3020  0.8272  0.0077
   10SAPS    HB 1217   3.628   2.418   6.404  1.8747 -0.1820 -1.1829
   10SAPS    C2 1218   3.770   2.302   6.515  0.0415 -0.1326  0.3304
   10SAPS    HS 1219   3.805   2.198   6.533  2.0966  0.7658  1.7621
   10SAPS   O21 1220   3.733   2.365   6.635  0.4239 -0.0960 -0.7219
   10SAPS   C21 1221   3.695   2.292   6.735 -0.1780  0.5495 -0.0091
   10SAPS   O22 1222   3.690   2.168   6.736  0.4270 -0.0484  0.0815
   10SAPS   C22 1223   3.660   2.384   6.852  0.1065 -0.2610  0.3170
   10SAPS   H2R 1224   3.758   2.424   6.888 -1.0357  1.3961  1.6327
   10SAPS   H2S 1225   3.588   2.462   6.822 -0.8336 -0.6081  1.6450
   10SAPS    C3 1226   3.896   2.373   6.461 -0.1827  0.0154 -0.0913
   10SAPS    HX 1227   3.868   2.475   6.428  0.0199  0.0508 -0.1540
   10SAPS    HY 1228   3.925   2.326   6.365  0.5347  0.9966 -0.3565
   10SAPS   O31 1229   4.007   2.352   6.549  0.2628  0.1768  0.1387
   10SAPS   C31 1230   4.077   2.455   6.564  0.7296 -0.5507 -0.3304
   10SAPS   O32 1231   4.059   2.568   6.517  0.0035  0.4370 -0.2265
   10SAPS   C32 1232   4.200   2.430   6.658 -0.1803 -0.7508 -0.1768
   10SAPS   H2X 1233   4.285   2.489   6.618  0.1262  0.7408  2.5651
   10SAPS   H2Y 1234   4.237   2.326   6.669  2.0619  0.1772  1.2870
   10SAPS   C23 1235   3.608   2.312   6.973 -1.0088  0.3680 -0.3667
   10SAPS   H3R 1236   3.691   2.256   7.022 -3.4536 -2.0652  1.0668
   10SAPS   H3S 1237   3.527   2.245   6.939 -0.3073  1.8489 -5.3570
   10SAPS   C24 1238   3.540   2.403   7.080 -0.5246  0.3626  0.1324
   10SAPS   H4R 1239   3.450   2.345   7.108 -1.7283  0.8249 -2.6006
   10SAPS   H4S 1240   3.498   2.495   7.034 -1.0542  0.4966  0.8762
   10SAPS   C25 1241   3.635   2.440   7.195 -0.6698 -0.6226 -0.5586
   10SAPS   H5R 1242   3.711   2.517   7.173  0.0199 -1.2757 -0.4659
   10SAPS   C26 1243   3.639   2.372   7.311 -0.6503  0.3063 -0.5012
   10SAPS   H6R 1244   3.719   2.394   7.383 -1.0078 -0.8500  0.2569
   10SAPS   C27 1245   3.558   2.253   7.352  0.1966 -0.2324 -0.7577
   10SAPS   H7R 1246   3.635   2.177   7.377  0.9136  1.1226  1.3983
   10SAPS   H7S 1247   3.520   2.206   7.260  0.0829  0.4940 -1.0854
   10SAPS   C28 1248   3.441   2.270   7.446  0.1466  0.1483  0.7677
   10SAPS   H8R 1249   3.358   2.330   7.405  0.1790  1.2592  2.2904
   10SAPS   C29 1250   3.434   2.211   7.564 -0.8420 -0.1488 -0.1985
   10SAPS   H9R 1251   3.349   2.227   7.632 -0.7683 -0.6419  0.0127
   10SAPS  C210 1252   3.547   2.135   7.635 -0.5783 -0.1499  0.0705
   10SAPS  H10R 1253   3.621   2.213   7.661 -0.4370  0.0836 -0.9943
   10SAPS  H10S 1254   3.601   2.062   7.570  0.6186  1.3576 -0.6577
   10SAPS  C211 1255   3.505   2.057   7.752  0.2605 -0.4837  0.3236
   10SAPS  H11R 1256   3.484   1.951   7.733  0.6749 -0.3328 -1.0745
   10SAPS  C212 1257   3.495   2.099   7.876  0.2839 -0.2290 -0.1301
   10SAPS  H12R 1258   3.462   2.028   7.953  0.4538 -0.9840 -0.7513
   10SAPS  C213 1259   3.521   2.230   7.938 -0.1656  0.2500 -0.7279
   10SAPS  H13R 1260   3.541   2.316   7.870 -4.1032  0.3275 -1.9342
   10SAPS  H13S 1261   3.618   2.233   7.992 -1.1929 -0.5981  1.2158
   10SAPS  C214 1262   3.411   2.285   8.035 -0.9758  0.6936 -0.5123
   10SAPS  H14R 1263   3.329   2.352   8.006 -1.5037  1.1278  1.8248
   10SAPS  C215 1264   3.409   2.242   8.161 -0.1590 -0.2406  0.2479
   10SAPS  H15R 1265   3.336   2.279   8.235 -0.0238  2.4806 -0.9311
   10SAPS  C216 1266   3.522   2.160   8.227 -0.5887 -0.4312  0.1854
   10SAPS  H16R 1267   3.569   2.097   8.148 -0.7431 -2.6837  1.8391
   10SAPS  H16S 1268   3.474   2.086   8.295  0.0096 -3.0304 -2.0878
   10SAPS  C217 1269   3.626   2.252   8.305 -1.0132 -1.1087 -0.2535
   10SAPS  H17R 1270   3.678   2.320   8.235 -3.5125 -0.0191 -1.1126
   10SAPS  H17S 1271   3.693   2.176   8.352 -0.3553 -1.4390 -1.6797
   10SAPS  C218 1272   3.561   2.332   8.417 -0.6665  0.0684 -0.7670
   10SAPS  H18R 1273   3.505   2.265   8.485 -0.7743  0.7861 -0.1401
   10SAPS  H18S 1274   3.489   2.405   8.373 -0.6149  1.3059  1.1322
   10SAPS  C219 1275   3.650   2.430   8.503  0.0698  0.1611  0.0368
   10SAPS  H19R 1276   3.691   2.513   8.441 -1.5121  2.8269  2.4563
   10SAPS  H19S 1277   3.737   2.367   8.535  0.4723  0.9860  0.5910
   10SAPS  C220 1278   3.569   2.477   8.622  0.5174 -0.2272  0.6928
   10SAPS  H20R 1279   3.559   2.406   8.706 -1.0497  1.0694  1.6366
   10SAPS  H20S 1280   3.470   2.511   8.584  0.6970 -0.0403  0.3872
   10SAPS  H20T 1281   3.624   2.563   8.666 -0.2188 -0.1847  1.5433
   10SAPS   C33 1282   4.165   2.487   6.805 -0.2179 -0.5612 -0.2302
   10SAPS   H3X 1283   4.178   2.597   6.801 -1.0088 -0.3105  2.7704
   10SAPS   H3Y 1284   4.242   2.444   6.873 -0.6943 -1.0292  0.0147
   10SAPS   C34 1285   4.029   2.462   6.858  0.4069 -0.1787  0.0532
   10SAPS   H4X 1286   3.983   2.364   6.829 -0.5320  0.9543 -2.4181
   10SAPS   H4Y 1287   3.948   2.529   6.822 -1.2408 -1.8114  0.5907
   10SAPS   C35 1288   4.021   2.463   7.012 -0.4722 -0.6068 -0.1090
   10SAPS   H5X 1289   4.069   2.371   7.052  1.8022 -0.2779 -1.9517
   10SAPS   H5Y 1290   3.914   2.469   7.041 -0.3160  0.9366  0.1608
   10SAPS   C36 1291   4.082   2.593   7.072  0.0578  0.6147 -0.5715
   10SAPS   H6X 1292   4.058   2.681   7.008 -1.8785  1.4053  1.1982
   10SAPS   H6Y 1293   4.192   2.586   7.083  0.0258  0.7396 -0.1843
   10SAPS   C37 1294   4.020   2.619   7.209  0.6478 -0.5299  0.6460
   10SAPS   H7X 1295   4.048   2.533   7.274  1.0669  0.3803  1.6802
   10SAPS   H7Y 1296   3.909   2.627   7.205  0.6000 -1.3811  0.2661
   10SAPS   C38 1297   4.064   2.747   7.282  0.2684 -0.4557  0.3505
   10SAPS   H8X 1298   4.019   2.835   7.230  0.4387 -0.1689  0.6871
   10SAPS   H8Y 1299   4.172   2.760   7.262 -0.0584  1.1462 -0.4811
   10SAPS   C39 1300   4.024   2.753   7.430 -0.1818 -0.3987 -0.3945
   10SAPS   H9X 1301   4.060   2.668   7.492  1.1997 -0.0594 -0.7068
   10SAPS   H9Y 1302   3.913   2.759   7.436  0.1022  4.3978  2.3948
   10SAPS  C310 1303   4.075   2.874   7.505 -0.3369  0.0759 -0.1739
   10SAPS  H10X 1304   4.017   2.963   7.474 -0.4408  0.4413  1.0469
   10SAPS  H10Y 1305   4.183   2.896   7.495 -0.6466  1.0394 -1.4451
   10SAPS  C311 1306   4.054   2.850   7.654 -0.1752 -0.1279 -0.1645
   10SAPS  H11X 1307   4.109   2.759   7.687  0.6861 -0.6437 -2.8696
   10SAPS  H11Y 1308   3.946   2.834   7.677  0.3251  1.1099  3.3845
   10SAPS  C312 1309   4.113   2.953   7.751 -0.4511  0.4512  0.1081
   10SAPS  H12X 1310   4.069   3.049   7.715 -0.2861  1.5522  2.7513
   10SAPS  H12Y 1311   4.221   2.960   7.729 -0.4783 -1.5591 -0.7448
   10SAPS  C313 1312   4.081   2.933   7.900  0.5661  0.0924  0.0719
   10SAPS  H13X 1313   4.137   3.006   7.962  0.1882  1.0001 -0.6598
   10SAPS  H13Y 1314   4.106   2.833   7.942  3.2776  0.5854 -0.2624
   10SAPS  C314 1315   3.931   2.943   7.932 -0.5909  0.1224 -0.1440
   10SAPS  H14X 1316   3.874   2.862   7.882  1.6537 -0.8892 -1.1310
   10SAPS  H14Y 1317   3.907   3.041   7.885  1.3959  0.1398 -1.1917
   10SAPS  C315 1318   3.898   2.964   8.084 -0.3650  0.4655 -0.5405
   10SAPS  H15X 1319   3.949   2.883   8.141 -0.8054  0.9809  0.6026
   10SAPS  H15Y 1320   3.789   2.946   8.095 -0.2125 -0.2244 -0.0954
   10SAPS  C316 1321   3.943   3.103   8.133  0.3975 -0.3351 -0.1325
   10SAPS  H16X 1322   3.905   3.176   8.059 -2.4553 -1.4365  0.2125
   10SAPS  H16Y 1323   4.054   3.106   8.126  0.5411 -0.5759  1.9544
   10SAPS  C317 1324   3.902   3.155   8.272  0.1815  0.2630 -0.4087
   10SAPS  H17X 1325   3.793   3.132   8.276  1.1081 -4.6637 -0.6182
   10SAPS  H17Y 1326   3.907   3.266   8.281 -1.1635  0.3450 -0.5649
   10SAPS  C318 1327   3.981   3.086   8.386  0.4462 -0.1532  0.9885
   10SAPS  H18X 1328   3.950   2.979   8.396 -0.7516  0.1650  0.8113
   10SAPS  H18Y 1329   3.978   3.147   8.479 -0.3791  1.8205 -0.3100
   10SAPS  H18Z 1330   4.085   3.093   8.349  0.3516  0.6402  0.8677
   11SAPS     N 1331   5.772   5.332   5.703 -0.3960  0.4167  0.3273
   11SAPS   HN1 1332   5.824   5.273   5.772 -2.2612 -2.7809 -0.8877
   11SAPS   HN2 1333   5.733   5.419   5.744  3.1669  3.0319 -1.4781
   11SAPS   HN3 1334   5.691   5.275   5.672  1.0523 -1.1396 -0.7075
   11SAPS   C12 1335   5.868   5.377   5.605  0.2666  0.7309 -0.0252
   11SAPS  H12A 1336   5.897   5.289   5.549 -0.4085 -0.8071  1.9902
   11SAPS   C13 1337   5.819   5.498   5.510 -0.6606 -0.0284 -0.4046
   11SAPS  O13A 1338   5.702   5.538   5.523  0.0026 -0.1271 -0.4623
   11SAPS  O13B 1339   5.901   5.551   5.437  0.0804  0.4901 -0.4303
   11SAPS   C11 1340   5.988   5.441   5.686 -0.2042  0.8087  0.1573
   11SAPS  H11A 1341   5.952   5.536   5.731 -1.0192 -0.6213  2.5869
   11SAPS  H11B 1342   6.069   5.480   5.620 -0.7915  0.6086 -0.6946
   11SAPS     P 1343   6.145   5.411   5.892 -0.1115  0.0112 -0.2449
   11SAPS   O13 1344   6.214   5.293   5.939 -0.2279  0.4909 -0.1620
   11SAPS   O14 1345   6.220   5.527   5.840  0.1011  0.3635  0.4441
   11SAPS   O12 1346   6.047   5.358   5.783  0.4772  0.0664 -0.0214
   11SAPS   O11 1347   6.049   5.476   6.008  0.6314  0.1302  0.0594
   11SAPS    C1 1348   5.953   5.395   6.079  0.1186  0.7751  0.5977
   11SAPS    HA 1349   5.852   5.419   6.040 -0.1855 -0.7094  0.4469
   11SAPS    HB 1350   5.965   5.285   6.068 -0.4015  0.5362  2.2608
   11SAPS    C2 1351   5.952   5.419   6.234 -0.1960  0.8595 -1.1212
   11SAPS    HS 1352   5.883   5.348   6.283  0.7431 -0.0128 -1.0337
   11SAPS   O21 1353   5.926   5.554   6.263  0.5686  0.4570 -0.0953
   11SAPS   C21 1354   5.836   5.582   6.353  0.1150 -0.0434  0.0098
   11SAPS   O22 1355   5.784   5.498   6.425  0.0491  0.1684  0.1098
   11SAPS   C22 1356   5.833   5.739   6.366 -0.3999  0.3859 -0.8739
   11SAPS   H2R 1357   5.934   5.778   6.341 -0.2520 -1.0025 -2.4726
   11SAPS   H2S 1358   5.766   5.780   6.287  0.7338  2.3766 -0.8516
   11SAPS    C3 1359   6.093   5.386   6.294  0.1770  0.3057  0.1100
   11SAPS    HX 1360   6.166   5.444   6.233 -1.3873  1.0695 -1.0757
   11SAPS    HY 1361   6.100   5.278   6.273 -2.1394 -0.1271  1.3888
   11SAPS   O31 1362   6.109   5.431   6.431  0.7364  0.0845  0.5355
   11SAPS   C31 1363   6.175   5.359   6.514 -1.0921  0.3297  0.2329
   11SAPS   O32 1364   6.218   5.242   6.500 -0.2082 -0.5000  0.1841
   11SAPS   C32 1365   6.212   5.432   6.638  0.0181 -0.3144 -0.1656
   11SAPS   H2X 1366   6.300   5.497   6.617  0.0796 -0.1008  0.7270
   11SAPS   H2Y 1367   6.237   5.351   6.709 -0.6544 -0.6001 -0.2516
   11SAPS   C23 1368   5.810   5.779   6.514  0.6272 -0.9472 -0.3903
   11SAPS   H3R 1369   5.851   5.882   6.522  0.9182 -0.9413 -1.8598
   11SAPS   H3S 1370   5.874   5.722   6.584  2.0451 -0.4271 -1.2400
   11SAPS   C24 1371   5.660   5.768   6.554 -0.6241 -0.7351  0.0328
   11SAPS   H4R 1372   5.626   5.669   6.519 -0.3653 -0.2619 -1.6096
   11SAPS   H4S 1373   5.615   5.844   6.487 -1.6956 -1.6998 -0.3454
   11SAPS   C25 1374   5.634   5.797   6.697  0.1013  0.5654 -0.1992
   11SAPS   H5R 1375   5.672   5.898   6.718 -0.3217  0.9325 -1.1738
   11SAPS   C26 1376   5.590   5.706   6.789 -0.1403 -0.0449  0.8538
   11SAPS   H6R 1377   5.558   5.742   6.888  1.6172  2.6174  0.5258
   11SAPS   C27 1378   5.551   5.559   6.769 -0.1936 -1.0179  0.0688
   11SAPS   H7R 1379   5.537   5.541   6.660 -0.9246 -1.3316  0.2082
   11SAPS   H7S 1380   5.452   5.540   6.816  0.5757  0.3776  2.3133
   11SAPS   C28 1381   5.640   5.449   6.826 -0.0608  0.2992  0.3856
   11SAPS   H8R 1382   5.723   5.408   6.768 -1.1265 -1.8782  0.3429
   11SAPS   C29 1383   5.628   5.390   6.948  0.2822  0.2380 -0.1884
   11SAPS   H9R 1384   5.708   5.319   6.975  1.7751  0.7059 -3.2311
   11SAPS  C210 1385   5.540   5.440   7.058 -0.3049  0.2743 -0.5552
   11SAPS  H10R 1386   5.493   5.540   7.043  0.4367  0.6831 -0.1604
   11SAPS  H10S 1387   5.609   5.443   7.145 -0.2333  2.2667 -0.6534
   11SAPS  C211 1388   5.425   5.346   7.080 -0.8509  0.3326  0.0016
   11SAPS  H11R 1389   5.377   5.303   6.991 -2.7951  1.7139  0.3625
   11SAPS  C212 1390   5.386   5.298   7.198  0.4515  0.2083 -0.6834
   11SAPS  H12R 1391   5.293   5.240   7.203  0.2838  0.5445  0.2038
   11SAPS  C213 1392   5.443   5.334   7.338 -0.7460  0.2530 -0.2080
   11SAPS  H13R 1393   5.549   5.365   7.325  0.5538 -2.7276  2.4956
   11SAPS  H13S 1394   5.452   5.251   7.411 -4.3133  1.1018  1.3108
   11SAPS  C214 1395   5.361   5.452   7.400 -0.1112 -0.0343 -0.3615
   11SAPS  H14R 1396   5.321   5.529   7.333 -1.1920 -0.4964 -0.2589
   11SAPS  C215 1397   5.340   5.478   7.532  0.0673 -0.0242 -0.6641
   11SAPS  H15R 1398   5.309   5.575   7.572  1.0087  0.8182 -1.9221
   11SAPS  C216 1399   5.394   5.383   7.638  0.0783  0.9718  0.3428
   11SAPS  H16R 1400   5.487   5.331   7.609 -0.7402 -0.8227  0.8584
   11SAPS  H16S 1401   5.315   5.307   7.655 -0.0762  1.4165  1.7142
   11SAPS  C217 1402   5.419   5.456   7.770  0.5590 -0.1995 -0.3872
   11SAPS  H17R 1403   5.328   5.513   7.795  0.9933  0.5131 -0.4293
   11SAPS  H17S 1404   5.504   5.524   7.750  0.4415 -0.3352 -1.3917
   11SAPS  C218 1405   5.464   5.364   7.880 -0.0106 -0.2056  0.3948
   11SAPS  H18R 1406   5.572   5.350   7.856  0.1425  0.6358  0.5563
   11SAPS  H18S 1407   5.410   5.268   7.869  0.4718 -0.2548 -1.7351
   11SAPS  C219 1408   5.436   5.431   8.014 -0.4052  0.5767  0.3874
   11SAPS  H19R 1409   5.331   5.462   8.031 -0.7448 -0.4566  0.2285
   11SAPS  H19S 1410   5.498   5.521   8.030  0.9494 -0.4950  1.2839
   11SAPS  C220 1411   5.486   5.348   8.132  0.2139  0.1804  0.4976
   11SAPS  H20R 1412   5.457   5.401   8.225 -2.6778  0.3428 -0.4425
   11SAPS  H20S 1413   5.595   5.330   8.123  0.4073  1.4930  0.0803
   11SAPS  H20T 1414   5.433   5.250   8.133  0.2622  0.1551  0.7537
   11SAPS   C33 1415   6.094   5.516   6.698 -0.5919  1.3100 -0.1799
   11SAPS   H3X 1416   6.004   5.453   6.684 -0.0674  0.6611 -0.7108
   11SAPS   H3Y 1417   6.095   5.611   6.640 -0.7217  2.6710  1.9958
   11SAPS   C34 1418   6.113   5.553   6.846 -0.2658 -0.4386 -0.3947
   11SAPS   H4X 1419   6.198   5.622   6.866  2.0019 -3.2686  0.0900
   11SAPS   H4Y 1420   6.156   5.470   6.904  1.5794  1.1223  0.5182
   11SAPS   C35 1421   5.976   5.601   6.893  0.0689  0.0804 -0.6311
   11SAPS   H5X 1422   5.894   5.530   6.871 -2.4367  2.8419 -0.5047
   11SAPS   H5Y 1423   5.959   5.699   6.845 -1.3163 -0.4458 -1.2238
   11SAPS   C36 1424   5.958   5.635   7.045 -0.4149 -0.0196 -0.1401
   11SAPS   H6X 1425   5.923   5.541   7.094 -0.0997  0.2196  0.5403
   11SAPS   H6Y 1426   5.867   5.698   7.055 -0.2069  0.4304 -1.0188
   11SAPS   C37 1427   6.077   5.702   7.113 -0.2389  0.1658  0.5488
   11SAPS   H7X 1428   6.089   5.797   7.057 -2.2076 -0.0563 -0.2872
   11SAPS   H7Y 1429   6.158   5.630   7.089 -0.3502  0.6191 -1.2177
   11SAPS   C38 1430   6.051   5.733   7.255 -0.1937 -0.2792  0.1323
   11SAPS   H8X 1431   6.025   5.639   7.308 -1.7135 -0.5634 -1.0949
   11SAPS   H8Y 1432   5.972   5.809   7.268 -1.3384 -1.0684 -1.9361
   11SAPS   C39 1433   6.180   5.792   7.316 -0.6678 -0.7914  0.0572
   11SAPS   H9X 1434   6.210   5.878   7.252 -2.2797 -0.3459 -0.1219
   11SAPS   H9Y 1435   6.269   5.727   7.306  0.2155  0.2021  1.2652
   11SAPS  C310 1436   6.182   5.828   7.464  0.0613  0.2238  0.2536
   11SAPS  H10X 1437   6.083   5.867   7.497  0.8749  0.9662  1.8940
   11SAPS  H10Y 1438   6.256   5.904   7.496 -0.8236  1.0902  0.2574
   11SAPS  C311 1439   6.195   5.700   7.549 -0.0338 -0.3455  1.0562
   11SAPS  H11X 1440   6.292   5.653   7.525 -1.2967 -1.6783 -1.6656
   11SAPS  H11Y 1441   6.112   5.633   7.520  0.1355  0.3812 -1.1688
   11SAPS  C312 1442   6.196   5.724   7.700  0.5615  0.3345  0.0223
   11SAPS  H12X 1443   6.208   5.624   7.748 -0.2356 -1.8298 -4.0184
   11SAPS  H12Y 1444   6.094   5.762   7.723  1.0795  2.2134 -0.7032
   11SAPS  C313 1445   6.294   5.824   7.769 -0.0063  0.0155  0.0512
   11SAPS  H13X 1446   6.277   5.919   7.715  0.0493 -0.4573 -0.8131
   11SAPS  H13Y 1447   6.399   5.799   7.746  0.3399  0.9385  0.6236
   11SAPS  C314 1448   6.266   5.844   7.923  0.3228  0.1713 -0.1728
   11SAPS  H14X 1449   6.260   5.746   7.976 -1.0698 -0.2144 -1.0049
   11SAPS  H14Y 1450   6.165   5.891   7.923  0.6438  0.8658  0.7071
   11SAPS  C315 1451   6.360   5.936   7.999 -0.2318  0.8876 -0.2731
   11SAPS  H15X 1452   6.368   6.035   7.949  1.8671  1.1176  0.4740
   11SAPS  H15Y 1453   6.466   5.905   7.987 -1.1295 -2.0871 -0.7917
   11SAPS  C316 1454   6.331   5.957   8.150 -0.6457  0.4404 -0.0761
   11SAPS  H16X 1455   6.303   5.860   8.198 -4.5885  1.5068 -0.0464
   11SAPS  H16Y 1456   6.237   6.015   8.162 -0.4424  1.0220 -1.2025
   11SAPS  C317 1457   6.456   6.009   8.235  0.2349  0.0217 -0.4087
   11SAPS  H17X 1458   6.430   6.047   8.336  0.0835 -2.5118  0.5497
   11SAPS  H17Y 1459   6.495   6.095   8.177  2.5206 -1.3877 -1.0100
   11SAPS  C318 1460   6.571   5.907   8.245  0.0937 -0.0976 -0.1419
   11SAPS  H18X 1461   6.525   5.810   8.275  1.4470 -0.6124  0.3215
   11SAPS  H18Y 1462   6.639   5.944   8.324  0.9558 -1.5595 -0.1906
   11SAPS  H18Z 1463   6.621   5.881   8.150  1.8584 -4.2375  1.8052
   12SAPS     N 1464   5.364   6.343   5.979  0.1646 -0.1601  0.5916
   12SAPS   HN1 1465   5.320   6.271   5.919 -2.6097  1.3059  0.7416
   12SAPS   HN2 1466   5.464   6.352   5.954  0.2585  1.4330  1.4340
   12SAPS   HN3 1467   5.360   6.317   6.080  1.9764  0.1387  0.7443
   12SAPS   C12 1468   5.292   6.479   5.963  0.2448  0.1228  0.0023
   12SAPS  H12A 1469   5.317   6.516   5.865 -0.5789  0.6329 -0.0250
   12SAPS   C13 1470   5.138   6.477   5.979 -0.0751  0.3028 -0.3875
   12SAPS  O13A 1471   5.078   6.372   6.020  0.0641  0.5533 -0.2326
   12SAPS  O13B 1472   5.072   6.586   5.961  0.3653  0.0073 -0.0744
   12SAPS   C11 1473   5.346   6.568   6.080  0.1299 -0.4995 -0.4652
   12SAPS  H11A 1474   5.276   6.554   6.165  0.4616  2.0291  0.2550
   12SAPS  H11B 1475   5.337   6.672   6.044  0.0949  0.1549  1.3802
   12SAPS     P 1476   5.597   6.624   6.154 -0.2546 -0.2377 -0.1553
   12SAPS   O13 1477   5.718   6.553   6.195  0.2569  0.2679  0.2766
   12SAPS   O14 1478   5.617   6.714   6.036 -0.3630 -0.0554  0.2930
   12SAPS   O12 1479   5.479   6.528   6.118 -0.1251  0.1221 -0.2789
   12SAPS   O11 1480   5.535   6.708   6.274  0.1513 -0.4444 -0.3557
   12SAPS    C1 1481   5.475   6.639   6.384  0.4614 -0.5550  1.0441
   12SAPS    HA 1482   5.369   6.668   6.374  1.0960  1.8265  0.9561
   12SAPS    HB 1483   5.496   6.530   6.378 -1.5415 -0.8585 -1.1277
   12SAPS    C2 1484   5.535   6.688   6.515  0.6032 -1.1201 -0.6190
   12SAPS    HS 1485   5.569   6.794   6.511  3.6609 -1.9645  1.2418
   12SAPS   O21 1486   5.649   6.593   6.534 -0.0507  0.2841  0.0281
   12SAPS   C21 1487   5.766   6.655   6.507  0.2617  0.3020 -0.1677
   12SAPS   O22 1488   5.783   6.774   6.493  0.2503 -0.0347  0.0444
   12SAPS   C22 1489   5.872   6.545   6.498  0.0346  0.1254  0.3629
   12SAPS   H2R 1490   5.853   6.470   6.578  1.7743 -0.5929  0.1172
   12SAPS   H2S 1491   5.871   6.497   6.398  1.0200 -2.1337  1.4223
   12SAPS    C3 1492   5.429   6.660   6.623  0.1648 -0.7792 -0.4164
   12SAPS    HX 1493   5.398   6.555   6.605 -0.6789 -0.5164 -0.4861
   12SAPS    HY 1494   5.343   6.727   6.605  1.4117 -0.0350 -4.0712
   12SAPS   O31 1495   5.479   6.679   6.755  0.1542  0.0810 -0.2500
   12SAPS   C31 1496   5.453   6.794   6.820 -0.7891 -0.6715  0.5514
   12SAPS   O32 1497   5.387   6.888   6.779 -0.3208 -0.0447  0.4884
   12SAPS   C32 1498   5.533   6.793   6.955 -0.4437 -0.9177 -0.2148
   12SAPS   H2X 1499   5.639   6.818   6.932 -0.7814  0.6556 -0.1304
   12SAPS   H2Y 1500   5.528   6.689   6.994  2.1853 -0.8350  0.4033
   12SAPS   C23 1501   6.016   6.607   6.522 -0.4494 -0.4236 -0.6512
   12SAPS   H3R 1502   6.027   6.677   6.437 -1.3462  0.8754  0.2714
   12SAPS   H3S 1503   6.086   6.524   6.502 -0.1774 -0.6576  1.1916
   12SAPS   C24 1504   6.064   6.660   6.664 -0.1749 -0.2999  0.1368
   12SAPS   H4R 1505   6.175   6.662   6.660 -0.1939  3.9573  0.0106
   12SAPS   H4S 1506   6.034   6.584   6.739 -0.8596  0.4216  0.5954
   12SAPS   C25 1507   6.018   6.802   6.690  0.0240 -0.1998 -0.0017
   12SAPS   H5R 1508   6.045   6.864   6.603  0.2626 -0.7046 -0.2901
   12SAPS   C26 1509   5.949   6.847   6.797 -0.0517  0.3528 -0.5759
   12SAPS   H6R 1510   5.907   6.948   6.804 -1.7946 -0.4235  0.7666
   12SAPS   C27 1511   5.916   6.753   6.919 -0.2054 -1.2186  0.0187
   12SAPS   H7R 1512   5.858   6.670   6.874 -0.9425  0.2192 -1.7792
   12SAPS   H7S 1513   5.851   6.799   6.997 -0.2124 -2.3515  0.6961
   12SAPS   C28 1514   6.032   6.709   7.005 -0.3961  0.1333  0.4286
   12SAPS   H8R 1515   6.133   6.726   6.967 -0.6374 -0.7432 -0.6042
   12SAPS   C29 1516   6.016   6.641   7.120  0.1557 -0.0879 -0.1827
   12SAPS   H9R 1517   6.100   6.602   7.178 -0.2487 -1.5012 -0.5229
   12SAPS  C210 1518   5.882   6.606   7.193 -0.1217 -0.1936 -0.5611
   12SAPS  H10R 1519   5.850   6.506   7.156  2.9754 -1.1954 -0.6429
   12SAPS  H10S 1520   5.798   6.675   7.172 -0.3849 -0.9141 -1.9802
   12SAPS  C211 1521   5.904   6.596   7.344 -0.1136 -0.5691 -0.5111
   12SAPS  H11R 1522   5.878   6.685   7.403  1.6840 -0.8319  0.7171
   12SAPS  C212 1523   5.940   6.491   7.416  0.6390  0.1283  0.6209
   12SAPS  H12R 1524   5.955   6.495   7.525 -0.1425  2.7125  0.6585
   12SAPS  C213 1525   5.973   6.358   7.349 -0.4190  0.4635  0.1509
   12SAPS  H13R 1526   6.082   6.342   7.353 -0.5283 -0.2207  0.5043
   12SAPS  H13S 1527   5.954   6.365   7.240  1.2697 -1.1351 -0.2569
   12SAPS  C214 1528   5.911   6.234   7.410  0.0458 -0.3497  0.1938
   12SAPS  H14R 1529   5.832   6.191   7.347  0.2872  0.4393 -0.6655
   12SAPS  C215 1530   5.947   6.174   7.528  0.3771  0.1925  1.3033
   12SAPS  H15R 1531   5.888   6.088   7.564  1.4400 -0.1782  2.1798
   12SAPS  C216 1532   6.058   6.215   7.621 -0.3366  0.4919 -0.3685
   12SAPS  H16R 1533   6.116   6.298   7.575  0.1029 -1.4232 -3.3952
   12SAPS  H16S 1534   6.122   6.126   7.639  1.0994  1.3199 -1.4019
   12SAPS  C217 1535   6.004   6.270   7.751  0.0809 -0.4216 -0.5184
   12SAPS  H17R 1536   5.931   6.353   7.737  1.2767  0.6593 -0.4483
   12SAPS  H17S 1537   6.088   6.311   7.810 -0.0225 -0.2365 -0.5003
   12SAPS  C218 1538   5.956   6.158   7.855  0.9337  0.4892  0.6022
   12SAPS  H18R 1539   6.015   6.064   7.846  2.8018  1.4057  2.6249
   12SAPS  H18S 1540   5.852   6.131   7.826  0.6427  1.6683  0.5023
   12SAPS  C219 1541   5.957   6.212   8.001 -0.5367 -0.0898  0.1433
   12SAPS  H19R 1542   5.887   6.298   8.011 -2.8236 -1.7443 -1.2496
   12SAPS  H19S 1543   6.056   6.247   8.036  0.3349 -2.7310  0.3767
   12SAPS  C220 1544   5.917   6.105   8.106 -0.0397 -0.0314  0.7675
   12SAPS  H20R 1545   5.925   6.153   8.206 -0.1466  3.4661 -0.8340
   12SAPS  H20S 1546   5.993   6.025   8.095  0.9411  0.8679  0.8987
   12SAPS  H20T 1547   5.813   6.071   8.086 -0.6229  2.2999 -0.3552
   12SAPS   C33 1548   5.497   6.901   7.064  0.1522 -0.1736 -0.4089
   12SAPS   H3X 1549   5.391   6.899   7.095  0.0998 -1.2257 -0.6320
   12SAPS   H3Y 1550   5.526   7.003   7.029  1.3764 -0.3224  0.1286
   12SAPS   C34 1551   5.575   6.860   7.185  0.1241  0.0775  0.3096
   12SAPS   H4X 1552   5.682   6.888   7.175  0.5234 -1.5249  0.0617
   12SAPS   H4Y 1553   5.577   6.750   7.200  0.9962  0.3102  2.0264
   12SAPS   C35 1554   5.523   6.920   7.314  0.2898 -0.0046 -0.7175
   12SAPS   H5X 1555   5.412   6.913   7.305  0.0782  0.0067  1.5856
   12SAPS   H5Y 1556   5.532   7.031   7.321  1.6305 -0.1075 -0.7702
   12SAPS   C36 1557   5.566   6.848   7.443  0.1422  0.6047 -1.1740
   12SAPS   H6X 1558   5.674   6.863   7.465 -0.0190  0.1925 -0.0838
   12SAPS   H6Y 1559   5.554   6.740   7.420  2.4001  0.3802 -1.3362
   12SAPS   C37 1560   5.476   6.887   7.562  0.0626  0.2137 -0.0652
   12SAPS   H7X 1561   5.372   6.878   7.524  0.0907  1.3829 -0.4277
   12SAPS   H7Y 1562   5.503   6.991   7.589 -0.9336  0.5114 -0.1868
   12SAPS   C38 1563   5.504   6.809   7.689  0.0446  0.3864 -0.6932
   12SAPS   H8X 1564   5.610   6.828   7.714  0.0900 -2.4712  1.5462
   12SAPS   H8Y 1565   5.485   6.703   7.660  0.5812 -0.1814  0.9592
   12SAPS   C39 1566   5.423   6.853   7.812  0.6759  0.0837 -0.2458
   12SAPS   H9X 1567   5.319   6.856   7.774  0.5468 -2.8361 -0.2130
   12SAPS   H9Y 1568   5.463   6.945   7.859  3.2249 -2.1964  2.2611
   12SAPS  C310 1569   5.417   6.746   7.920 -0.6731 -0.1364  0.8072
   12SAPS  H10X 1570   5.525   6.736   7.939 -0.1386  2.3283 -0.6141
   12SAPS  H10Y 1571   5.359   6.655   7.896 -1.9272  0.8398  0.0349
   12SAPS  C311 1572   5.363   6.813   8.049  0.6271 -0.9882  0.7064
   12SAPS  H11X 1573   5.418   6.909   8.061 -0.2020 -0.4802  0.4578
   12SAPS  H11Y 1574   5.383   6.742   8.132  0.2738 -3.0561 -0.9149
   12SAPS  C312 1575   5.214   6.836   8.038 -0.6021  0.5361  0.3327
   12SAPS  H12X 1576   5.155   6.745   8.013 -1.2668  1.2951 -0.9491
   12SAPS  H12Y 1577   5.190   6.912   7.960 -0.0300  0.3373 -0.0444
   12SAPS  C313 1578   5.157   6.879   8.175  0.1124 -0.0523  0.1979
   12SAPS  H13X 1579   5.162   6.989   8.189 -1.1867 -0.1468  1.4409
   12SAPS  H13Y 1580   5.205   6.823   8.259 -0.2237 -0.4892  0.1040
   12SAPS  C314 1581   5.004   6.835   8.187 -0.0949 -0.5060 -0.6720
   12SAPS  H14X 1582   5.013   6.724   8.176 -0.0490 -0.6031  0.3388
   12SAPS  H14Y 1583   4.946   6.884   8.106 -0.4371  1.5800  0.8140
   12SAPS  C315 1584   4.937   6.859   8.321 -0.1513 -0.2945 -0.0279
   12SAPS  H15X 1585   4.933   6.967   8.344  1.9404  0.2048 -1.8582
   12SAPS  H15Y 1586   5.000   6.813   8.401 -1.9842  0.3441  1.8440
   12SAPS  C316 1587   4.801   6.796   8.339 -0.3792  0.0664 -0.0889
   12SAPS  H16X 1588   4.793   6.786   8.449  1.5707 -1.0269 -0.0138
   12SAPS  H16Y 1589   4.807   6.690   8.306  0.8099  0.7973 -2.3237
   12SAPS  C317 1590   4.686   6.869   8.291  0.4010  0.6109 -0.1380
   12SAPS  H17X 1591   4.686   6.881   8.181  0.2228 -1.2815 -0.3618
   12SAPS  H17Y 1592   4.683   6.975   8.326  0.1012  0.5363  0.0624
   12SAPS  C318 1593   4.557   6.798   8.335 -0.4192  0.5322 -0.2362
   12SAPS  H18X 1594   4.547   6.797   8.446 -2.8890 -0.1632 -0.4271
   12SAPS  H18Y 1595   4.546   6.691   8.307  0.7791 -0.1088  1.6438
   12SAPS  H18Z 1596   4.468   6.856   8.303 -1.7338  0.0722  2.4345
   13SAPS     N 1597   6.421   3.624   6.428 -0.4273 -0.5397 -0.3928
   13SAPS   HN1 1598   6.396   3.681   6.511 -0.5175  0.9845 -1.4513
   13SAPS   HN2 1599   6.362   3.538   6.427 -1.6084  0.2518 -0.5740
   13SAPS   HN3 1600   6.518   3.586   6.427  0.1464  0.8464  1.1277
   13SAPS   C12 1601   6.394   3.701   6.304 -0.1520  0.7569 -0.1263
   13SAPS  H12A 1602   6.439   3.799   6.316 -1.3068  1.2310  0.3765
   13SAPS   C13 1603   6.469   3.631   6.182  0.2926  0.6519  0.6057
   13SAPS  O13A 1604   6.534   3.527   6.192  0.7200 -0.2538 -0.0011
   13SAPS  O13B 1605   6.441   3.670   6.066  0.7005 -0.3724  0.0510
   13SAPS   C11 1606   6.239   3.711   6.284  0.0852  0.8635  0.0095
   13SAPS  H11A 1607   6.186   3.615   6.270 -0.7697  1.4066 -0.5149
   13SAPS  H11B 1608   6.229   3.772   6.191  0.8160 -0.5533 -1.0235
   13SAPS     P 1609   6.022   3.816   6.380 -0.1406  0.3108  0.1428
   13SAPS   O13 1610   5.978   3.823   6.242 -0.6423 -0.4573  0.5463
   13SAPS   O14 1611   5.954   3.725   6.473  0.1914  0.0832  0.3671
   13SAPS   O12 1612   6.178   3.785   6.391  0.8405  0.0325  0.3008
   13SAPS   O11 1613   6.031   3.962   6.437  0.1558  0.2440 -0.1484
   13SAPS    C1 1614   6.012   3.997   6.570 -0.2355  1.2185  0.3093
   13SAPS    HA 1615   5.971   4.100   6.576 -1.1534  1.0870 -2.6806
   13SAPS    HB 1616   5.927   3.941   6.614  1.0334  1.4636  3.1443
   13SAPS    C2 1617   6.139   3.988   6.652  0.1088 -0.7996 -0.3956
   13SAPS    HS 1618   6.145   3.881   6.680  2.4631 -0.9675 -1.4727
   13SAPS   O21 1619   6.123   4.072   6.772 -0.1007 -0.4646 -0.4936
   13SAPS   C21 1620   6.035   4.036   6.857 -0.5290 -0.1695  0.0632
   13SAPS   O22 1621   5.966   3.938   6.847 -0.0102  0.2041  0.6727
   13SAPS   C22 1622   6.035   4.132   6.972 -0.0273  0.2212  0.0342
   13SAPS   H2R 1623   6.130   4.123   7.028  0.8244 -1.4581 -1.6112
   13SAPS   H2S 1624   6.025   4.232   6.924  1.1279  0.2899 -0.0924
   13SAPS    C3 1625   6.263   4.027   6.570 -0.3619  0.0723 -0.7281
   13SAPS    HX 1626   6.244   4.126   6.522 -0.4046  0.4234  0.0165
   13SAPS    HY 1627   6.284   3.950   6.492 -0.9530 -2.6588  1.7429
   13SAPS   O31 1628   6.379   4.043   6.663  0.2670 -0.0100  0.1440
   13SAPS   C31 1629   6.446   3.933   6.685 -0.4890  0.0293  0.3203
   13SAPS   O32 1630   6.433   3.827   6.626  0.0989  0.0500  0.3785
   13SAPS   C32 1631   6.523   3.953   6.812  0.0769  0.4270  0.1706
   13SAPS   H2X 1632   6.621   4.003   6.797  0.1462  0.4463  0.6854
   13SAPS   H2Y 1633   6.526   3.849   6.852  0.3825  1.1338  2.0406
   13SAPS   C23 1634   5.911   4.116   7.067  0.1308 -0.5817  0.0207
   13SAPS   H3R 1635   5.823   4.116   7.000 -0.5008  2.0109  0.7806
   13SAPS   H3S 1636   5.904   4.213   7.121 -1.5754 -0.0150 -1.1992
   13SAPS   C24 1637   5.913   4.000   7.167  0.1622  0.4232  0.1209
   13SAPS   H4R 1638   5.969   3.918   7.116  1.2078  1.2449 -0.0581
   13SAPS   H4S 1639   5.810   3.962   7.183 -0.0822  0.0514 -2.1086
   13SAPS   C25 1640   5.991   4.019   7.296  0.6061 -0.1271  0.3352
   13SAPS   H5R 1641   6.100   4.005   7.296  0.9880  2.5534  0.8378
   13SAPS   C26 1642   5.956   4.082   7.416 -0.0978  0.7184 -1.4539
   13SAPS   H6R 1643   6.034   4.098   7.492 -0.0495 -0.0172 -1.3438
   13SAPS   C27 1644   5.818   4.133   7.454  0.0033 -0.0716 -0.1113
   13SAPS   H7R 1645   5.745   4.134   7.370 -1.6256  0.3128  1.2750
   13SAPS   H7S 1646   5.810   4.235   7.497  1.3343 -0.5756  1.3692
   13SAPS   C28 1647   5.757   4.046   7.557  0.3943 -0.1648 -0.7589
   13SAPS   H8R 1648   5.679   3.972   7.533 -1.0581  0.5856  1.4154
   13SAPS   C29 1649   5.782   4.041   7.687  0.1445  0.2535  0.5829
   13SAPS   H9R 1650   5.733   3.969   7.753  1.1214 -1.3607 -0.4016
   13SAPS  C210 1651   5.882   4.124   7.764  0.4422 -0.3585 -0.4882
   13SAPS  H10R 1652   5.918   4.211   7.705 -2.1545  2.1896  1.5407
   13SAPS  H10S 1653   5.973   4.062   7.778 -0.7184 -2.1622 -0.6656
   13SAPS  C211 1654   5.849   4.180   7.901 -0.2242 -0.1744 -0.0868
   13SAPS  H11R 1655   5.827   4.288   7.896  0.6854 -0.0548 -1.8861
   13SAPS  C212 1656   5.829   4.114   8.018 -0.3290 -0.5790  0.1838
   13SAPS  H12R 1657   5.801   4.180   8.102  1.8137  1.2679 -0.4848
   13SAPS  C213 1658   5.837   3.966   8.029 -0.3473 -0.5323 -0.3855
   13SAPS  H13R 1659   5.929   3.947   8.088 -1.2452  1.5834  1.7957
   13SAPS  H13S 1660   5.864   3.895   7.948  0.8304 -0.2488 -0.2481
   13SAPS  C214 1661   5.721   3.905   8.102 -0.7747 -0.3242  0.1398
   13SAPS  H14R 1662   5.638   3.875   8.036 -0.8492  0.4084 -0.1121
   13SAPS  C215 1663   5.710   3.895   8.236 -0.4872 -0.3629  0.0225
   13SAPS  H15R 1664   5.617   3.855   8.280 -0.4224  1.5618  1.9793
   13SAPS  C216 1665   5.809   3.944   8.338  0.3178 -0.7473 -0.6864
   13SAPS  H16R 1666   5.744   4.004   8.406 -2.0864 -2.8415 -1.0506
   13SAPS  H16S 1667   5.895   4.002   8.300  0.0482  0.2051  0.1207
   13SAPS  C217 1668   5.848   3.820   8.417  0.5197  0.4261  0.5771
   13SAPS  H17R 1669   5.768   3.777   8.480 -1.3187  0.7596 -1.4727
   13SAPS  H17S 1670   5.927   3.843   8.492  1.3572 -0.9405  0.1290
   13SAPS  C218 1671   5.912   3.714   8.328 -0.1467 -0.5323 -0.0027
   13SAPS  H18R 1672   5.981   3.774   8.266 -0.3142  0.4509  0.7436
   13SAPS  H18S 1673   5.849   3.664   8.251  0.6710 -2.1262  0.3445
   13SAPS  C219 1674   5.979   3.597   8.399 -0.1256 -0.6281  0.1170
   13SAPS  H19R 1675   5.892   3.537   8.433 -0.0626 -0.7880 -0.0029
   13SAPS  H19S 1676   6.028   3.618   8.496 -0.5473 -1.6120  0.5473
   13SAPS  C220 1677   6.068   3.508   8.315 -0.1909  0.3489 -0.4938
   13SAPS  H20R 1678   6.100   3.425   8.381  0.7414  0.4490 -0.8181
   13SAPS  H20S 1679   6.157   3.565   8.282 -0.4327  0.4040 -1.0588
   13SAPS  H20T 1680   6.000   3.467   8.237 -1.9134  0.0912  1.0882
   13SAPS   C33 1681   6.457   4.048   6.914 -0.4044 -0.2636  0.3672
   13SAPS   H3X 1682   6.358   4.014   6.951  0.1089 -0.6462  1.3992
   13SAPS   H3Y 1683   6.437   4.141   6.856 -2.3857 -0.0957  1.2889
   13SAPS   C34 1684   6.543   4.092   7.026  0.4659 -0.0125  0.1447
   13SAPS   H4X 1685   6.520   4.200   7.038  0.8624  0.0059  0.7604
   13SAPS   H4Y 1686   6.648   4.074   6.993 -0.4270 -2.8786 -1.2151
   13SAPS   C35 1687   6.523   4.017   7.159  0.2804 -0.1140 -0.0917
   13SAPS   H5X 1688   6.551   3.912   7.136  0.2217 -0.2475  0.4477
   13SAPS   H5Y 1689   6.417   4.021   7.193 -0.0016  0.0383 -0.9789
   13SAPS   C36 1690   6.591   4.067   7.289 -0.1648 -0.3287  0.5075
   13SAPS   H6X 1691   6.552   4.167   7.318 -2.3743 -0.6701 -1.1495
   13SAPS   H6Y 1692   6.699   4.072   7.262 -0.0903 -0.6984  0.7361
   13SAPS   C37 1693   6.582   3.962   7.404  0.1657 -0.2353 -0.1631
   13SAPS   H7X 1694   6.613   3.861   7.369  0.7232 -0.0389 -0.2305
   13SAPS   H7Y 1695   6.477   3.955   7.440  0.3864 -3.0771  0.0461
   13SAPS   C38 1696   6.656   4.002   7.538  0.3570 -0.0959  0.0292
   13SAPS   H8X 1697   6.612   4.096   7.580 -1.1984 -1.4105  1.4652
   13SAPS   H8Y 1698   6.764   4.000   7.516  0.6477 -0.8295  1.4750
   13SAPS   C39 1699   6.646   3.875   7.639 -0.0153  0.1686 -0.1800
   13SAPS   H9X 1700   6.685   3.782   7.592 -0.5007  0.4956 -1.2578
   13SAPS   H9Y 1701   6.537   3.864   7.653 -0.4084  0.7622 -2.4487
   13SAPS  C310 1702   6.715   3.898   7.771 -0.3099  0.1253  0.8341
   13SAPS  H10X 1703   6.678   3.828   7.849 -0.2705  0.1763  0.8971
   13SAPS  H10Y 1704   6.694   4.004   7.796 -0.4796  0.6355 -1.3358
   13SAPS  C311 1705   6.858   3.865   7.770 -0.7883 -0.0988  0.4996
   13SAPS  H11X 1706   6.901   3.913   7.679 -0.3049  1.2856  1.4519
   13SAPS  H11Y 1707   6.880   3.757   7.772  2.6094  0.5815  3.9633
   13SAPS  C312 1708   6.933   3.941   7.879 -0.8087  0.6517  0.1779
   13SAPS  H12X 1709   6.876   3.919   7.972 -0.6432 -0.9903 -0.0924
   13SAPS  H12Y 1710   6.918   4.049   7.858  0.0253  0.2868 -2.5751
   13SAPS  C313 1711   7.085   3.910   7.890  0.8536 -0.4540  0.5448
   13SAPS  H13X 1712   7.122   3.969   7.976 -1.0856 -0.4026  1.3623
   13SAPS  H13Y 1713   7.124   3.935   7.789 -1.4390  2.3369  0.2914
   13SAPS  C314 1714   7.116   3.766   7.920  0.0528  0.1773  0.9054
   13SAPS  H14X 1715   7.075   3.711   7.833 -0.5938  1.3558  0.4662
   13SAPS  H14Y 1716   7.060   3.720   8.004 -1.5375 -0.4215 -0.4521
   13SAPS  C315 1717   7.267   3.747   7.914  0.2368  0.3085 -0.1104
   13SAPS  H15X 1718   7.313   3.792   8.005  0.7932  0.8327 -0.6401
   13SAPS  H15Y 1719   7.312   3.785   7.819  1.8738  1.3572  1.0633
   13SAPS  C316 1720   7.311   3.597   7.912  0.0896  0.7914  0.4258
   13SAPS  H16X 1721   7.250   3.541   7.837  1.4878  0.0457 -0.1651
   13SAPS  H16Y 1722   7.288   3.550   8.010  1.7826 -1.2499 -0.1209
   13SAPS  C317 1723   7.459   3.586   7.880 -0.3966 -0.2665 -1.0780
   13SAPS  H17X 1724   7.487   3.648   7.792  1.1231 -0.4558 -0.7451
   13SAPS  H17Y 1725   7.480   3.478   7.862  0.1192 -0.3045 -0.2617
   13SAPS  C318 1726   7.549   3.621   7.996  0.8268  0.4309  0.5449
   13SAPS  H18X 1727   7.539   3.730   8.016  1.9172  0.2253  2.3463
   13SAPS  H18Y 1728   7.649   3.600   7.953  0.8279  0.0054  0.7604
   13SAPS  H18Z 1729   7.535   3.561   8.088 -1.0784 -1.4693 -0.9459
   14SAPS     N 1730   5.404   5.837   5.636 -0.0469  0.8253 -0.1767
   14SAPS   HN1 1731   5.445   5.746   5.666 -1.8320  0.1171  0.1872
   14SAPS   HN2 1732   5.301   5.828   5.641 -0.0985  2.1377  1.2583
   14SAPS   HN3 1733   5.423   5.849   5.534  2.7177  0.7561  0.3042
   14SAPS   C12 1734   5.436   5.957   5.717  0.5508 -0.4092  0.2031
   14SAPS  H12A 1735   5.534   5.989   5.685 -0.3283  0.2505 -1.9047
   14SAPS   C13 1736   5.337   6.079   5.689  0.1015  0.2426  0.1942
   14SAPS  O13A 1737   5.265   6.073   5.586  0.0675 -0.6261  0.4865
   14SAPS  O13B 1738   5.335   6.179   5.766  0.5836 -0.3668 -0.1529
   14SAPS   C11 1739   5.416   5.921   5.864  0.3931 -0.5391  0.7695
   14SAPS  H11A 1740   5.314   5.877   5.866 -0.0515  0.4242 -0.3584
   14SAPS  H11B 1741   5.405   6.008   5.932  2.6839  0.9075 -0.6653
   14SAPS     P 1742   5.641   5.881   5.979  0.1042  0.1715 -0.2838
   14SAPS   O13 1743   5.754   5.795   5.949  0.0998  0.8753 -0.0141
   14SAPS   O14 1744   5.662   6.018   5.930 -0.4254  0.2518  0.5983
   14SAPS   O12 1745   5.516   5.826   5.905  0.5271 -0.2788  0.0442
   14SAPS   O11 1746   5.616   5.889   6.133 -0.4680  0.5537  0.2774
   14SAPS    C1 1747   5.497   5.846   6.202 -0.5603 -0.6428  0.3001
   14SAPS    HA 1748   5.454   5.759   6.147  1.3802 -0.4121 -1.6767
   14SAPS    HB 1749   5.533   5.803   6.298 -1.0011 -0.3681  0.5829
   14SAPS    C2 1750   5.414   5.967   6.229 -0.4559 -0.2015 -1.1001
   14SAPS    HS 1751   5.401   6.021   6.132  0.3595 -0.1281 -1.1684
   14SAPS   O21 1752   5.487   6.048   6.325  0.3883  0.1789  0.2311
   14SAPS   C21 1753   5.464   6.175   6.312  0.2024  0.2115 -0.3471
   14SAPS   O22 1754   5.389   6.229   6.235 -0.2401  0.0378 -0.2188
   14SAPS   C22 1755   5.533   6.247   6.419  0.2770 -0.2594 -0.0608
   14SAPS   H2R 1756   5.601   6.327   6.383 -0.4936 -0.3808 -1.7891
   14SAPS   H2S 1757   5.458   6.306   6.477  1.1700  0.2997  0.5396
   14SAPS    C3 1758   5.276   5.942   6.287 -0.6278 -0.7425  0.2326
   14SAPS    HX 1759   5.221   5.883   6.210 -1.7841  0.0727  0.4349
   14SAPS    HY 1760   5.232   6.044   6.290  4.4663  1.5660  2.4309
   14SAPS   O31 1761   5.281   5.866   6.411  0.0305 -0.3795  0.0738
   14SAPS   C31 1762   5.252   5.949   6.515 -0.8725 -0.4035  0.4827
   14SAPS   O32 1763   5.238   6.072   6.506 -0.0467  0.3307  0.0882
   14SAPS   C32 1764   5.252   5.863   6.650 -0.2041 -0.1934 -0.4274
   14SAPS   H2X 1765   5.324   5.779   6.656 -1.4148 -1.0892  2.0651
   14SAPS   H2Y 1766   5.150   5.820   6.657 -0.3986  0.4507  0.8142
   14SAPS   C23 1767   5.593   6.161   6.537 -0.5092 -0.0052  0.5063
   14SAPS   H3R 1768   5.644   6.074   6.491 -0.7734 -0.9127  1.8800
   14SAPS   H3S 1769   5.513   6.103   6.587 -1.3619  0.3087 -0.4862
   14SAPS   C24 1770   5.698   6.233   6.630 -0.0254 -0.5714  0.0274
   14SAPS   H4R 1771   5.680   6.179   6.726 -1.2795 -0.6285 -0.2198
   14SAPS   H4S 1772   5.662   6.335   6.653  0.4696 -0.3446 -0.2145
   14SAPS   C25 1773   5.843   6.219   6.592 -0.5319 -0.9760 -0.8066
   14SAPS   H5R 1774   5.858   6.216   6.483  1.6549 -2.9085 -0.4857
   14SAPS   C26 1775   5.950   6.229   6.666  0.8805  0.7593  0.6563
   14SAPS   H6R 1776   6.046   6.213   6.614  0.1524 -0.5394 -0.3274
   14SAPS   C27 1777   5.948   6.240   6.814 -0.7148 -0.0998 -0.2351
   14SAPS   H7R 1778   5.843   6.243   6.851 -0.8445 -0.1633 -0.5903
   14SAPS   H7S 1779   5.984   6.338   6.851  0.7650 -1.2674  1.5138
   14SAPS   C28 1780   6.054   6.150   6.880  0.1033  0.2772 -0.2043
   14SAPS   H8R 1781   6.152   6.152   6.831 -0.2057  0.8431 -0.8203
   14SAPS   C29 1782   6.042   6.075   6.996  0.0041 -1.1894  0.1439
   14SAPS   H9R 1783   6.134   6.031   7.036  1.0195  0.9237  0.2063
   14SAPS  C210 1784   5.916   6.056   7.080 -0.2309  0.6386  0.3023
   14SAPS  H10R 1785   5.889   6.158   7.115 -1.8167  0.3217  0.0454
   14SAPS  H10S 1786   5.943   6.006   7.175  0.9191  0.4166 -0.1245
   14SAPS  C211 1787   5.798   5.998   7.003  0.4946  0.0172  0.8943
   14SAPS  H11R 1788   5.807   6.003   6.893  0.2880 -2.3322  0.7532
   14SAPS  C212 1789   5.685   5.963   7.070 -0.5513  0.0012 -0.0364
   14SAPS  H12R 1790   5.597   5.947   7.005  0.0200 -0.2258 -0.7503
   14SAPS  C213 1791   5.649   5.958   7.219 -0.0442  0.2043  0.3865
   14SAPS  H13R 1792   5.564   6.029   7.224  0.7926  1.4616 -2.2902
   14SAPS  H13S 1793   5.736   6.003   7.273  0.4877  0.4207 -0.6396
   14SAPS  C214 1794   5.613   5.818   7.268 -0.5067  0.0664  0.0776
   14SAPS  H14R 1795   5.543   5.764   7.201 -0.1078 -0.0750 -0.2245
   14SAPS  C215 1796   5.670   5.742   7.369 -0.0883 -0.8711 -0.3304
   14SAPS  H15R 1797   5.636   5.640   7.394 -2.7765  0.3292  1.1316
   14SAPS  C216 1798   5.780   5.780   7.464 -0.8642  0.3940  0.0430
   14SAPS  H16R 1799   5.825   5.878   7.434  0.6667  0.4913  2.5606
   14SAPS  H16S 1800   5.868   5.713   7.451  0.4600  1.5635  2.6646
   14SAPS  C217 1801   5.720   5.765   7.598  0.3987  0.0670 -0.0054
   14SAPS  H17R 1802   5.804   5.778   7.669  2.1003 -0.3462 -1.9185
   14SAPS  H17S 1803   5.675   5.666   7.621 -1.3843  1.0893  1.0501
   14SAPS  C218 1804   5.615   5.859   7.643 -0.0824 -0.2174  0.4019
   14SAPS  H18R 1805   5.534   5.853   7.568 -0.4659  4.0862  0.3327
   14SAPS  H18S 1806   5.659   5.960   7.630  0.8274 -0.5847  0.5970
   14SAPS  C219 1807   5.575   5.846   7.790  0.2440  0.0524 -0.7227
   14SAPS  H19R 1808   5.560   5.742   7.828  3.3274 -0.7937 -1.6388
   14SAPS  H19S 1809   5.475   5.888   7.813 -0.0197 -1.9375  2.0387
   14SAPS  C220 1810   5.656   5.935   7.887  0.2004  0.1399 -0.6347
   14SAPS  H20R 1811   5.654   6.040   7.850  0.7311  0.8124  1.1930
   14SAPS  H20S 1812   5.758   5.892   7.898 -0.0720  0.4886  4.1882
   14SAPS  H20T 1813   5.600   5.940   7.982 -3.3481 -1.8588 -2.5428
   14SAPS   C33 1814   5.258   5.953   6.771  0.7902 -0.6799  0.4363
   14SAPS   H3X 1815   5.175   6.026   6.769  0.6147 -0.8050  2.3547
   14SAPS   H3Y 1816   5.335   6.033   6.772  1.9160 -1.7451  0.2571
   14SAPS   C34 1817   5.255   5.890   6.910  0.5746  0.6963  0.3428
   14SAPS   H4X 1818   5.329   5.808   6.924  0.3442  0.5281  0.5908
   14SAPS   H4Y 1819   5.162   5.829   6.921  2.1867 -1.6113  1.8807
   14SAPS   C35 1820   5.256   5.993   7.024  0.3888  0.1160 -0.0834
   14SAPS   H5X 1821   5.192   6.076   6.988  1.8946  1.3879  0.1303
   14SAPS   H5Y 1822   5.362   6.025   7.032  0.6357 -1.0658  1.6632
   14SAPS   C36 1823   5.215   5.931   7.161 -0.3348 -0.6756  0.1390
   14SAPS   H6X 1824   5.298   5.860   7.183  1.2095  1.4924  1.4022
   14SAPS   H6Y 1825   5.120   5.874   7.150 -0.6336  0.2179 -2.1022
   14SAPS   C37 1826   5.199   6.023   7.283 -0.2988 -0.0747  0.2216
   14SAPS   H7X 1827   5.120   6.100   7.265  0.1492  0.0745 -1.1913
   14SAPS   H7Y 1828   5.297   6.073   7.301 -0.6249  0.7851 -0.3731
   14SAPS   C38 1829   5.178   5.951   7.416 -0.0932  0.2168  0.3457
   14SAPS   H8X 1830   5.249   5.866   7.424 -2.8963 -2.4162 -1.4330
   14SAPS   H8Y 1831   5.074   5.913   7.405 -0.6376  1.9709 -0.6138
   14SAPS   C39 1832   5.211   6.045   7.541 -0.3766 -0.9768  0.1358
   14SAPS   H9X 1833   5.148   6.137   7.536  0.4569 -0.3523  0.9893
   14SAPS   H9Y 1834   5.313   6.088   7.533 -0.5530 -0.3906  0.8971
   14SAPS  C310 1835   5.195   5.974   7.675  0.6652  0.5604 -0.4565
   14SAPS  H10X 1836   5.210   6.046   7.758  0.1173  1.5177 -1.1783
   14SAPS  H10Y 1837   5.268   5.890   7.672 -2.6824 -2.4672 -0.8398
   14SAPS  C311 1838   5.050   5.921   7.698 -0.0183 -0.1899  0.2865
   14SAPS  H11X 1839   4.992   5.912   7.604  0.2641 -1.9369  0.2588
   14SAPS  H11Y 1840   4.979   5.986   7.754 -1.6103  0.2256 -2.1476
   14SAPS  C312 1841   5.051   5.794   7.790 -0.5638 -0.5233  0.0184
   14SAPS  H12X 1842   5.112   5.724   7.730  1.4336  1.2386 -0.0900
   14SAPS  H12Y 1843   4.946   5.757   7.793 -1.0054  0.6693 -0.1049
   14SAPS  C313 1844   5.112   5.827   7.928 -0.2303  0.5569  0.4144
   14SAPS  H13X 1845   5.028   5.834   8.000  2.3125  1.2314  3.4165
   14SAPS  H13Y 1846   5.165   5.924   7.918  1.8903 -0.6745 -0.8451
   14SAPS  C314 1847   5.211   5.712   7.966 -0.5231  0.5798  0.5056
   14SAPS  H14X 1848   5.295   5.713   7.893 -1.1608 -0.8937 -0.2630
   14SAPS  H14Y 1849   5.159   5.614   7.962  0.7427 -0.0564 -0.4553
   14SAPS  C315 1850   5.279   5.732   8.102  0.3436 -0.7358 -1.0846
   14SAPS  H15X 1851   5.302   5.839   8.121 -1.4364 -0.7741  1.4775
   14SAPS  H15Y 1852   5.376   5.677   8.101  2.0812  1.9630  3.1853
   14SAPS  C316 1853   5.187   5.688   8.218 -0.1778  0.2330  0.6989
   14SAPS  H16X 1854   5.143   5.591   8.186  0.0806 -0.0271  1.1419
   14SAPS  H16Y 1855   5.111   5.768   8.236 -1.5298 -0.8489 -0.0389
   14SAPS  C317 1856   5.270   5.668   8.346  0.2307 -0.3366 -0.4125
   14SAPS  H17X 1857   5.342   5.752   8.359 -1.2168  1.2276 -2.0909
   14SAPS  H17Y 1858   5.329   5.574   8.340  0.8445  0.1401 -2.2399
   14SAPS  C318 1859   5.184   5.652   8.473  0.0769 -0.2332 -0.8036
   14SAPS  H18X 1860   5.118   5.741   8.480 -0.1917 -0.4282 -0.8361
   14SAPS  H18Y 1861   5.246   5.651   8.565 -2.7420 -0.7961  1.1587
   14SAPS  H18Z 1862   5.113   5.567   8.461 -0.2145  0.4830 -4.6691
   15SAPS     N 1863   6.271   5.777   5.948 -0.4559  0.0715  0.3326
   15SAPS   HN1 1864   6.174   5.797   5.978 -0.6461  1.4079 -1.1451
   15SAPS   HN2 1865   6.268   5.691   5.889 -0.1019 -0.3084  0.8584
   15SAPS   HN3 1866   6.341   5.765   6.025 -0.6744  0.8236  0.6495
   15SAPS   C12 1867   6.325   5.889   5.862 -0.0742 -0.5586 -0.4094
   15SAPS  H12A 1868   6.369   5.840   5.777 -2.2837 -3.0654 -0.1829
   15SAPS   C13 1869   6.224   5.994   5.815 -0.1238 -0.2364  0.9643
   15SAPS  O13A 1870   6.103   5.991   5.850 -0.3502  0.7016 -0.4085
   15SAPS  O13B 1871   6.263   6.081   5.731 -0.5156  0.0823 -0.1790
   15SAPS   C11 1872   6.437   5.964   5.940  0.2401 -0.0215  0.8409
   15SAPS  H11A 1873   6.388   6.033   6.012 -0.1563  0.4643  0.1174
   15SAPS  H11B 1874   6.486   6.029   5.864 -0.7186  2.0377  1.9355
   15SAPS     P 1875   6.681   5.890   5.988  0.5581 -0.0012  0.2467
   15SAPS   O13 1876   6.714   5.866   5.845 -0.9215 -0.2267 -0.0042
   15SAPS   O14 1877   6.713   6.021   6.049 -0.0643  0.1716 -0.1032
   15SAPS   O12 1878   6.524   5.882   6.019 -0.2159  0.2558 -0.1634
   15SAPS   O11 1879   6.753   5.775   6.083  0.1629 -0.0378 -0.4209
   15SAPS    C1 1880   6.684   5.649   6.109  0.4027  0.9305  0.1868
   15SAPS    HA 1881   6.589   5.633   6.052 -0.5524 -0.7129  2.1857
   15SAPS    HB 1882   6.750   5.564   6.084  2.2477  2.0707  1.0530
   15SAPS    C2 1883   6.644   5.625   6.254  0.0069  0.1312 -0.1566
   15SAPS    HS 1884   6.580   5.534   6.255  2.4534 -1.6360 -0.2695
   15SAPS   O21 1885   6.577   5.734   6.316 -0.2838 -0.0357  0.3267
   15SAPS   C21 1886   6.458   5.772   6.273 -1.1147  0.9201  0.3486
   15SAPS   O22 1887   6.390   5.710   6.196  0.0443 -0.2408  0.0569
   15SAPS   C22 1888   6.411   5.899   6.348  1.0281  0.4630  0.1812
   15SAPS   H2R 1889   6.489   5.978   6.356  2.2474 -0.8003  0.7470
   15SAPS   H2S 1890   6.338   5.941   6.274 -1.0343 -1.8362  0.8568
   15SAPS    C3 1891   6.770   5.597   6.345  0.9039  0.3031  0.3105
   15SAPS    HX 1892   6.831   5.688   6.329  0.1471  0.8998  0.8069
   15SAPS    HY 1893   6.829   5.511   6.304  0.1733 -0.7837  1.5054
   15SAPS   O31 1894   6.748   5.585   6.489 -0.0270  0.1930 -0.2497
   15SAPS   C31 1895   6.686   5.469   6.531  0.4317  0.7229 -0.0469
   15SAPS   O32 1896   6.661   5.376   6.453 -0.1133 -0.4476  0.0029
   15SAPS   C32 1897   6.647   5.472   6.675  0.1124 -0.0528  0.1166
   15SAPS   H2X 1898   6.578   5.558   6.692 -1.2926 -0.8901 -1.2450
   15SAPS   H2Y 1899   6.732   5.489   6.745 -1.3388  1.2598  1.5939
   15SAPS   C23 1900   6.358   5.865   6.491  0.1355  0.5456 -0.6147
   15SAPS   H3R 1901   6.435   5.802   6.540 -1.5919 -0.1848  1.2291
   15SAPS   H3S 1902   6.259   5.815   6.482  1.2614 -1.7069 -0.7278
   15SAPS   C24 1903   6.343   5.991   6.574  0.0657  0.0395 -0.1322
   15SAPS   H4R 1904   6.277   6.066   6.526  0.3883 -1.2046 -2.5586
   15SAPS   H4S 1905   6.445   6.037   6.580  1.7074 -3.2404 -1.8449
   15SAPS   C25 1906   6.297   5.952   6.719 -0.7232 -0.4589  0.5638
   15SAPS   H5R 1907   6.190   5.973   6.729 -0.2630  1.2617  2.0823
   15SAPS   C26 1908   6.371   5.904   6.820 -0.6855  0.5374  0.2316
   15SAPS   H6R 1909   6.320   5.877   6.914  0.7960  2.2121  1.5569
   15SAPS   C27 1910   6.520   5.875   6.812 -0.2435  0.6240 -0.1839
   15SAPS   H7R 1911   6.559   5.894   6.709  0.4364 -1.6699 -0.3777
   15SAPS   H7S 1912   6.539   5.766   6.816 -0.0185  0.6390 -0.7416
   15SAPS   C28 1913   6.608   5.959   6.902 -0.1828 -0.3908  0.0955
   15SAPS   H8R 1914   6.609   6.065   6.875 -1.5879 -0.0400  1.3613
   15SAPS   C29 1915   6.680   5.916   7.005  0.4051 -0.1737 -0.1458
   15SAPS   H9R 1916   6.724   5.997   7.065  1.9701 -2.2814  1.6320
   15SAPS  C210 1917   6.682   5.771   7.059  0.4448 -0.4107  0.7172
   15SAPS  H10R 1918   6.733   5.707   6.983 -0.2088  2.8306 -2.5819
   15SAPS  H10S 1919   6.578   5.734   7.064  0.4628 -0.6735 -0.7420
   15SAPS  C211 1920   6.760   5.764   7.190  0.6012 -0.3320  0.1817
   15SAPS  H11R 1921   6.867   5.741   7.183  1.0167  1.2809  0.8943
   15SAPS  C212 1922   6.712   5.767   7.317 -0.2155 -0.0047  1.5965
   15SAPS  H12R 1923   6.777   5.753   7.404  2.7866  2.3827 -0.1638
   15SAPS  C213 1924   6.569   5.790   7.357 -0.4827 -0.5753 -0.1577
   15SAPS  H13R 1925   6.516   5.695   7.379 -0.3455 -0.1920  2.0336
   15SAPS  H13S 1926   6.507   5.831   7.274  0.3670  1.0355 -0.0222
   15SAPS  C214 1927   6.551   5.897   7.469 -0.6065 -0.3348 -0.6299
   15SAPS  H14R 1928   6.478   5.979   7.452 -0.4263  0.1349  0.7867
   15SAPS  C215 1929   6.618   5.893   7.589 -0.1303 -0.1774  0.5763
   15SAPS  H15R 1930   6.592   5.979   7.654  0.3624  0.4997 -0.1123
   15SAPS  C216 1931   6.719   5.800   7.646 -0.0005  0.2052 -0.1392
   15SAPS  H16R 1932   6.822   5.824   7.610 -0.9284 -0.5857 -3.4752
   15SAPS  H16S 1933   6.686   5.699   7.616 -1.8325  0.0639  2.1991
   15SAPS  C217 1934   6.719   5.796   7.803 -0.6260 -0.0644 -0.3522
   15SAPS  H17R 1935   6.613   5.783   7.831  0.0062 -2.2682  1.1018
   15SAPS  H17S 1936   6.761   5.892   7.841 -0.4593 -0.7351  1.1724
   15SAPS  C218 1937   6.798   5.681   7.856 -0.4608 -0.4921  0.6273
   15SAPS  H18R 1938   6.886   5.661   7.792  0.7280  1.3114  1.6411
   15SAPS  H18S 1939   6.741   5.588   7.835  0.6866 -1.4593  1.6539
   15SAPS  C219 1940   6.820   5.688   8.001  0.0393 -0.1358 -0.3635
   15SAPS  H19R 1941   6.720   5.699   8.050 -0.2839 -1.8068 -0.6121
   15SAPS  H19S 1942   6.880   5.778   8.023  2.2229 -0.7769 -3.3987
   15SAPS  C220 1943   6.881   5.558   8.060  0.3516  0.0483 -0.6031
   15SAPS  H20R 1944   6.991   5.546   8.071 -0.1934 -2.4635  2.6574
   15SAPS  H20S 1945   6.836   5.470   8.010  0.6988  1.3401 -3.3109
   15SAPS  H20T 1946   6.861   5.555   8.169  0.8607 -0.9178 -0.5386
   15SAPS   C33 1947   6.577   5.343   6.719 -0.3127 -0.2359  0.1609
   15SAPS   H3X 1948   6.648   5.259   6.731 -0.6151 -0.5292 -0.1112
   15SAPS   H3Y 1949   6.507   5.327   6.634 -1.4780  0.0898  1.0434
   15SAPS   C34 1950   6.507   5.357   6.851 -0.3164  0.0987 -0.1895
   15SAPS   H4X 1951   6.452   5.260   6.856 -0.9419  0.5044  0.9151
   15SAPS   H4Y 1952   6.428   5.435   6.845 -0.3578  0.2476  1.9935
   15SAPS   C35 1953   6.587   5.383   6.976  0.4033  0.7279  0.2699
   15SAPS   H5X 1954   6.648   5.476   6.977 -0.0604  1.0343  2.4233
   15SAPS   H5Y 1955   6.656   5.296   6.976 -1.6639 -0.9948 -2.1425
   15SAPS   C36 1956   6.499   5.382   7.099  0.1459  0.4600  0.2165
   15SAPS   H6X 1957   6.439   5.289   7.100 -0.8063  1.0695 -0.0834
   15SAPS   H6Y 1958   6.426   5.464   7.086 -1.5437 -1.1063 -0.3683
   15SAPS   C37 1959   6.579   5.391   7.235  0.1499 -0.7143 -0.1257
   15SAPS   H7X 1960   6.625   5.493   7.233 -0.3009 -0.5170 -0.6941
   15SAPS   H7Y 1961   6.652   5.307   7.229  1.0057  0.1393 -2.4594
   15SAPS   C38 1962   6.479   5.372   7.350 -0.3836  0.0786  0.5139
   15SAPS   H8X 1963   6.441   5.267   7.348  0.5198 -0.2491  0.0475
   15SAPS   H8Y 1964   6.396   5.444   7.337 -0.2208  0.6715  2.5504
   15SAPS   C39 1965   6.538   5.398   7.490  0.2343 -0.2086 -0.8527
   15SAPS   H9X 1966   6.564   5.506   7.494  0.5910 -0.3152 -0.2150
   15SAPS   H9Y 1967   6.629   5.337   7.509  0.6068  0.4511 -0.5329
   15SAPS  C310 1968   6.433   5.365   7.596  0.2155 -0.2003  0.6299
   15SAPS  H10X 1969   6.402   5.260   7.576 -2.6708  0.9573 -1.2491
   15SAPS  H10Y 1970   6.340   5.425   7.584  0.2655 -0.2006  0.2450
   15SAPS  C311 1971   6.491   5.366   7.740  0.4304  0.3038 -0.5359
   15SAPS  H11X 1972   6.569   5.444   7.756  0.3309  0.4372 -0.7086
   15SAPS  H11Y 1973   6.546   5.270   7.749 -0.9146 -0.5927 -1.6232
   15SAPS  C312 1974   6.380   5.374   7.845 -0.0238 -0.1433 -0.7950
   15SAPS  H12X 1975   6.300   5.299   7.833 -2.8248  2.2756  1.7628
   15SAPS  H12Y 1976   6.348   5.481   7.846 -0.8261 -0.3810 -0.8611
   15SAPS  C313 1977   6.445   5.335   7.987 -0.4815 -0.9254  0.1528
   15SAPS  H13X 1978   6.555   5.352   7.990 -0.5065 -0.5548 -0.8549
   15SAPS  H13Y 1979   6.440   5.224   7.995  0.5428 -0.9948 -0.1374
   15SAPS  C314 1980   6.366   5.397   8.108  0.0667 -0.0776  0.6797
   15SAPS  H14X 1981   6.390   5.326   8.190  0.8595 -1.7249 -0.9322
   15SAPS  H14Y 1982   6.259   5.389   8.079  0.4039 -0.0094 -0.6142
   15SAPS  C315 1983   6.406   5.536   8.155 -0.1352 -0.2490 -0.2697
   15SAPS  H15X 1984   6.379   5.609   8.076  0.7267 -0.7838 -1.0593
   15SAPS  H15Y 1985   6.517   5.536   8.149 -0.1061 -1.5981  0.0180
   15SAPS  C316 1986   6.344   5.589   8.283  0.5864  0.2782  0.3625
   15SAPS  H16X 1987   6.252   5.647   8.261 -0.2285  0.0800  3.1581
   15SAPS  H16Y 1988   6.419   5.654   8.333  0.7500  2.3952 -2.4958
   15SAPS  C317 1989   6.303   5.485   8.389  0.2084 -0.0647 -0.2439
   15SAPS  H17X 1990   6.401   5.442   8.418 -1.1072 -2.7970  0.3222
   15SAPS  H17Y 1991   6.249   5.397   8.348  2.2457 -1.6051  0.3132
   15SAPS  C318 1992   6.238   5.538   8.508 -0.5919  0.4904 -0.1478
   15SAPS  H18X 1993   6.134   5.572   8.489 -0.2336  1.7741  0.1721
   15SAPS  H18Y 1994   6.301   5.622   8.545 -0.8439  0.5145  0.2291
   15SAPS  H18Z 1995   6.239   5.458   8.585  2.2905 -1.2851 -1.9361
   16SAPS     N 1996   1.625   0.679   6.700 -0.4631  0.2425  0.1425
   16SAPS   HN1 1997   1.690   0.709   6.624 -0.2892 -1.7875 -0.5494
   16SAPS   HN2 1998   1.632   0.741   6.783 -2.8854 -0.1008  0.6288
   16SAPS   HN3 1999   1.646   0.580   6.724 -3.8846 -0.3386  0.9539
   16SAPS   C12 2000   1.483   0.680   6.646 -0.8991 -0.2761  0.8851
   16SAPS  H12A 2001   1.456   0.774   6.600 -0.9556 -0.0440  1.3886
   16SAPS   C13 2002   1.454   0.560   6.540  0.1421 -0.1587 -0.0689
   16SAPS  O13A 2003   1.550   0.486   6.512 -0.1599  0.4767  0.1880
   16SAPS  O13B 2004   1.357   0.571   6.461  0.2854 -0.0992 -0.1915
   16SAPS   C11 2005   1.382   0.656   6.764  0.1387 -0.2022  0.3267
   16SAPS  H11A 2006   1.409   0.708   6.858 -0.6578  1.1068 -0.1635
   16SAPS  H11B 2007   1.396   0.548   6.789  1.5666  0.2958  1.7646
   16SAPS     P 2008   1.158   0.797   6.803  0.3805  0.0504  0.0774
   16SAPS   O13 2009   1.188   0.931   6.740  0.4670  0.8407 -0.4243
   16SAPS   O14 2010   1.014   0.757   6.807  0.1088 -0.2148 -0.2651
   16SAPS   O12 2011   1.247   0.684   6.738  0.2771  0.1214 -0.6783
   16SAPS   O11 2012   1.214   0.803   6.949  0.0592  0.0687 -0.2726
   16SAPS    C1 2013   1.209   0.688   7.037 -0.2343  0.3303  0.4980
   16SAPS    HA 2014   1.186   0.591   6.988 -0.0121  0.6104 -0.1632
   16SAPS    HB 2015   1.307   0.677   7.087  0.2355 -2.8927 -1.0375
   16SAPS    C2 2016   1.098   0.714   7.141 -0.1077 -0.1217 -0.3576
   16SAPS    HS 2017   0.999   0.713   7.091 -1.3884 -1.0558  2.1046
   16SAPS   O21 2018   1.126   0.837   7.207 -0.4261  0.1195  0.6193
   16SAPS   C21 2019   1.031   0.885   7.277  0.6251 -0.0974 -0.2632
   16SAPS   O22 2020   0.926   0.826   7.300  0.2298 -0.0064 -0.0014
   16SAPS   C22 2021   1.062   1.027   7.311 -0.3502  0.1237  0.2697
   16SAPS   H2R 2022   1.171   1.034   7.327 -0.1951 -0.6611 -0.4212
   16SAPS   H2S 2023   1.022   1.084   7.224 -0.9165 -1.4177 -0.4895
   16SAPS    C3 2024   1.088   0.597   7.241 -0.1447  0.1035  0.5139
   16SAPS    HX 2025   1.014   0.603   7.323  0.6351 -0.1416  1.2472
   16SAPS    HY 2026   1.190   0.591   7.285 -0.5362  0.9338  1.5320
   16SAPS   O31 2027   1.081   0.481   7.159 -0.5244  1.0927  0.5088
   16SAPS   C31 2028   0.961   0.434   7.143 -0.5726  0.2472 -0.3104
   16SAPS   O32 2029   0.858   0.480   7.197 -0.2448 -0.0622  0.3310
   16SAPS   C32 2030   0.970   0.305   7.074 -0.0815  0.5669  0.1831
   16SAPS   H2X 2031   1.025   0.334   6.982 -2.2647  1.5343 -0.8324
   16SAPS   H2Y 2032   0.870   0.268   7.043  1.0564 -0.6988 -2.0622
   16SAPS   C23 2033   0.988   1.072   7.439  0.7072  0.1548  0.2795
   16SAPS   H3R 2034   1.037   1.031   7.529 -2.7763 -0.3117  2.0380
   16SAPS   H3S 2035   0.891   1.019   7.448  0.4650  0.7214  1.0611
   16SAPS   C24 2036   0.950   1.216   7.433 -0.0706 -0.4722 -0.6302
   16SAPS   H4R 2037   0.887   1.243   7.521  1.0873 -1.1603  0.4261
   16SAPS   H4S 2038   0.880   1.218   7.347  0.0159 -0.1774 -0.6928
   16SAPS   C25 2039   1.065   1.317   7.412 -0.7882  0.0839  0.5050
   16SAPS   H5R 2040   1.118   1.309   7.316 -1.0343  0.3436  0.3501
   16SAPS   C26 2041   1.101   1.406   7.505 -0.3107 -0.3725  0.2962
   16SAPS   H6R 2042   1.189   1.467   7.479  0.6857 -1.5005  0.9781
   16SAPS   C27 2043   1.031   1.433   7.638  0.0391  0.4142  0.9966
   16SAPS   H7R 2044   0.969   1.349   7.676  0.6812 -0.3657  0.3358
   16SAPS   H7S 2045   0.959   1.508   7.598  0.1367  1.2196  2.3073
   16SAPS   C28 2046   1.117   1.485   7.754  0.0329 -0.1999 -0.2713
   16SAPS   H8R 2047   1.193   1.557   7.720 -1.2798  1.7814  0.8551
   16SAPS   C29 2048   1.099   1.451   7.881 -0.1109 -0.1212  0.1382
   16SAPS   H9R 2049   1.158   1.499   7.960 -0.4271  0.3536  0.0870
   16SAPS  C210 2050   1.004   1.342   7.928 -0.3599 -0.1761  0.3262
   16SAPS  H10R 2051   1.005   1.261   7.851 -2.1801 -0.7472  0.8766
   16SAPS  H10S 2052   0.904   1.390   7.929  0.0317  0.7860 -2.4030
   16SAPS  C211 2053   1.030   1.281   8.066  0.5715 -0.1322  0.3645
   16SAPS  H11R 2054   1.125   1.312   8.111 -0.1958  0.7527  1.3812
   16SAPS  C212 2055   0.958   1.191   8.136  0.7343 -0.0428  0.9273
   16SAPS  H12R 2056   0.998   1.152   8.231  0.0679 -1.2507  0.7177
   16SAPS  C213 2057   0.823   1.134   8.096  0.1532 -0.1984 -0.5702
   16SAPS  H13R 2058   0.819   1.023   8.089 -5.4239 -0.1667 -0.6430
   16SAPS  H13S 2059   0.793   1.155   7.991  0.8405 -0.6977 -0.8683
   16SAPS  C214 2060   0.723   1.189   8.196  0.0192  0.7308 -0.0439
   16SAPS  H14R 2061   0.689   1.291   8.175 -0.5883  0.4547 -0.4373
   16SAPS  C215 2062   0.679   1.131   8.314  0.4212  0.1937 -0.2988
   16SAPS  H15R 2063   0.599   1.173   8.377  0.5794  0.1649 -0.0801
   16SAPS  C216 2064   0.710   0.990   8.364  0.4614  0.1465  0.6117
   16SAPS  H16R 2065   0.750   1.000   8.467 -0.5776  3.5160  0.7400
   16SAPS  H16S 2066   0.781   0.945   8.290  1.6032  3.5437 -0.4606
   16SAPS  C217 2067   0.586   0.890   8.371  0.1789  0.0547  0.2233
   16SAPS  H17R 2068   0.623   0.795   8.414  0.9508  1.2942  2.3350
   16SAPS  H17S 2069   0.546   0.862   8.270  1.8146 -0.4720 -0.2846
   16SAPS  C218 2070   0.469   0.940   8.460 -0.0112 -0.0732  0.3401
   16SAPS  H18R 2071   0.423   1.028   8.409 -0.1809 -0.2930  0.1102
   16SAPS  H18S 2072   0.509   0.984   8.554  1.4209  1.3930 -0.9054
   16SAPS  C219 2073   0.355   0.843   8.487  0.7736  0.1663 -0.0904
   16SAPS  H19R 2074   0.404   0.751   8.524 -2.4959 -1.3537  0.6183
   16SAPS  H19S 2075   0.312   0.826   8.386 -3.7433 -0.6994  1.8438
   16SAPS  C220 2076   0.253   0.898   8.586  0.4518  0.2658  0.7376
   16SAPS  H20R 2077   0.295   0.907   8.689 -3.2779 -0.6870  2.4280
   16SAPS  H20S 2078   0.158   0.841   8.597  0.4963  0.0753  0.1509
   16SAPS  H20T 2079   0.239   1.005   8.560  0.4422 -0.3356 -1.8773
   16SAPS   C33 2080   1.042   0.198   7.165  0.2404  0.7382 -0.4713
   16SAPS   H3X 2081   1.153   0.205   7.162  0.4833 -2.5653 -0.9683
   16SAPS   H3Y 2082   1.010   0.093   7.146 -0.1227  0.6218  0.7372
   16SAPS   C34 2083   1.001   0.217   7.316  0.5889  0.0170 -0.0725
   16SAPS   H4X 2084   0.893   0.239   7.331 -0.4661 -1.9346 -4.2323
   16SAPS   H4Y 2085   1.056   0.307   7.351 -0.8896  0.9004  0.0584
   16SAPS   C35 2086   1.045   0.097   7.393  0.3633  0.0786  0.3978
   16SAPS   H5X 2087   1.156   0.093   7.397  0.4750  1.4433 -1.1305
   16SAPS   H5Y 2088   1.008   0.002   7.349 -0.3786  0.7607 -0.4690
   16SAPS   C36 2089   1.001   0.088   7.539  0.8645 -0.5457 -0.5908
   16SAPS   H6X 2090   0.890   0.086   7.546  0.9469  1.1303  1.9497
   16SAPS   H6Y 2091   1.033   0.177   7.597  0.7761 -0.6050 -0.4505
   16SAPS   C37 2092   1.069  -0.039   7.605 -0.1716 -0.4399  0.5678
   16SAPS   H7X 2093   1.173  -0.048   7.567 -0.4646 -0.8452 -0.1458
   16SAPS   H7Y 2094   1.022  -0.133   7.569  1.9607 -0.9916 -0.8702
   16SAPS   C38 2095   1.053  -0.024   7.754 -0.5165  0.1662 -0.1037
   16SAPS   H8X 2096   0.945  -0.019   7.780 -0.3674 -2.3465  1.1680
   16SAPS   H8Y 2097   1.103   0.067   7.794 -1.9699  0.7569  0.4079
   16SAPS   C39 2098   1.117  -0.147   7.822 -0.7170 -0.7159  0.0826
   16SAPS   H9X 2099   1.225  -0.150   7.794 -0.6926  0.3892  0.0317
   16SAPS   H9Y 2100   1.078  -0.240   7.775 -0.7143 -1.1199  0.8838
   16SAPS  C310 2101   1.115  -0.150   7.972 -0.2737  0.0399 -0.1069
   16SAPS  H10X 2102   1.013  -0.176   8.007  0.2644  1.1055  2.4263
   16SAPS  H10Y 2103   1.128  -0.044   8.004 -0.1648 -0.1708  0.5619
   16SAPS  C311 2104   1.223  -0.235   8.046  0.0433 -0.1388  0.5738
   16SAPS  H11X 2105   1.326  -0.213   8.011 -0.0626 -0.3155  0.1460
   16SAPS  H11Y 2106   1.203  -0.341   8.018  1.3553 -0.4232  0.6737
   16SAPS  C312 2107   1.225  -0.229   8.203  0.0992  0.4892 -0.2594
   16SAPS  H12X 2108   1.129  -0.277   8.234  1.0544  1.0593  3.9122
   16SAPS  H12Y 2109   1.234  -0.123   8.234 -1.4122  0.6923 -0.4354
   16SAPS  C313 2110   1.352  -0.298   8.251  0.0994  0.3710 -0.2604
   16SAPS  H13X 2111   1.438  -0.242   8.209  1.2468  0.5114  2.1958
   16SAPS  H13Y 2112   1.344  -0.399   8.205  0.9419  1.2029 -2.2772
   16SAPS  C314 2113   1.373  -0.305   8.401 -0.0107  0.1602 -0.1035
   16SAPS  H14X 2114   1.451  -0.382   8.419 -0.7664 -0.1342  2.0839
   16SAPS  H14Y 2115   1.284  -0.347   8.452  0.3891  0.9342  1.2650
   16SAPS  C315 2116   1.400  -0.179   8.480  0.0569  0.1985 -0.4141
   16SAPS  H15X 2117   1.317  -0.106   8.470 -1.4101 -1.4033 -0.2721
   16SAPS  H15Y 2118   1.488  -0.126   8.439  0.1001  1.2383  1.0067
   16SAPS  C316 2119   1.412  -0.200   8.636 -0.6122 -0.5654 -0.3442
   16SAPS  H16X 2120   1.313  -0.232   8.674 -1.3690 -0.6906 -2.3680
   16SAPS  H16Y 2121   1.443  -0.109   8.693 -1.3025 -1.5827  1.7063
   16SAPS  C317 2122   1.517  -0.308   8.679 -0.4758 -1.0380 -0.0385
   16SAPS  H17X 2123   1.614  -0.277   8.635 -1.4622  1.7660 -0.3781
   16SAPS  H17Y 2124   1.479  -0.410   8.658 -0.3236 -1.3242  1.0107
   16SAPS  C318 2125   1.549  -0.292   8.834  0.2236  0.1747  0.2678
   16SAPS  H18X 2126   1.546  -0.189   8.876 -0.4971  0.6157 -0.8463
   16SAPS  H18Y 2127   1.650  -0.330   8.861  0.0293 -0.4119  0.1686
   16SAPS  H18Z 2128   1.473  -0.341   8.898  0.3587  0.7569  0.8860
   17SAPC     N 2129   5.606   3.967  10.172 -0.1264  0.3345 -0.4377
   17SAPC   C12 2130   5.725   3.906  10.093 -0.2815 -1.2979 -0.1049
   17SAPC  H12A 2131   5.801   3.980  10.071 -0.3569 -0.9514  0.7988
   17SAPC  H12B 2132   5.681   3.877   9.999  0.5092  1.7229 -1.4696
   17SAPC   C13 2133   5.523   4.058  10.083  0.3724 -0.5321 -0.3020
   17SAPC  H13A 2134   5.498   4.012   9.989  0.3621  0.0447 -0.5811
   17SAPC  H13B 2135   5.431   4.089  10.130  1.4224  2.1030  0.1218
   17SAPC  H13C 2136   5.584   4.146  10.069 -0.1395  0.2011  1.7943
   17SAPC   C14 2137   5.506   3.860  10.222  0.7042  0.0621 -0.1408
   17SAPC  H14A 2138   5.537   3.812  10.314  1.8532  0.4545 -0.3139
   17SAPC  H14B 2139   5.413   3.911  10.243  0.1574 -2.0864  3.0437
   17SAPC  H14C 2140   5.477   3.793  10.143 -0.9683  0.1078  0.4231
   17SAPC   C15 2141   5.659   4.054  10.280  0.0668  0.1362 -0.1463
   17SAPC  H15A 2142   5.734   3.995  10.330 -0.5284  0.2727  0.9202
   17SAPC  H15B 2143   5.699   4.145  10.238 -1.2325  0.8504  0.1467
   17SAPC  H15C 2144   5.581   4.082  10.348 -1.6533 -0.1450 -1.9586
   17SAPC   C11 2145   5.794   3.785  10.168 -0.4887  0.4107 -0.0766
   17SAPC  H11A 2146   5.823   3.722  10.081  1.8974  0.9479  0.2907
   17SAPC  H11B 2147   5.714   3.727  10.219 -0.7569 -0.1142 -1.0787
   17SAPC     P 2148   6.028   3.882  10.217 -0.0127  0.0372  0.1894
   17SAPC   O13 2149   5.991   4.006  10.148  0.3958 -0.1364 -0.3175
   17SAPC   O14 2150   6.120   3.890  10.329 -0.1964 -0.0327 -0.4122
   17SAPC   O12 2151   5.896   3.820  10.265  0.1737  0.4804  0.0974
   17SAPC   O11 2152   6.063   3.773  10.102  0.2348  0.1095  0.5058
   17SAPC    C1 2153   6.172   3.793  10.015  0.2961 -0.0669 -0.3599
   17SAPC    HA 2154   6.233   3.886  10.021 -2.4735  1.6697  3.3418
   17SAPC    HB 2155   6.239   3.708  10.040 -0.6219 -1.1977 -1.6550
   17SAPC    C2 2156   6.132   3.769   9.872 -0.3908  0.6510  0.1972
   17SAPC    HS 2157   6.210   3.710   9.819 -0.6055 -2.6930  3.3840
   17SAPC   O21 2158   6.115   3.902   9.816 -0.0926 -0.2228 -0.1355
   17SAPC   C21 2159   6.217   3.956   9.757 -0.6412  0.1629 -0.3665
   17SAPC   O22 2160   6.318   3.902   9.726 -0.1984  0.0148  0.4912
   17SAPC   C22 2161   6.189   4.103   9.712  0.2198  0.3483  0.1010
   17SAPC   H2R 2162   6.197   4.164   9.804  0.5822  0.0173  0.2923
   17SAPC   H2S 2163   6.264   4.141   9.639  0.9357 -1.6127 -0.2204
   17SAPC    C3 2164   6.003   3.678   9.850  0.6298 -0.2224  0.4118
   17SAPC    HX 2165   5.911   3.732   9.879  0.2587 -0.7666  0.2687
   17SAPC    HY 2166   6.014   3.599   9.929 -0.5131 -1.7323 -0.9064
   17SAPC   O31 2167   6.000   3.625   9.720  0.2137  0.5941 -0.2426
   17SAPC   C31 2168   5.891   3.548   9.703 -0.6765 -0.7418 -0.8355
   17SAPC   O32 2169   5.807   3.514   9.785 -0.2998 -0.2697 -0.6194
   17SAPC   C32 2170   5.896   3.516   9.554 -0.1140 -0.0166 -0.4720
   17SAPC   H2X 2171   5.989   3.460   9.530  0.5418  1.4153 -1.3515
   17SAPC   H2Y 2172   5.891   3.607   9.489 -0.5068 -1.6823 -2.8208
   17SAPC   C23 2173   6.043   4.130   9.652 -0.1866 -0.0550 -0.4658
   17SAPC   H3R 2174   6.034   4.241   9.648 -2.2462 -0.1536  0.8075
   17SAPC   H3S 2175   5.970   4.085   9.722  1.2360 -0.4596  0.8063
   17SAPC   C24 2176   6.019   4.055   9.517  0.3816 -0.0076 -0.5142
   17SAPC   H4R 2177   5.917   4.074   9.477 -0.3541 -0.4290  1.0913
   17SAPC   H4S 2178   6.032   3.947   9.540  0.1761  0.2827  1.0369
   17SAPC   C25 2179   6.121   4.095   9.423 -0.7856  0.0286  0.6460
   17SAPC   H5R 2180   6.209   4.029   9.425  0.3010  1.4489  0.4475
   17SAPC   C26 2181   6.099   4.189   9.324 -0.2133  0.8976  0.5287
   17SAPC   H6R 2182   6.185   4.204   9.257 -1.0902  0.7531 -0.6482
   17SAPC   C27 2183   5.975   4.276   9.302 -0.0522 -0.4643 -0.4151
   17SAPC   H7R 2184   5.916   4.294   9.394 -0.6612  2.9330 -1.4106
   17SAPC   H7S 2185   5.919   4.215   9.228 -2.7633  1.9495 -0.4543
   17SAPC   C28 2186   6.012   4.411   9.242  0.0443  0.3356  0.4855
   17SAPC   H8R 2187   6.034   4.486   9.320 -1.6500  1.9262 -0.5536
   17SAPC   C29 2188   6.015   4.438   9.108 -0.0327  0.2376 -0.1760
   17SAPC   H9R 2189   6.030   4.546   9.091  1.5211  0.3522  1.7216
   17SAPC  C210 2190   5.994   4.337   8.996 -0.2155 -0.3232 -0.1031
   17SAPC  H10R 2191   6.018   4.230   9.015 -0.9715 -0.5149 -0.2318
   17SAPC  H10S 2192   6.068   4.359   8.915 -1.5227 -0.3521 -1.3230
   17SAPC  C211 2193   5.860   4.366   8.949  0.3497  0.4417  0.6264
   17SAPC  H11R 2194   5.789   4.285   8.972  0.4373  0.3105  0.4349
   17SAPC  C212 2195   5.811   4.471   8.871  0.4101  0.2433  0.0849
   17SAPC  H12R 2196   5.708   4.476   8.834  0.4170 -1.4997 -0.1941
   17SAPC  C213 2197   5.901   4.582   8.829  0.0449  0.4854 -0.3710
   17SAPC  H13R 2198   5.957   4.625   8.915 -0.1913 -1.7995  0.9478
   17SAPC  H13S 2199   5.838   4.672   8.810  1.8038  1.9307  0.4782
   17SAPC  C214 2200   5.987   4.544   8.708  0.2755 -0.0297 -0.1308
   17SAPC  H14R 2201   6.010   4.437   8.696 -0.9686 -0.3028 -0.1108
   17SAPC  C215 2202   6.038   4.626   8.612  0.4964 -0.0129 -0.4175
   17SAPC  H15R 2203   6.112   4.584   8.542  1.8154 -0.8156  1.4138
   17SAPC  C216 2204   6.023   4.776   8.598  0.1077 -0.2225 -0.1043
   17SAPC  H16R 2205   5.930   4.806   8.651 -1.3477 -2.3946 -1.3705
   17SAPC  H16S 2206   6.004   4.804   8.492  1.2497 -1.2389 -0.5932
   17SAPC  C217 2207   6.144   4.860   8.647 -1.2407  0.0912  0.3703
   17SAPC  H17R 2208   6.178   4.809   8.739 -2.7810 -1.2695  0.2196
   17SAPC  H17S 2209   6.110   4.963   8.671 -0.1571  0.6616 -0.4907
   17SAPC  C218 2210   6.261   4.871   8.543  0.4649  0.4552 -0.6413
   17SAPC  H18R 2211   6.275   4.764   8.517 -1.1729  0.0391  0.1259
   17SAPC  H18S 2212   6.352   4.914   8.590 -0.4829  0.8812  0.8646
   17SAPC  C219 2213   6.233   4.949   8.412  0.6750 -0.3641  0.3739
   17SAPC  H19R 2214   6.149   4.902   8.357 -0.4180  0.8426  0.9904
   17SAPC  H19S 2215   6.314   4.931   8.338 -0.2299 -0.8440 -0.5132
   17SAPC  C220 2216   6.217   5.098   8.450 -1.0713 -0.5693  0.1526
   17SAPC  H20R 2217   6.112   5.129   8.473 -1.0892 -0.5547  0.0510
   17SAPC  H20S 2218   6.251   5.153   8.360  0.1877  0.1756  1.0663
   17SAPC  H20T 2219   6.287   5.127   8.532 -0.4893  2.7846 -1.4736
   17SAPC   C33 2220   5.757   3.445   9.518  0.4450  0.1099  0.5090
   17SAPC   H3X 2221   5.665   3.505   9.533 -0.3642 -1.1157  0.4254
   17SAPC   H3Y 2222   5.735   3.358   9.584 -0.8081 -0.5264 -0.7279
   17SAPC   C34 2223   5.764   3.403   9.376  0.1462  0.9041  0.7808
   17SAPC   H4X 2224   5.803   3.478   9.305  0.8922 -0.3573 -0.1699
   17SAPC   H4Y 2225   5.661   3.370   9.352  0.1259  0.0855  1.9169
   17SAPC   C35 2226   5.857   3.276   9.365  0.2026  0.5183 -0.6223
   17SAPC   H5X 2227   5.810   3.203   9.434 -2.9369  2.4918 -0.5586
   17SAPC   H5Y 2228   5.959   3.308   9.395  0.7906 -1.1677 -0.8054
   17SAPC   C36 2229   5.869   3.234   9.225 -0.7026 -0.5841  1.2024
   17SAPC   H6X 2230   5.912   3.321   9.172  1.0792 -2.4434 -0.5301
   17SAPC   H6Y 2231   5.787   3.179   9.174 -1.1996 -0.7648  2.1844
   17SAPC   C37 2232   5.981   3.130   9.216  0.2701 -0.1314  0.5626
   17SAPC   H7X 2233   6.070   3.152   9.279  0.9867 -1.7123  0.1306
   17SAPC   H7Y 2234   6.020   3.124   9.112  1.0000 -0.0274  0.8302
   17SAPC   C38 2235   5.933   2.992   9.250  0.0676 -0.5389 -0.1496
   17SAPC   H8X 2236   5.847   2.969   9.184 -1.2690  1.6319  0.7981
   17SAPC   H8Y 2237   5.901   3.000   9.356  1.4635  2.4089  0.1039
   17SAPC   C39 2238   6.035   2.886   9.231 -0.6522 -0.1627 -0.3835
   17SAPC   H9X 2239   5.990   2.787   9.254 -0.9691  0.2986  1.0114
   17SAPC   H9Y 2240   6.106   2.911   9.313 -2.5542  0.3450  1.1449
   17SAPC  C310 2241   6.109   2.881   9.101 -0.0745  0.5109 -0.4023
   17SAPC  H10X 2242   6.155   2.981   9.089 -1.8464  1.3705 -0.3188
   17SAPC  H10Y 2243   6.028   2.864   9.026  0.1696  0.3167 -0.6190
   17SAPC  C311 2244   6.212   2.769   9.084  0.3335  0.5494 -0.0345
   17SAPC  H11X 2245   6.189   2.675   9.137 -2.1256 -0.7530 -3.2060
   17SAPC  H11Y 2246   6.310   2.808   9.118  1.7751 -0.4416 -2.9097
   17SAPC  C312 2247   6.226   2.719   8.938 -0.3500  0.6050 -0.7829
   17SAPC  H12X 2248   6.227   2.806   8.868  0.2221  0.3537 -1.0880
   17SAPC  H12Y 2249   6.137   2.657   8.912 -0.2988  1.3250 -2.8244
   17SAPC  C313 2250   6.348   2.623   8.916 -0.2769  0.3772  0.1511
   17SAPC  H13X 2251   6.350   2.540   8.990  0.4959  1.8131  1.7746
   17SAPC  H13Y 2252   6.438   2.680   8.948 -0.5149  0.6117  0.4073
   17SAPC  C314 2253   6.365   2.569   8.775 -0.2934 -0.1861 -0.4060
   17SAPC  H14X 2254   6.396   2.647   8.703 -1.4762  1.7670  1.1245
   17SAPC  H14Y 2255   6.269   2.532   8.733 -0.0091 -2.3370  0.7592
   17SAPC  C315 2256   6.481   2.466   8.770  0.2309 -0.2743 -0.2394
   17SAPC  H15X 2257   6.450   2.370   8.817 -1.6134 -0.4894 -1.8066
   17SAPC  H15Y 2258   6.575   2.493   8.823 -1.0777  0.0227  1.9697
   17SAPC  C316 2259   6.533   2.450   8.629  0.1580 -0.1169  0.3821
   17SAPC  H16X 2260   6.560   2.550   8.588  0.0007 -0.5270 -0.7343
   17SAPC  H16Y 2261   6.461   2.402   8.559  0.4577 -0.3050  0.2025
   17SAPC  C317 2262   6.670   2.379   8.632 -0.7686 -0.0668 -0.3619
   17SAPC  H17X 2263   6.748   2.447   8.672 -2.9177  1.4612  1.3825
   17SAPC  H17Y 2264   6.704   2.365   8.528 -1.1694 -2.1291 -0.2408
   17SAPC  C318 2265   6.670   2.245   8.701  0.0172  0.7692  0.2018
   17SAPC  H18X 2266   6.757   2.182   8.672  1.1253  1.8205  1.2408
   17SAPC  H18Y 2267   6.675   2.258   8.811 -0.4806  0.4045  0.2680
   17SAPC  H18Z 2268   6.581   2.179   8.688  1.6537 -1.4607 -0.1633
   18SAPC     N 2269   6.392   3.834  11.154 -0.4356 -0.4088 -0.9003
   18SAPC   C12 2270   6.424   3.698  11.099  0.3137 -0.5567  0.1640
   18SAPC  H12A 2271   6.336   3.642  11.073 -0.7094  1.4069 -0.7170
   18SAPC  H12B 2272   6.475   3.641  11.175  1.1407 -1.0424 -0.7392
   18SAPC   C13 2273   6.510   3.908  11.207  0.1885  0.3336 -0.0341
   18SAPC  H13A 2274   6.588   3.918  11.134  0.6304  0.1805  0.4202
   18SAPC  H13B 2275   6.483   4.011  11.227  1.6544  0.5356  0.9311
   18SAPC  H13C 2276   6.559   3.854  11.287 -1.4801  0.0276  0.8131
   18SAPC   C14 2277   6.313   3.913  11.051 -0.0800 -0.3686 -0.0391
   18SAPC  H14A 2278   6.384   3.942  10.975  2.8407  0.0064  2.7655
   18SAPC  H14B 2279   6.237   3.858  10.998 -1.4782  0.2386  1.3007
   18SAPC  H14C 2280   6.270   3.999  11.101  1.8030 -0.0870  1.1132
   18SAPC   C15 2281   6.294   3.824  11.275  0.5940  0.2765 -0.4320
   18SAPC  H15A 2282   6.280   3.925  11.308 -0.8015 -0.1186  0.1986
   18SAPC  H15B 2283   6.197   3.779  11.260  1.5339 -2.3876  1.0845
   18SAPC  H15C 2284   6.338   3.768  11.356  0.2225 -0.5996 -0.8308
   18SAPC   C11 2285   6.511   3.686  10.969  0.5718 -0.3640  0.4860
   18SAPC  H11A 2286   6.540   3.580  10.955 -2.9825 -1.1809 -1.2473
   18SAPC  H11B 2287   6.604   3.744  10.990 -0.3799  1.0515  0.8836
   18SAPC     P 2288   6.348   3.662  10.772  0.6785  0.7794  0.0924
   18SAPC   O13 2289   6.273   3.565  10.853 -0.3274  0.2185 -0.0398
   18SAPC   O14 2290   6.270   3.757  10.690  0.5577 -0.4050  0.4163
   18SAPC   O12 2291   6.458   3.750  10.850 -0.4042  0.4895 -0.3801
   18SAPC   O11 2292   6.441   3.577  10.686  0.4584 -0.1112  0.0047
   18SAPC    C1 2293   6.526   3.648  10.590 -0.1133 -0.4571  0.3383
   18SAPC    HA 2294   6.528   3.758  10.607 -0.8800 -0.0219 -2.1721
   18SAPC    HB 2295   6.628   3.604  10.590  0.5124  0.9889  1.1017
   18SAPC    C2 2296   6.472   3.631  10.440 -0.4428 -0.4449 -0.5106
   18SAPC    HS 2297   6.368   3.672  10.440 -0.9760 -1.5677  3.4634
   18SAPC   O21 2298   6.466   3.490  10.405  0.3341 -0.1153  0.5082
   18SAPC   C21 2299   6.377   3.461  10.303  0.5995  0.3209  0.0830
   18SAPC   O22 2300   6.303   3.547  10.260  0.2345  0.1751  0.3949
   18SAPC   C22 2301   6.376   3.316  10.263 -0.8254  0.1201 -0.1485
   18SAPC   H2R 2302   6.445   3.260  10.330 -1.0578  0.4538  0.3734
   18SAPC   H2S 2303   6.271   3.282  10.271 -0.9380  0.0466 -1.8949
   18SAPC    C3 2304   6.557   3.705  10.333  0.3447  0.7620  0.5441
   18SAPC    HX 2305   6.597   3.802  10.370 -1.4201  1.7565 -0.0830
   18SAPC    HY 2306   6.509   3.739  10.239 -0.0701 -1.6912 -0.1645
   18SAPC   O31 2307   6.679   3.619  10.305  0.4796  0.3032 -0.1150
   18SAPC   C31 2308   6.782   3.678  10.241  0.8845 -0.3706  0.4400
   18SAPC   O32 2309   6.778   3.793  10.200 -0.3025 -0.0139 -0.0365
   18SAPC   C32 2310   6.891   3.576  10.215  0.4892 -0.1755  0.2066
   18SAPC   H2X 2311   6.848   3.478  10.184 -1.3351  0.9258 -0.8701
   18SAPC   H2Y 2312   6.941   3.563  10.313  2.0460 -0.3056 -0.5889
   18SAPC   C23 2313   6.407   3.257  10.115 -0.4078 -0.1012  0.4040
   18SAPC   H3R 2314   6.328   3.294  10.047  0.4403  0.3104 -0.3659
   18SAPC   H3S 2315   6.397   3.147  10.126  0.1453 -0.0561  1.4899
   18SAPC   C24 2316   6.558   3.280  10.073 -0.6079  0.7255 -0.6039
   18SAPC   H4R 2317   6.580   3.207   9.992 -4.8373 -1.8152  0.4207
   18SAPC   H4S 2318   6.615   3.250  10.164  1.1494 -0.3732 -2.0213
   18SAPC   C25 2319   6.594   3.421  10.025 -0.3932  0.5447  0.6488
   18SAPC   H5R 2320   6.628   3.485  10.108 -1.5213 -0.1150  1.6388
   18SAPC   C26 2321   6.586   3.462   9.894 -0.6460  0.9239 -0.4297
   18SAPC   H6R 2322   6.591   3.572   9.891 -1.1620  0.9952  0.9539
   18SAPC   C27 2323   6.537   3.387   9.772 -0.3741  0.2259  0.2744
   18SAPC   H7R 2324   6.435   3.412   9.735 -0.6575  1.5798  1.8906
   18SAPC   H7S 2325   6.535   3.278   9.794  1.8990 -0.2865 -1.8081
   18SAPC   C28 2326   6.644   3.416   9.666 -0.1615  0.7207  0.4381
   18SAPC   H8R 2327   6.747   3.394   9.694 -1.4647 -0.1664  4.9284
   18SAPC   C29 2328   6.632   3.474   9.545  0.4814 -0.4164  0.1343
   18SAPC   H9R 2329   6.720   3.476   9.479  0.5856 -1.2617  0.2491
   18SAPC  C210 2330   6.508   3.529   9.473  0.2327  0.4157  0.6061
   18SAPC  H10R 2331   6.453   3.454   9.412  0.0121  1.1413 -0.0940
   18SAPC  H10S 2332   6.540   3.608   9.402 -1.8893  1.2747  0.5733
   18SAPC  C211 2333   6.414   3.618   9.554  0.3819 -0.0935 -0.5064
   18SAPC  H11R 2334   6.458   3.655   9.647 -0.2465  1.0834 -0.6680
   18SAPC  C212 2335   6.285   3.653   9.526 -1.4362 -0.4752  0.4511
   18SAPC  H12R 2336   6.220   3.708   9.594 -0.9186 -0.4733  0.9498
   18SAPC  C213 2337   6.227   3.623   9.393 -0.2183  0.4860  0.7317
   18SAPC  H13R 2338   6.139   3.556   9.399  1.4762 -1.7793  1.0303
   18SAPC  H13S 2339   6.284   3.545   9.339  0.6226  2.3402 -1.1347
   18SAPC  C214 2340   6.209   3.746   9.305 -0.0804 -0.0141 -0.2873
   18SAPC  H14R 2341   6.294   3.815   9.313  0.7120 -0.8387 -1.4053
   18SAPC  C215 2342   6.105   3.767   9.218  0.6542 -0.6813  0.0486
   18SAPC  H15R 2343   6.107   3.865   9.169  1.2420 -1.4218 -1.4538
   18SAPC  C216 2344   5.986   3.679   9.181 -0.6013 -1.1279 -0.1690
   18SAPC  H16R 2345   5.894   3.742   9.182  0.9964  1.2422 -0.1936
   18SAPC  H16S 2346   5.978   3.608   9.266  0.2825  0.3192  1.1342
   18SAPC  C217 2347   6.009   3.612   9.050 -0.4167 -0.4165 -0.4972
   18SAPC  H17R 2348   6.079   3.526   9.063 -1.7020 -1.2188  1.3950
   18SAPC  H17S 2349   6.048   3.685   8.976 -3.5259  1.6304 -0.1878
   18SAPC  C218 2350   5.886   3.562   8.976  0.0896 -0.3156 -0.0908
   18SAPC  H18R 2351   5.836   3.488   9.043 -0.2564  0.8288  0.9342
   18SAPC  H18S 2352   5.907   3.496   8.889  1.2092  0.9839 -0.8174
   18SAPC  C219 2353   5.785   3.675   8.938 -0.3753 -0.0824  0.0101
   18SAPC  H19R 2354   5.844   3.759   8.894 -0.3452 -0.1816 -0.1400
   18SAPC  H19S 2355   5.738   3.715   9.030  0.0556 -3.0698  1.6091
   18SAPC  C220 2356   5.670   3.628   8.844 -0.1967  0.3473 -0.1407
   18SAPC  H20R 2357   5.603   3.560   8.900 -1.0763  1.4320  0.1131
   18SAPC  H20S 2358   5.698   3.565   8.756 -1.0455 -0.1371 -0.0707
   18SAPC  H20T 2359   5.609   3.715   8.812  0.1379  0.2683 -1.0330
   18SAPC   C33 2360   6.984   3.635  10.119 -0.5387 -0.1231 -0.6382
   18SAPC   H3X 2361   7.082   3.583  10.130 -1.6747 -2.6046 -1.9544
   18SAPC   H3Y 2362   7.003   3.744  10.134  0.7244 -0.4224  0.0305
   18SAPC   C34 2363   6.944   3.609   9.980  0.1704  0.0449 -0.0784
   18SAPC   H4X 2364   6.842   3.655   9.976 -0.3189 -0.8068  1.7696
   18SAPC   H4Y 2365   6.936   3.501   9.956  1.1680 -0.7686  3.0523
   18SAPC   C35 2366   7.038   3.669   9.876 -0.8328 -0.4627  0.8726
   18SAPC   H5X 2367   7.139   3.622   9.877 -0.4375  0.3640  0.3724
   18SAPC   H5Y 2368   7.062   3.776   9.892  2.4332 -1.3310  2.0385
   18SAPC   C36 2369   6.961   3.663   9.739 -0.3167  0.8856  0.0748
   18SAPC   H6X 2370   6.869   3.725   9.732  0.0439  1.3174 -0.8545
   18SAPC   H6Y 2371   6.924   3.558   9.733  1.1232  0.3739 -0.0688
   18SAPC   C37 2372   7.053   3.693   9.622 -0.2593  0.1193 -0.2648
   18SAPC   H7X 2373   7.154   3.647   9.631  0.5478  1.8624 -0.3256
   18SAPC   H7Y 2374   7.056   3.803   9.610  0.9593  0.2731  1.2964
   18SAPC   C38 2375   6.992   3.645   9.489  0.1636  0.2193 -1.0030
   18SAPC   H8X 2376   6.882   3.646   9.507  0.4529 -3.6584  1.7935
   18SAPC   H8Y 2377   7.011   3.538   9.465 -1.5607  0.4300 -3.3939
   18SAPC   C39 2378   7.027   3.728   9.360  0.4399 -0.3256  0.0962
   18SAPC   H9X 2379   7.135   3.741   9.339  0.4858 -1.2046 -0.2485
   18SAPC   H9Y 2380   6.986   3.831   9.358  0.7031 -0.2163  0.4048
   18SAPC  C310 2381   6.975   3.658   9.240 -0.0725  0.1905  0.0508
   18SAPC  H10X 2382   7.018   3.556   9.243 -0.9365 -0.1966 -0.5064
   18SAPC  H10Y 2383   7.020   3.695   9.145 -0.3383  0.1376 -0.0980
   18SAPC  C311 2384   6.825   3.641   9.229  0.0224 -0.5099 -0.6344
   18SAPC  H11X 2385   6.780   3.742   9.223  0.6386 -0.2753 -1.2519
   18SAPC  H11Y 2386   6.774   3.599   9.319  0.1166 -0.2837 -0.4754
   18SAPC  C312 2387   6.769   3.571   9.103 -0.1511  0.1870  0.4050
   18SAPC  H12X 2388   6.799   3.464   9.105  1.4068  0.6100 -0.0342
   18SAPC  H12Y 2389   6.814   3.611   9.010  0.2561 -0.4029  0.3484
   18SAPC  C313 2390   6.614   3.579   9.104  0.4114  0.0610  0.1097
   18SAPC  H13X 2391   6.586   3.683   9.131 -0.8597 -0.5627  1.2749
   18SAPC  H13Y 2392   6.589   3.508   9.185 -1.7565  1.5925  0.8408
   18SAPC  C314 2393   6.539   3.527   8.985  0.4688 -0.3582  0.7091
   18SAPC  H14X 2394   6.554   3.422   8.952 -3.2039 -0.7947  0.1946
   18SAPC  H14Y 2395   6.571   3.582   8.895 -2.9866 -2.2893 -1.8352
   18SAPC  C315 2396   6.391   3.555   9.013 -0.5776 -0.4585 -0.2070
   18SAPC  H15X 2397   6.386   3.653   9.066 -1.4547 -1.8139  2.3217
   18SAPC  H15Y 2398   6.349   3.474   9.078  2.3762  0.1184  2.5505
   18SAPC  C316 2399   6.321   3.562   8.879  0.0342  0.0081 -0.7906
   18SAPC  H16X 2400   6.382   3.628   8.814  0.1703  0.8231  0.1485
   18SAPC  H16Y 2401   6.223   3.612   8.893  0.6105  1.1171 -0.6444
   18SAPC  C317 2402   6.304   3.426   8.803  0.0078 -0.3481 -0.2415
   18SAPC  H17X 2403   6.240   3.350   8.853  0.0827  0.8315  1.7023
   18SAPC  H17Y 2404   6.403   3.378   8.790 -0.5064 -1.3672 -0.5170
   18SAPC  C318 2405   6.265   3.449   8.656 -0.3414  0.5198  0.0277
   18SAPC  H18X 2406   6.325   3.379   8.594 -1.2073 -0.1220 -0.1136
   18SAPC  H18Y 2407   6.296   3.553   8.633 -0.4655  0.6527  0.4574
   18SAPC  H18Z 2408   6.156   3.433   8.637 -0.1985  1.0846 -1.2724
   19SAPC     N 2409   5.966   4.304  10.435 -0.0646 -0.2286  0.2974
   19SAPC   C12 2410   5.993   4.455  10.443 -0.5019 -0.3170 -0.1104
   19SAPC  H12A 2411   6.079   4.467  10.379 -0.0468  0.4263  0.6302
   19SAPC  H12B 2412   6.024   4.480  10.544 -1.1640  2.2322 -0.4992
   19SAPC   C13 2413   5.946   4.261  10.291  0.2901 -0.2632  0.1304
   19SAPC  H13A 2414   6.041   4.267  10.240 -0.2602 -2.1267 -1.1779
   19SAPC  H13B 2415   5.929   4.154  10.289  1.4599 -0.4373 -1.7052
   19SAPC  H13C 2416   5.875   4.324  10.239  0.7744  0.2258  0.0639
   19SAPC   C14 2417   6.092   4.226  10.468  0.9713 -0.8071  0.3491
   19SAPC  H14A 2418   6.063   4.122  10.459  1.6076 -1.0992  1.5557
   19SAPC  H14B 2419   6.174   4.234  10.398 -0.0187 -1.2325 -0.8789
   19SAPC  H14C 2420   6.130   4.249  10.567  0.6338  4.2604 -0.5652
   19SAPC   C15 2421   5.848   4.270  10.517  0.2627 -0.3261 -0.0273
   19SAPC  H15A 2422   5.809   4.170  10.505  2.6445 -1.3797  0.6784
   19SAPC  H15B 2423   5.882   4.274  10.620  0.2932  0.1306 -0.0514
   19SAPC  H15C 2424   5.764   4.337  10.506  1.4661  1.4483  1.3036
   19SAPC   C11 2425   5.881   4.547  10.393 -0.2637 -0.4745  0.1411
   19SAPC  H11A 2426   5.829   4.500  10.307  0.4994 -2.8862  0.9803
   19SAPC  H11B 2427   5.928   4.646  10.374 -1.0715 -0.5428 -2.3271
   19SAPC     P 2428   5.634   4.592  10.454  0.0306  0.0298 -0.2329
   19SAPC   O13 2429   5.570   4.461  10.443 -0.0719  0.1632 -0.3779
   19SAPC   O14 2430   5.584   4.689  10.557  0.6163 -0.1935 -0.2801
   19SAPC   O12 2431   5.783   4.568  10.498  0.3598 -0.1616 -0.7134
   19SAPC   O11 2432   5.634   4.663  10.308  0.1972  0.1616  0.4584
   19SAPC    C1 2433   5.504   4.692  10.246 -0.0779  0.3672 -0.1714
   19SAPC    HA 2434   5.469   4.611  10.178 -2.4959  2.2561 -1.2415
   19SAPC    HB 2435   5.419   4.724  10.309 -0.0010 -0.3061  0.2837
   19SAPC    C2 2436   5.525   4.828  10.161  0.1641 -0.3840 -0.2366
   19SAPC    HS 2437   5.570   4.905  10.227  0.0008 -0.9057  0.4852
   19SAPC   O21 2438   5.395   4.886  10.120 -0.7208 -0.4574  0.4005
   19SAPC   C21 2439   5.332   4.959  10.222  0.1294  0.3253 -0.0172
   19SAPC   O22 2440   5.373   4.964  10.333 -0.3972  0.1257  0.0971
   19SAPC   C22 2441   5.201   5.015  10.170 -0.1752 -0.1526  0.2879
   19SAPC   H2R 2442   5.122   4.960  10.224 -2.3903  2.3509 -0.3094
   19SAPC   H2S 2443   5.195   5.124  10.193  1.2563  0.3364 -1.5463
   19SAPC    C3 2444   5.625   4.798  10.048  0.2902  0.6724  0.2558
   19SAPC    HX 2445   5.579   4.735   9.968  2.5531  1.3795 -1.6671
   19SAPC    HY 2446   5.709   4.740  10.091  0.3359  0.5833  0.0497
   19SAPC   O31 2447   5.667   4.926   9.981  0.9274  0.5100  1.3392
   19SAPC   C31 2448   5.775   4.983  10.015 -0.2743 -0.5714 -0.0276
   19SAPC   O32 2449   5.824   4.981  10.126 -0.0221  0.2549  0.4091
   19SAPC   C32 2450   5.836   5.054   9.904 -0.5337  0.3785 -0.3451
   19SAPC   H2X 2451   5.754   5.105   9.849 -1.5791  0.7986  1.5865
   19SAPC   H2Y 2452   5.870   4.972   9.838 -0.7894 -0.8092  0.9855
   19SAPC   C23 2453   5.185   5.007  10.015  0.7702 -0.6210  0.0555
   19SAPC   H3R 2454   5.157   4.903   9.991  0.1231 -0.6561  0.9256
   19SAPC   H3S 2455   5.280   5.040   9.967 -0.0112  0.6791 -0.6392
   19SAPC   C24 2456   5.061   5.100   9.965 -0.0592  0.2688  0.1829
   19SAPC   H4R 2457   5.076   5.098   9.855 -1.1104 -1.7768  0.0421
   19SAPC   H4S 2458   5.077   5.205   9.997 -0.1772 -0.1511  1.6719
   19SAPC   C25 2459   4.927   5.042   9.998  0.2359  0.7496 -0.5193
   19SAPC   H5R 2460   4.906   5.013  10.102 -0.3050  3.4691  0.1561
   19SAPC   C26 2461   4.829   5.024   9.912 -0.1019 -0.6091  0.2630
   19SAPC   H6R 2462   4.750   4.957   9.949 -0.0433 -0.4271  0.7184
   19SAPC   C27 2463   4.838   5.061   9.767 -0.1114  0.2413  0.8788
   19SAPC   H7R 2464   4.903   5.145   9.735 -0.4881 -0.3298 -1.5165
   19SAPC   H7S 2465   4.743   5.111   9.741 -0.0858  0.0559  0.4195
   19SAPC   C28 2466   4.881   4.946   9.677  0.1087  0.8925  0.1398
   19SAPC   H8R 2467   4.975   4.896   9.702 -2.0161 -2.5228  1.6369
   19SAPC   C29 2468   4.829   4.908   9.555 -0.1261 -0.2806  0.6638
   19SAPC   H9R 2469   4.865   4.815   9.508  1.4632 -0.3587  1.9698
   19SAPC  C210 2470   4.704   4.958   9.483 -0.4918  0.2509  0.3966
   19SAPC  H10R 2471   4.691   5.063   9.517 -0.4803  0.5251 -0.4378
   19SAPC  H10S 2472   4.624   4.898   9.531 -1.2882  0.1619 -1.0379
   19SAPC  C211 2473   4.713   4.952   9.333 -0.1440 -0.4298  0.0411
   19SAPC  H11R 2474   4.747   5.044   9.283  0.1816  0.1277  1.2714
   19SAPC  C212 2475   4.684   4.844   9.247  0.3259  0.7580 -0.2994
   19SAPC  H12R 2476   4.686   4.859   9.138 -3.9795 -1.4679 -0.8005
   19SAPC  C213 2477   4.624   4.717   9.294  0.2768 -0.2342  0.8409
   19SAPC  H13R 2478   4.612   4.716   9.404 -2.5792  3.8035  0.6899
   19SAPC  H13S 2479   4.700   4.639   9.277 -1.1645 -1.4314 -0.2614
   19SAPC  C214 2480   4.494   4.669   9.233 -0.4712 -0.2620  0.3301
   19SAPC  H14R 2481   4.403   4.691   9.291 -1.3195  1.7542 -1.6869
   19SAPC  C215 2482   4.472   4.618   9.110  0.1817 -0.0343 -1.2480
   19SAPC  H15R 2483   4.373   4.575   9.087  0.0840 -0.8330  0.5549
   19SAPC  C216 2484   4.573   4.602   9.002 -0.4132 -0.5751  0.6618
   19SAPC  H16R 2485   4.674   4.578   9.043  0.5545  2.6606  0.3488
   19SAPC  H16S 2486   4.574   4.703   8.956  2.4418 -0.5991  0.5989
   19SAPC  C217 2487   4.536   4.497   8.889  0.3065 -0.9460 -0.0214
   19SAPC  H17R 2488   4.536   4.399   8.941  0.4937 -0.8241  0.2085
   19SAPC  H17S 2489   4.614   4.504   8.810  1.6330  0.4987  1.3701
   19SAPC  C218 2490   4.397   4.524   8.833 -0.0117 -0.4730 -0.4461
   19SAPC  H18R 2491   4.385   4.635   8.837  0.1401 -0.5019  0.8170
   19SAPC  H18S 2492   4.317   4.480   8.896  2.1663 -1.1078  1.9435
   19SAPC  C219 2493   4.381   4.504   8.682  0.9230  0.6003 -0.7424
   19SAPC  H19R 2494   4.451   4.557   8.614  0.5613 -0.0507 -1.6286
   19SAPC  H19S 2495   4.281   4.549   8.661  0.4877 -0.6590 -1.4064
   19SAPC  C220 2496   4.386   4.359   8.632  0.4696  0.2651  0.1996
   19SAPC  H20R 2497   4.362   4.354   8.524 -2.4348  3.7559  0.6036
   19SAPC  H20S 2498   4.304   4.298   8.676  0.3168  1.3952  1.5199
   19SAPC  H20T 2499   4.481   4.303   8.646  0.6654 -0.4643 -3.5733
   19SAPC   C33 2500   5.940   5.162   9.941  0.6591 -0.3078 -0.5247
   19SAPC   H3X 2501   6.016   5.115  10.008  0.8885 -0.4815 -0.9055
   19SAPC   H3Y 2502   5.882   5.232  10.005  1.3540 -0.3233  0.1397
   19SAPC   C34 2503   6.005   5.241   9.828  0.1916 -0.6682  0.4790
   19SAPC   H4X 2504   6.032   5.178   9.740  0.0245  0.0596 -0.0957
   19SAPC   H4Y 2505   6.098   5.290   9.866  0.6502 -1.7841  0.8235
   19SAPC   C35 2506   5.900   5.344   9.776 -0.6561  0.5380 -0.4123
   19SAPC   H5X 2507   5.878   5.415   9.859 -2.4615  1.3746 -1.5817
   19SAPC   H5Y 2508   5.808   5.283   9.765 -0.9198  0.1121  3.5092
   19SAPC   C36 2509   5.937   5.409   9.644  0.7112 -0.0613 -0.2852
   19SAPC   H6X 2510   5.945   5.342   9.556 -0.2812 -2.5978  1.5034
   19SAPC   H6Y 2511   6.041   5.442   9.667  0.7619 -1.7166  2.0353
   19SAPC   C37 2512   5.862   5.539   9.597 -0.7802  0.2043 -1.0282
   19SAPC   H7X 2513   5.902   5.618   9.665 -0.0135 -0.5839 -0.5522
   19SAPC   H7Y 2514   5.757   5.526   9.631 -0.3233  1.8553  1.1255
   19SAPC   C38 2515   5.868   5.560   9.446  0.5093  0.1399  0.6680
   19SAPC   H8X 2516   5.813   5.654   9.420 -0.5170 -0.9714 -1.2841
   19SAPC   H8Y 2517   5.816   5.474   9.399 -1.3914  1.1399  0.8639
   19SAPC   C39 2518   6.007   5.573   9.394 -0.4392 -0.6755  0.0767
   19SAPC   H9X 2519   6.067   5.483   9.419 -0.1366 -0.1641  1.2150
   19SAPC   H9Y 2520   6.056   5.654   9.452  0.3184  0.9400 -2.6917
   19SAPC  C310 2521   6.016   5.604   9.244  0.3282 -0.7031 -0.0053
   19SAPC  H10X 2522   6.119   5.612   9.204  0.3510  1.0507  0.3437
   19SAPC  H10Y 2523   5.960   5.701   9.242 -2.0403 -2.0470 -1.5423
   19SAPC  C311 2524   5.932   5.508   9.161 -0.5885  0.2862 -0.3855
   19SAPC  H11X 2525   5.828   5.515   9.198 -0.4557 -0.6499  0.1743
   19SAPC  H11Y 2526   5.962   5.407   9.198  1.4828  0.4498 -1.5207
   19SAPC  C312 2527   5.934   5.531   9.006 -0.1846 -0.0492  0.0790
   19SAPC  H12X 2528   6.037   5.518   8.966 -0.8649 -1.3924 -1.2568
   19SAPC  H12Y 2529   5.914   5.638   8.982  1.5375  0.1364 -0.6435
   19SAPC  C313 2530   5.844   5.441   8.939  0.2017  0.4482  0.2995
   19SAPC  H13X 2531   5.740   5.449   8.976 -0.3197 -1.1799 -0.7530
   19SAPC  H13Y 2532   5.875   5.336   8.958 -1.7638 -0.3949 -0.9403
   19SAPC  C314 2533   5.831   5.457   8.787 -0.7401 -1.1662 -0.2734
   19SAPC  H14X 2534   5.750   5.394   8.747  0.3740 -2.4006 -0.6257
   19SAPC  H14Y 2535   5.927   5.438   8.734 -1.6949 -0.5338 -2.2900
   19SAPC  C315 2536   5.797   5.595   8.738 -0.1897 -0.1506  0.0254
   19SAPC  H15X 2537   5.883   5.658   8.770  0.2332 -0.3182 -0.7668
   19SAPC  H15Y 2538   5.706   5.635   8.786 -0.7993 -1.9689  0.3848
   19SAPC  C316 2539   5.784   5.611   8.585 -0.9615 -0.1588  0.3181
   19SAPC  H16X 2540   5.694   5.553   8.555 -1.3613  0.0298  1.1541
   19SAPC  H16Y 2541   5.867   5.561   8.530  1.3153  0.9564  2.6450
   19SAPC  C317 2542   5.757   5.763   8.555  0.0359  0.5909  0.6769
   19SAPC  H17X 2543   5.847   5.825   8.576  1.6963 -0.8260 -1.9320
   19SAPC  H17Y 2544   5.667   5.786   8.616  0.1355  1.1109  0.6316
   19SAPC  C318 2545   5.716   5.781   8.406 -0.4026  0.9803 -0.0984
   19SAPC  H18X 2546   5.793   5.756   8.330 -0.0003  2.1322 -0.0813
   19SAPC  H18Y 2547   5.703   5.889   8.383  0.3026  0.8647 -1.0923
   19SAPC  H18Z 2548   5.618   5.733   8.387  1.1111 -0.7604 -4.2486
   20SAPC     N 2549   5.268   1.739  11.112  0.4258  0.2070 -0.5434
   20SAPC   C12 2550   5.235   1.730  10.965  0.5606 -0.2921 -0.2302
   20SAPC  H12A 2551   5.128   1.733  10.951  0.7346 -0.6462 -1.6636
   20SAPC  H12B 2552   5.262   1.631  10.930 -0.3364 -0.6901  0.1886
   20SAPC   C13 2553   5.200   1.867  11.166 -0.2510 -0.1015 -0.4210
   20SAPC  H13A 2554   5.093   1.869  11.154 -0.0808 -1.6829 -2.3321
   20SAPC  H13B 2555   5.240   1.902  11.261  0.5749 -0.8862 -0.4723
   20SAPC  H13C 2556   5.218   1.947  11.096 -0.5881  0.5577  0.2391
   20SAPC   C14 2557   5.226   1.610  11.179  0.5239 -0.4665 -0.0796
   20SAPC  H14A 2558   5.280   1.522  11.148  1.9171  0.5787 -0.6472
   20SAPC  H14B 2559   5.244   1.615  11.285  0.5053 -1.9531  0.0051
   20SAPC  H14C 2560   5.122   1.592  11.153  0.1993  1.4699 -0.2189
   20SAPC   C15 2561   5.413   1.752  11.125 -0.3092  0.0660 -0.3415
   20SAPC  H15A 2562   5.454   1.846  11.093  0.2431  0.0146  0.2092
   20SAPC  H15B 2563   5.442   1.734  11.227 -1.0586  0.4786 -0.0587
   20SAPC  H15C 2564   5.458   1.679  11.059  1.2288 -0.9770  1.8168
   20SAPC   C11 2565   5.302   1.830  10.865 -0.3203 -0.5445  0.7606
   20SAPC  H11A 2566   5.290   1.936  10.895 -0.3981 -0.3137 -0.0699
   20SAPC  H11B 2567   5.254   1.826  10.765  1.5843  3.4321 -0.4182
   20SAPC     P 2568   5.505   1.691  10.768 -0.0160 -0.2540 -0.2042
   20SAPC   O13 2569   5.650   1.678  10.788 -0.1663  0.0615 -0.0988
   20SAPC   O14 2570   5.423   1.570  10.785  0.5820 -0.3865 -0.2732
   20SAPC   O12 2571   5.444   1.813  10.845 -0.4502 -0.5874 -0.0745
   20SAPC   O11 2572   5.478   1.728  10.609  0.0654  0.1627 -0.4639
   20SAPC    C1 2573   5.518   1.849  10.557  0.3672 -0.2191 -0.5785
   20SAPC    HA 2574   5.614   1.879  10.605  0.4859 -1.9667  0.3235
   20SAPC    HB 2575   5.533   1.836  10.448 -4.5119 -1.5072 -1.1833
   20SAPC    C2 2576   5.407   1.960  10.564 -0.1325 -0.5187  0.0442
   20SAPC    HS 2577   5.389   1.996  10.668  1.1136 -2.2803  0.8883
   20SAPC   O21 2578   5.277   1.921  10.509 -0.0491 -1.1115  0.1110
   20SAPC   C21 2579   5.179   2.016  10.510  0.2121  0.3255 -0.5638
   20SAPC   O22 2580   5.182   2.122  10.565  0.1871  0.1600  0.1870
   20SAPC   C22 2581   5.054   1.963  10.444  0.2767  0.0662 -0.1675
   20SAPC   H2R 2582   5.068   1.875  10.376 -3.8597 -1.6270  1.0055
   20SAPC   H2S 2583   4.989   1.927  10.527  0.8593 -0.2619  0.1479
   20SAPC    C3 2584   5.469   2.090  10.499 -0.4485  0.1573  0.3968
   20SAPC    HX 2585   5.569   2.100  10.545 -0.2386 -1.8561  0.4282
   20SAPC    HY 2586   5.398   2.171  10.526 -0.6607 -0.1332  0.7090
   20SAPC   O31 2587   5.478   2.088  10.354 -0.6350 -0.3177 -0.5203
   20SAPC   C31 2588   5.415   2.179  10.281 -0.4027  0.0113 -0.4834
   20SAPC   O32 2589   5.360   2.277  10.324 -0.5638 -0.5419  0.1859
   20SAPC   C32 2590   5.427   2.147  10.133 -0.7212  0.0097  0.6771
   20SAPC   H2X 2591   5.427   2.239  10.070  0.4004  0.4961  1.3552
   20SAPC   H2Y 2592   5.350   2.074  10.101 -0.8032 -0.2686  1.4967
   20SAPC   C23 2593   4.970   2.075  10.374  0.8973  1.2116 -0.4345
   20SAPC   H3R 2594   4.958   2.159  10.445  1.5667  2.3400 -1.6440
   20SAPC   H3S 2595   4.872   2.024  10.355  1.0213  0.4458  0.9372
   20SAPC   C24 2596   5.030   2.110  10.241 -0.0986 -0.1769 -0.5749
   20SAPC   H4R 2597   5.031   2.016  10.182  1.2447 -0.6902  0.2450
   20SAPC   H4S 2598   5.136   2.135  10.263 -0.5376  1.4231 -0.1948
   20SAPC   C25 2599   4.949   2.221  10.181  0.0317 -0.2399  0.1592
   20SAPC   H5R 2600   4.865   2.267  10.236 -0.4800 -0.4599 -0.4286
   20SAPC   C26 2601   4.969   2.251  10.052 -0.0192 -0.3898 -0.1036
   20SAPC   H6R 2602   4.908   2.332  10.010  2.2933  1.2051 -0.4874
   20SAPC   C27 2603   5.062   2.182   9.951 -0.5364 -0.0201 -0.1023
   20SAPC   H7R 2604   5.079   2.074   9.971  3.2041  0.2426 -1.4187
   20SAPC   H7S 2605   5.164   2.226   9.961  0.0936 -1.4866  0.1913
   20SAPC   C28 2606   5.008   2.182   9.815  0.7024 -0.0835 -0.5693
   20SAPC   H8R 2607   4.928   2.258   9.816  1.0763  0.2995  0.9424
   20SAPC   C29 2608   5.028   2.109   9.707  0.0707 -0.1946  0.3715
   20SAPC   H9R 2609   4.985   2.132   9.609 -0.6451 -0.7843  0.5496
   20SAPC  C210 2610   5.122   1.992   9.702 -0.4489 -0.4618  0.2189
   20SAPC  H10R 2611   5.096   1.939   9.608  3.5872 -2.6305  0.2030
   20SAPC  H10S 2612   5.098   1.918   9.780 -0.1586 -0.6737  0.1078
   20SAPC  C211 2613   5.271   2.027   9.706  0.0585 -0.5374  0.0466
   20SAPC  H11R 2614   5.315   2.020   9.806  0.3760 -1.8700 -0.1718
   20SAPC  C212 2615   5.349   2.057   9.596 -0.5562 -0.5131  0.1573
   20SAPC  H12R 2616   5.455   2.081   9.613 -0.7861  1.1089 -0.5524
   20SAPC  C213 2617   5.300   2.043   9.452  0.5976  0.2424 -0.3052
   20SAPC  H13R 2618   5.332   2.134   9.397 -1.4045  2.0891  1.5435
   20SAPC  H13S 2619   5.190   2.057   9.448  0.6160  0.7073  0.8450
   20SAPC  C214 2620   5.355   1.933   9.379  0.1805  0.2253  0.3616
   20SAPC  H14R 2621   5.464   1.941   9.384  0.1380  3.7278 -2.0381
   20SAPC  C215 2622   5.295   1.840   9.304 -0.4730 -0.2426 -0.4702
   20SAPC  H15R 2623   5.361   1.764   9.258  1.0685  0.3946  0.6256
   20SAPC  C216 2624   5.143   1.835   9.285 -0.0207  0.2489 -0.6879
   20SAPC  H16R 2625   5.074   1.915   9.319  1.2604  1.8750 -1.8078
   20SAPC  H16S 2626   5.108   1.756   9.355  1.8328  0.6461  0.7316
   20SAPC  C217 2627   5.120   1.819   9.127 -0.2180  0.4243 -0.2207
   20SAPC  H17R 2628   5.153   1.716   9.100  0.5166  0.6708 -0.2508
   20SAPC  H17S 2629   5.174   1.890   9.062  2.2397 -1.8178 -0.7003
   20SAPC  C218 2630   4.976   1.824   9.095 -0.1952  0.1937 -0.5284
   20SAPC  H18R 2631   4.929   1.925   9.098  2.3552  1.4089  1.0156
   20SAPC  H18S 2632   4.929   1.767   9.177  0.0506 -0.0175 -0.5347
   20SAPC  C219 2633   4.931   1.750   8.969 -0.5869  0.6119 -0.1571
   20SAPC  H19R 2634   4.822   1.752   8.950 -0.6344  0.6097  0.1179
   20SAPC  H19S 2635   4.956   1.642   8.977 -0.6631  0.7734  2.6397
   20SAPC  C220 2636   4.974   1.810   8.839 -0.1564 -0.3605  0.3864
   20SAPC  H20R 2637   5.085   1.814   8.835 -0.1677 -0.8383 -0.6117
   20SAPC  H20S 2638   4.926   1.907   8.814 -1.1501 -0.6937  0.9758
   20SAPC  H20T 2639   4.939   1.751   8.751  1.7771  1.3250 -1.5957
   20SAPC   C33 2640   5.569   2.087  10.111 -0.0630 -0.3473 -0.0993
   20SAPC   H3X 2641   5.576   2.002  10.183 -1.2464 -0.7672 -0.4713
   20SAPC   H3Y 2642   5.658   2.151  10.127 -1.5428  1.3809  1.3549
   20SAPC   C34 2643   5.581   2.017   9.982  0.8235  0.5523 -0.0527
   20SAPC   H4X 2644   5.573   2.092   9.901 -2.6239 -0.1358 -0.4015
   20SAPC   H4Y 2645   5.498   1.945   9.972  1.8150 -1.0662  2.7936
   20SAPC   C35 2646   5.711   1.938   9.967 -0.2334 -0.3165 -0.0753
   20SAPC   H5X 2647   5.707   1.867  10.053 -0.5509  0.4520  0.5561
   20SAPC   H5Y 2648   5.797   2.008   9.976 -0.5388 -0.2047  2.3584
   20SAPC   C36 2649   5.729   1.854   9.843 -0.3224  0.3098  0.0009
   20SAPC   H6X 2650   5.636   1.801   9.813 -1.0338  1.7213 -0.3295
   20SAPC   H6Y 2651   5.802   1.782   9.886 -1.8952 -1.7701 -0.7422
   20SAPC   C37 2652   5.789   1.924   9.718  0.4999  0.6770  0.1692
   20SAPC   H7X 2653   5.885   1.970   9.750  0.4198 -0.5067  2.1836
   20SAPC   H7Y 2654   5.730   2.014   9.689 -0.7342 -0.6204 -1.4046
   20SAPC   C38 2655   5.809   1.826   9.601  0.3419 -1.2159 -0.0097
   20SAPC   H8X 2656   5.715   1.766   9.597 -2.3685  2.7739  0.8960
   20SAPC   H8Y 2657   5.885   1.750   9.628  0.0448 -2.1172 -1.6381
   20SAPC   C39 2658   5.825   1.894   9.460  0.6167  0.2143 -0.5054
   20SAPC   H9X 2659   5.918   1.955   9.450 -0.2894  1.8103  0.5676
   20SAPC   H9Y 2660   5.745   1.971   9.453 -0.3693 -0.7574  0.0102
   20SAPC  C310 2661   5.805   1.801   9.341  0.0371 -0.9633 -0.7660
   20SAPC  H10X 2662   5.709   1.749   9.362 -0.7780  0.6662 -0.3780
   20SAPC  H10Y 2663   5.887   1.726   9.348 -1.5746 -2.5448  2.4215
   20SAPC  C311 2664   5.803   1.867   9.207 -0.2892 -0.4598 -0.6564
   20SAPC  H11X 2665   5.829   1.784   9.138  2.5317  1.3235 -1.8601
   20SAPC  H11Y 2666   5.891   1.935   9.208  3.1309 -4.6783 -0.6456
   20SAPC  C312 2667   5.676   1.948   9.167 -0.3859 -0.3370 -0.3112
   20SAPC  H12X 2668   5.675   2.043   9.225  0.1174 -0.8783  0.6024
   20SAPC  H12Y 2669   5.579   1.904   9.202 -0.1152  0.2868  1.2867
   20SAPC  C313 2670   5.655   1.973   9.015 -0.0364  0.1998  0.0787
   20SAPC  H13X 2671   5.674   1.872   8.973  0.5271  0.9591 -1.5405
   20SAPC  H13Y 2672   5.737   2.035   8.975 -0.1145  0.4677  0.3295
   20SAPC  C314 2673   5.518   2.021   8.974  0.3357  0.1503 -0.0001
   20SAPC  H14X 2674   5.428   1.958   8.994  0.7264 -0.8903 -1.4256
   20SAPC  H14Y 2675   5.520   2.035   8.864  0.4503  0.7553  0.0782
   20SAPC  C315 2676   5.489   2.168   9.030 -0.2164  0.1329 -0.5004
   20SAPC  H15X 2677   5.585   2.223   9.042 -0.6491  0.5108  1.3077
   20SAPC  H15Y 2678   5.427   2.166   9.122  0.5307 -1.4622 -0.0182
   20SAPC  C316 2679   5.407   2.246   8.930 -0.5725 -0.2083  0.2109
   20SAPC  H16X 2680   5.468   2.281   8.844  0.1257 -1.1331  0.3113
   20SAPC  H16Y 2681   5.361   2.336   8.977  0.1991 -0.1745  0.9371
   20SAPC  C317 2682   5.282   2.175   8.864  0.0296 -1.1601  0.0115
   20SAPC  H17X 2683   5.217   2.147   8.949 -0.8501  2.0875  0.4783
   20SAPC  H17Y 2684   5.315   2.081   8.815 -1.0128 -0.9623 -1.1010
   20SAPC  C318 2685   5.205   2.270   8.767  0.4208 -0.0605 -0.0082
   20SAPC  H18X 2686   5.165   2.202   8.688  1.3198 -1.6765  0.9008
   20SAPC  H18Y 2687   5.288   2.315   8.707  0.5967  0.4348  0.6117
   20SAPC  H18Z 2688   5.140   2.347   8.812  1.3812  1.3199 -0.9338
   21SAPC     N 2689   4.695   0.290  10.949 -0.3524 -0.3145 -0.1522
   21SAPC   C12 2690   4.730   0.327  10.805 -0.1724  0.2099 -0.8108
   21SAPC  H12A 2691   4.677   0.410  10.760 -1.9191 -0.1191  0.5991
   21SAPC  H12B 2692   4.708   0.241  10.744 -0.4524 -0.7029  0.5687
   21SAPC   C13 2693   4.754   0.400  11.030  0.1016  0.2254  0.4752
   21SAPC  H13A 2694   4.768   0.488  10.970 -1.4107  0.4713  0.4554
   21SAPC  H13B 2695   4.701   0.403  11.125 -1.4286 -0.8873 -0.3196
   21SAPC  H13C 2696   4.847   0.369  11.074 -0.9067 -0.3179  2.2881
   21SAPC   C14 2697   4.547   0.280  10.965 -0.1373  0.1506  0.3463
   21SAPC  H14A 2698   4.526   0.262  11.070 -2.1493 -0.0583 -0.0606
   21SAPC  H14B 2699   4.487   0.365  10.937  1.3693  0.8248 -0.8771
   21SAPC  H14C 2700   4.507   0.194  10.914  1.4501 -0.4562  0.1091
   21SAPC   C15 2701   4.770   0.168  10.984  0.1578  0.7486  0.2468
   21SAPC  H15A 2702   4.874   0.171  10.955  0.0433  0.1506 -0.2294
   21SAPC  H15B 2703   4.750   0.145  11.088 -1.5360  0.0747 -0.2139
   21SAPC  H15C 2704   4.733   0.080  10.933 -3.2766  0.7745  2.5860
   21SAPC   C11 2705   4.883   0.366  10.774 -0.4444  0.0938 -0.0455
   21SAPC  H11A 2706   4.894   0.383  10.664  1.8788 -3.0056 -0.3572
   21SAPC  H11B 2707   4.943   0.273  10.784 -1.0349 -0.2832 -0.0551
   21SAPC     P 2708   4.950   0.615  10.774 -0.0312 -0.2199 -0.0588
   21SAPC   O13 2709   4.817   0.670  10.730  0.7294  0.1834 -0.3868
   21SAPC   O14 2710   5.023   0.706  10.860  0.1077  0.1608  0.0346
   21SAPC   O12 2711   4.939   0.473  10.848  0.1545  0.2384  0.0559
   21SAPC   O11 2712   5.030   0.587  10.646 -0.2834  0.5564  0.0183
   21SAPC    C1 2713   5.166   0.630  10.614 -0.3814  0.2418 -0.9441
   21SAPC    HA 2714   5.214   0.627  10.714 -0.6527 -1.6679 -0.8483
   21SAPC    HB 2715   5.217   0.553  10.552 -2.9718 -0.6532 -2.0612
   21SAPC    C2 2716   5.179   0.767  10.553  0.0815  0.2684  0.4106
   21SAPC    HS 2717   5.128   0.838  10.621  0.5715  0.0621  1.0043
   21SAPC   O21 2718   5.129   0.754  10.419  0.6015  0.3804  0.4068
   21SAPC   C21 2719   5.014   0.815  10.398  0.3325 -0.0540 -0.7369
   21SAPC   O22 2720   4.936   0.865  10.483 -0.0385  0.3149  0.7230
   21SAPC   C22 2721   5.002   0.827  10.244 -0.3414 -0.7486  0.3224
   21SAPC   H2R 2722   5.091   0.879  10.205 -1.8784  0.6319 -1.4572
   21SAPC   H2S 2723   5.020   0.723  10.208  1.9842 -0.1255 -0.3356
   21SAPC    C3 2724   5.330   0.812  10.555  0.4298 -0.8366 -0.2653
   21SAPC    HX 2725   5.396   0.724  10.540  1.6026 -0.0003 -0.1285
   21SAPC    HY 2726   5.360   0.844  10.658 -0.8583 -3.0823  0.8420
   21SAPC   O31 2727   5.349   0.922  10.464 -0.0996  0.3747  0.1322
   21SAPC   C31 2728   5.410   0.899  10.347  0.0650 -0.0445  0.2404
   21SAPC   O32 2729   5.450   0.788  10.314 -0.0951  0.4441  0.0616
   21SAPC   C32 2730   5.422   1.026  10.265  0.3803  0.2605  0.0145
   21SAPC   H2X 2731   5.532   1.033  10.272  0.3668 -0.5598  1.2417
   21SAPC   H2Y 2732   5.360   1.105  10.312 -0.1571 -1.3013  2.0192
   21SAPC   C23 2733   4.884   0.901  10.194  0.6055 -0.4488 -0.1934
   21SAPC   H3R 2734   4.875   1.001  10.242  1.3062  0.3237 -1.6049
   21SAPC   H3S 2735   4.784   0.855  10.200 -0.0065  1.1022  2.2632
   21SAPC   C24 2736   4.900   0.940  10.041 -0.4102  0.9341 -0.2622
   21SAPC   H4R 2737   4.995   0.994  10.021  0.4075 -0.9063 -1.4925
   21SAPC   H4S 2738   4.815   1.000  10.003 -1.4904  0.1230  0.8498
   21SAPC   C25 2739   4.904   0.808   9.963 -0.0064 -0.0063 -0.2471
   21SAPC   H5R 2740   4.861   0.721  10.014 -1.2613  1.5720  1.4413
   21SAPC   C26 2741   4.956   0.786   9.840 -0.7276 -0.6314 -0.2683
   21SAPC   H6R 2742   4.960   0.683   9.802  1.7628 -1.5737  2.3849
   21SAPC   C27 2743   5.016   0.881   9.745 -0.3558  0.3681  0.1064
   21SAPC   H7R 2744   5.081   0.829   9.671  0.2733  1.5333 -0.1620
   21SAPC   H7S 2745   5.074   0.952   9.807  0.2228  0.6847 -0.7834
   21SAPC   C28 2746   4.906   0.963   9.686 -0.3897  0.0074  0.0629
   21SAPC   H8R 2747   4.830   1.005   9.754 -1.3190 -0.0938 -0.8960
   21SAPC   C29 2748   4.897   1.014   9.560  0.3446  0.0670  0.0669
   21SAPC   H9R 2749   4.821   1.085   9.523  1.0142  0.1781 -1.1094
   21SAPC  C210 2750   5.000   0.993   9.450 -0.2855 -0.4355 -0.1965
   21SAPC  H10R 2751   5.102   0.965   9.486  0.4052  1.4242 -0.6797
   21SAPC  H10S 2752   5.010   1.092   9.401 -0.2800 -0.5482 -0.4218
   21SAPC  C211 2753   4.954   0.892   9.347 -0.3545  0.3922 -0.2209
   21SAPC  H11R 2754   4.858   0.839   9.359  1.5664 -2.7938  2.3045
   21SAPC  C212 2755   5.038   0.855   9.254  0.1218  0.8533 -0.6006
   21SAPC  H12R 2756   5.002   0.775   9.187 -1.2235  1.3559 -0.4735
   21SAPC  C213 2757   5.182   0.903   9.234 -0.6327  0.2371 -0.1605
   21SAPC  H13R 2758   5.249   0.896   9.322  1.6716 -0.1976 -1.9027
   21SAPC  H13S 2759   5.175   1.011   9.208  1.4918  0.7159  1.1525
   21SAPC  C214 2760   5.254   0.829   9.116  0.4245  0.1763 -0.5735
   21SAPC  H14R 2761   5.293   0.729   9.140  1.7139  1.5264  3.3831
   21SAPC  C215 2762   5.277   0.875   8.997  0.0779  0.0066 -0.1991
   21SAPC  H15R 2763   5.330   0.816   8.921  1.3743  1.1347 -0.1848
   21SAPC  C216 2764   5.225   1.016   8.953 -0.1109 -0.0217 -0.6547
   21SAPC  H16R 2765   5.307   1.082   8.988  1.3709 -0.7729 -2.5893
   21SAPC  H16S 2766   5.136   1.044   9.012 -0.8127 -0.2341 -1.6121
   21SAPC  C217 2767   5.209   1.019   8.797  0.3226 -0.0517 -0.3643
   21SAPC  H17R 2768   5.143   1.102   8.765  1.4741  0.8725 -0.3808
   21SAPC  H17S 2769   5.162   0.923   8.769  1.6640 -0.6939 -0.4584
   21SAPC  C218 2770   5.341   1.042   8.726 -0.1446  0.0346 -0.8224
   21SAPC  H18R 2771   5.415   0.990   8.792  0.1932  1.1965 -0.2822
   21SAPC  H18S 2772   5.362   1.149   8.746 -0.1770  0.0751 -1.0112
   21SAPC  C219 2773   5.364   0.973   8.586  0.1573  0.1822  0.2898
   21SAPC  H19R 2774   5.271   0.990   8.528  0.3559  2.3347  0.5707
   21SAPC  H19S 2775   5.378   0.866   8.611 -0.3816 -0.1161 -0.6644
   21SAPC  C220 2776   5.492   1.014   8.511 -0.8994  0.4645  0.3767
   21SAPC  H20R 2777   5.509   1.123   8.519 -1.1537  0.6459 -1.4693
   21SAPC  H20S 2778   5.506   0.970   8.410 -1.0203 -0.6890  0.8481
   21SAPC  H20T 2779   5.575   0.962   8.565  0.3694 -1.6844 -3.4829
   21SAPC   C33 2780   5.380   0.996  10.116 -0.0195  0.1161  0.7492
   21SAPC   H3X 2781   5.269   1.001  10.112 -0.2098 -3.6042 -1.0529
   21SAPC   H3Y 2782   5.407   0.897  10.073 -2.2377  0.7546 -2.2780
   21SAPC   C34 2783   5.439   1.098  10.027  1.1327  0.2604 -0.0264
   21SAPC   H4X 2784   5.548   1.106  10.046  1.6335 -1.7513 -1.9152
   21SAPC   H4Y 2785   5.398   1.198  10.056  1.2145  0.2202  0.2218
   21SAPC   C35 2786   5.415   1.057   9.881  0.0862  0.9875  0.7517
   21SAPC   H5X 2787   5.308   1.063   9.850 -0.4855 -0.9938  2.3088
   21SAPC   H5Y 2788   5.452   0.952   9.883 -1.4312  0.4316  0.2652
   21SAPC   C36 2789   5.505   1.128   9.781 -0.1225  0.4519  0.9599
   21SAPC   H6X 2790   5.613   1.108   9.795 -0.2719 -2.1212 -1.1502
   21SAPC   H6Y 2791   5.508   1.239   9.784  0.6609  0.4780 -0.4811
   21SAPC   C37 2792   5.463   1.078   9.641  0.2337  0.6659  0.3901
   21SAPC   H7X 2793   5.359   1.112   9.618  0.1372 -2.0333 -3.5474
   21SAPC   H7Y 2794   5.456   0.968   9.640 -0.6660  0.7223 -1.4255
   21SAPC   C38 2795   5.564   1.127   9.539 -0.6216  0.2250  0.4492
   21SAPC   H8X 2796   5.669   1.099   9.564 -0.2184  1.0205 -0.3278
   21SAPC   H8Y 2797   5.563   1.238   9.537 -0.1638  0.2289 -3.1216
   21SAPC   C39 2798   5.541   1.072   9.400  0.2700 -0.1936  0.2246
   21SAPC   H9X 2799   5.433   1.074   9.373  0.6843  0.1360 -1.4962
   21SAPC   H9Y 2800   5.550   0.962   9.415 -0.1241 -0.2922 -0.2361
   21SAPC  C310 2801   5.624   1.129   9.294 -0.0821  0.2230 -0.3804
   21SAPC  H10X 2802   5.731   1.113   9.319 -0.1146  0.8504  0.1764
   21SAPC  H10Y 2803   5.600   1.237   9.295  1.5752  0.6107 -1.1411
   21SAPC  C311 2804   5.611   1.051   9.162  0.0235  0.6960 -0.9533
   21SAPC  H11X 2805   5.656   1.107   9.078 -1.7680  2.4476 -0.7886
   21SAPC  H11Y 2806   5.502   1.039   9.143  0.2044 -0.6797 -1.1904
   21SAPC  C312 2807   5.670   0.908   9.167  0.3430  0.4197 -0.2689
   21SAPC  H12X 2808   5.626   0.844   9.246  1.5704 -1.2658 -0.9181
   21SAPC  H12Y 2809   5.779   0.916   9.184  0.0433 -1.6915  3.0588
   21SAPC  C313 2810   5.655   0.846   9.028 -0.6458  0.0371  0.3366
   21SAPC  H13X 2811   5.716   0.911   8.963 -2.0088 -0.5940 -1.6211
   21SAPC  H13Y 2812   5.550   0.852   8.994 -0.7181  2.0656  0.8441
   21SAPC  C314 2813   5.701   0.700   9.024 -0.1814  0.5043 -0.2560
   21SAPC  H14X 2814   5.632   0.637   9.084 -0.6175  0.9474 -0.2914
   21SAPC  H14Y 2815   5.805   0.686   9.059  0.9420  2.5302 -2.6166
   21SAPC  C315 2816   5.690   0.639   8.879 -0.3071 -0.0738  0.1578
   21SAPC  H15X 2817   5.755   0.702   8.815  1.5487 -1.3903  0.7195
   21SAPC  H15Y 2818   5.581   0.636   8.858 -0.0704 -0.6548 -1.0472
   21SAPC  C316 2819   5.730   0.491   8.865 -0.1449 -0.2339 -0.4356
   21SAPC  H16X 2820   5.839   0.477   8.877 -0.3757 -1.7729  0.0364
   21SAPC  H16Y 2821   5.688   0.440   8.775  0.8218  0.7562 -1.4616
   21SAPC  C317 2822   5.672   0.410   8.982 -0.4220 -0.1963  0.2612
   21SAPC  H17X 2823   5.564   0.435   8.985 -0.1268  0.9612  1.6567
   21SAPC  H17Y 2824   5.717   0.435   9.080 -0.4753  0.0003  0.2353
   21SAPC  C318 2825   5.692   0.264   8.955  0.4895 -0.2083  0.2018
   21SAPC  H18X 2826   5.672   0.208   9.048 -1.3714  1.5385  0.9026
   21SAPC  H18Y 2827   5.789   0.234   8.911  0.0746 -1.0369 -0.1572
   21SAPC  H18Z 2828   5.625   0.237   8.870 -0.2209 -2.7490  1.5272
   22SAPC     N 2829   4.316   5.627  10.837 -0.0240 -0.6174  0.2169
   22SAPC   C12 2830   4.374   5.567  10.709 -0.1564  0.1781 -0.7106
   22SAPC  H12A 2831   4.349   5.642  10.635 -1.2071 -1.0182 -1.5993
   22SAPC  H12B 2832   4.319   5.477  10.688  2.9522 -1.7269 -1.1364
   22SAPC   C13 2833   4.406   5.739  10.890  0.6741  0.6623  0.4961
   22SAPC  H13A 2834   4.430   5.806  10.809  2.2629 -1.3451 -0.7598
   22SAPC  H13B 2835   4.359   5.791  10.972 -2.3163 -1.6607  0.3491
   22SAPC  H13C 2836   4.491   5.689  10.934  1.1960  0.7209 -0.4299
   22SAPC   C14 2837   4.177   5.677  10.809  0.0849  0.7063  0.5143
   22SAPC  H14A 2838   4.174   5.758  10.737 -1.6769 -0.2050 -0.4851
   22SAPC  H14B 2839   4.120   5.590  10.780  2.6164 -1.3233  1.5032
   22SAPC  H14C 2840   4.143   5.727  10.898  0.2643 -0.9125  1.5037
   22SAPC   C15 2841   4.296   5.526  10.936 -0.2035  0.9637  0.4960
   22SAPC  H15A 2842   4.213   5.463  10.907 -0.3556  0.8564  1.1495
   22SAPC  H15B 2843   4.385   5.466  10.945 -0.3641  0.9620  2.4623
   22SAPC  H15C 2844   4.283   5.568  11.035  1.3380  2.0348  0.2563
   22SAPC   C11 2845   4.523   5.531  10.703 -0.6408 -0.4165 -0.0040
   22SAPC  H11A 2846   4.585   5.622  10.720  0.1569 -0.5642 -2.0297
   22SAPC  H11B 2847   4.551   5.501  10.600 -0.5171 -2.1941  0.5185
   22SAPC     P 2848   4.499   5.274  10.773  0.0469 -0.4842 -0.1196
   22SAPC   O13 2849   4.601   5.187  10.710  0.3163  0.0092  0.2921
   22SAPC   O14 2850   4.439   5.219  10.898  0.0843 -0.5178  0.7505
   22SAPC   O12 2851   4.551   5.422  10.794 -0.4848 -0.2544  0.0328
   22SAPC   O11 2852   4.386   5.290  10.667 -0.5380 -0.2480 -0.3582
   22SAPC    C1 2853   4.336   5.178  10.597  0.2181  0.4760  0.0489
   22SAPC    HA 2854   4.407   5.092  10.591 -1.3413 -0.7272 -1.6169
   22SAPC    HB 2855   4.243   5.153  10.652 -0.2447 -0.8299 -1.2993
   22SAPC    C2 2856   4.289   5.191  10.445  0.0610  0.1385 -0.2847
   22SAPC    HS 2857   4.244   5.096  10.411  0.8869 -0.7553  1.0317
   22SAPC   O21 2858   4.394   5.239  10.360  0.3960  0.0186  0.1917
   22SAPC   C21 2859   4.487   5.147  10.328  0.0665 -0.3427 -0.1269
   22SAPC   O22 2860   4.476   5.029  10.343  0.4380  0.5620 -0.0896
   22SAPC   C22 2861   4.612   5.205  10.266  0.0410  0.1537 -0.4551
   22SAPC   H2R 2862   4.611   5.315  10.281  2.1712 -0.1237  2.0704
   22SAPC   H2S 2863   4.696   5.159  10.322  0.3465 -0.4581 -1.4059
   22SAPC    C3 2864   4.181   5.296  10.439 -0.3672  0.7129 -0.1908
   22SAPC    HX 2865   4.214   5.398  10.465 -0.3077  0.5484  0.3741
   22SAPC    HY 2866   4.103   5.277  10.516  0.0056  0.7695  0.2049
   22SAPC   O31 2867   4.117   5.290  10.311  0.0020 -0.3871  0.4554
   22SAPC   C31 2868   4.149   5.364  10.219 -0.7391 -0.4422 -0.6946
   22SAPC   O32 2869   4.240   5.446  10.222 -0.6314 -0.0925 -0.0559
   22SAPC   C32 2870   4.059   5.320  10.094  0.5753  0.0715 -0.6194
   22SAPC   H2X 2871   3.957   5.340  10.132  0.5777  0.0309 -0.5913
   22SAPC   H2Y 2872   4.056   5.212  10.070 -1.6386 -0.2650  0.9996
   22SAPC   C23 2873   4.634   5.168  10.121  0.1348  0.0279  0.1712
   22SAPC   H3R 2874   4.624   5.059  10.103 -3.4220  0.2206  0.6931
   22SAPC   H3S 2875   4.734   5.200  10.085 -0.6726  0.3874 -1.8600
   22SAPC   C24 2876   4.537   5.240  10.030 -0.0638 -0.6786 -0.0775
   22SAPC   H4R 2877   4.568   5.227   9.924  0.6201  2.7633 -0.3658
   22SAPC   H4S 2878   4.513   5.347  10.046 -0.8310 -0.4168 -2.6590
   22SAPC   C25 2879   4.402   5.171  10.030  0.0693  0.0042 -0.4276
   22SAPC   H5R 2880   4.338   5.203  10.114 -0.7587 -0.4832 -0.8731
   22SAPC   C26 2881   4.355   5.087   9.945  0.0317 -0.0223 -0.0641
   22SAPC   H6R 2882   4.258   5.046   9.977 -0.4154  1.6728  0.7881
   22SAPC   C27 2883   4.416   5.019   9.821  0.3063 -0.1527 -0.2876
   22SAPC   H7R 2884   4.524   5.037   9.834  0.3284  0.4457 -1.2509
   22SAPC   H7S 2885   4.372   5.059   9.726 -0.1668  3.6351  1.4373
   22SAPC   C28 2886   4.374   4.872   9.828 -0.7077  0.9219 -0.1551
   22SAPC   H8R 2887   4.390   4.841   9.932 -1.6834 -0.6109 -0.4460
   22SAPC   C29 2888   4.309   4.791   9.742 -0.1437 -0.2620 -0.5160
   22SAPC   H9R 2889   4.293   4.688   9.776 -0.6775  0.8320  2.7659
   22SAPC  C210 2890   4.261   4.816   9.606  0.1259 -0.0940  0.5787
   22SAPC  H10R 2891   4.242   4.725   9.546 -1.1423  0.6695 -0.2094
   22SAPC  H10S 2892   4.341   4.877   9.558 -0.7664 -0.1590 -1.0424
   22SAPC  C211 2893   4.139   4.908   9.615  0.1003 -0.6901 -0.2715
   22SAPC  H11R 2894   4.132   4.977   9.700 -0.6169  0.7766 -1.4965
   22SAPC  C212 2895   4.029   4.893   9.535 -0.7346 -0.1100  0.3228
   22SAPC  H12R 2896   3.945   4.962   9.552  1.7229  3.0849 -0.0709
   22SAPC  C213 2897   4.013   4.803   9.415  0.6227  0.0610 -0.3964
   22SAPC  H13R 2898   3.914   4.822   9.367 -0.4921 -0.4111  1.6427
   22SAPC  H13S 2899   4.018   4.696   9.441 -1.6746  0.1996  0.8049
   22SAPC  C214 2900   4.117   4.821   9.305  0.3434 -0.2779  0.4184
   22SAPC  H14R 2901   4.193   4.897   9.328 -0.7465  1.8887 -2.6854
   22SAPC  C215 2902   4.128   4.770   9.187 -0.4221  0.3905  0.5663
   22SAPC  H15R 2903   4.212   4.791   9.119 -1.2047  1.2203 -0.1582
   22SAPC  C216 2904   4.038   4.678   9.118  0.2186  0.2007 -0.4905
   22SAPC  H16R 2905   3.954   4.639   9.179  1.7025 -2.1144  0.1081
   22SAPC  H16S 2906   4.092   4.585   9.090 -1.1751  0.0226 -2.6018
   22SAPC  C217 2907   3.996   4.730   8.982 -0.2423 -0.3081 -0.3111
   22SAPC  H17R 2908   4.083   4.760   8.920  0.2662 -2.1076 -0.5238
   22SAPC  H17S 2909   3.947   4.828   8.995  0.2697 -0.3684  2.4023
   22SAPC  C218 2910   3.923   4.630   8.896  0.0141  0.4838 -0.0409
   22SAPC  H18R 2911   3.838   4.591   8.955 -0.9807 -1.1876 -2.5070
   22SAPC  H18S 2912   3.997   4.551   8.869 -2.8566 -2.2004 -0.2943
   22SAPC  C219 2913   3.871   4.686   8.764  0.0504  0.2288  0.1085
   22SAPC  H19R 2914   3.819   4.783   8.779  0.6475  0.8770 -1.7797
   22SAPC  H19S 2915   3.803   4.613   8.715  0.2124  0.8218 -1.0191
   22SAPC  C220 2916   3.968   4.731   8.648  0.0143  0.6115  0.3038
   22SAPC  H20R 2917   3.906   4.748   8.558  1.2511  1.8148 -0.3263
   22SAPC  H20S 2918   4.044   4.652   8.631  0.1298  0.3097  2.0335
   22SAPC  H20T 2919   4.022   4.824   8.676 -2.0412  0.9158  3.6190
   22SAPC   C33 2920   4.091   5.387   9.961  0.0399 -0.3137  0.4354
   22SAPC   H3X 2921   4.178   5.330   9.922 -0.5179 -0.9762  0.1422
   22SAPC   H3Y 2922   4.108   5.495   9.984  2.0246 -0.8411  1.5619
   22SAPC   C34 2923   3.979   5.368   9.857  0.0366 -0.3185 -0.5321
   22SAPC   H4X 2924   3.884   5.416   9.892 -1.0308 -1.7127 -1.4618
   22SAPC   H4Y 2925   3.968   5.258   9.857  1.3116 -0.4515 -0.8625
   22SAPC   C35 2926   4.012   5.423   9.720 -0.3499  0.0817  0.2162
   22SAPC   H5X 2927   3.936   5.394   9.644  0.0923  1.7353 -0.8881
   22SAPC   H5Y 2928   4.110   5.379   9.689 -0.6507 -0.2185 -0.3094
   22SAPC   C36 2929   4.034   5.576   9.726 -0.5094 -0.0392 -0.2413
   22SAPC   H6X 2930   4.116   5.602   9.796  1.0705  0.7386 -2.3370
   22SAPC   H6Y 2931   3.941   5.619   9.770 -1.1787 -0.5396 -1.1504
   22SAPC   C37 2932   4.054   5.639   9.591 -0.1599  0.9343  0.4749
   22SAPC   H7X 2933   3.975   5.607   9.520  1.7430 -0.6545 -0.9754
   22SAPC   H7Y 2934   4.146   5.598   9.544 -1.8301  1.1796 -3.1783
   22SAPC   C38 2935   4.057   5.791   9.609 -0.5147 -0.6146 -0.1375
   22SAPC   H8X 2936   4.157   5.821   9.646  0.4320 -2.3160 -1.2448
   22SAPC   H8Y 2937   3.994   5.807   9.699 -1.3446 -1.7198 -0.5067
   22SAPC   C39 2938   4.021   5.879   9.487 -0.2750  0.9160  0.0916
   22SAPC   H9X 2939   4.027   5.988   9.508 -1.2979  1.2833 -1.4302
   22SAPC   H9Y 2940   3.916   5.855   9.459  0.3045  0.6782 -1.9237
   22SAPC  C310 2941   4.107   5.859   9.356 -0.0435  0.6525  0.6090
   22SAPC  H10X 2942   4.098   5.756   9.316 -0.7063  0.9119  0.0776
   22SAPC  H10Y 2943   4.211   5.885   9.386  1.0467 -2.6360 -0.1495
   22SAPC  C311 2944   4.065   5.956   9.251  0.1973 -0.5161 -0.2803
   22SAPC  H11X 2945   4.134   6.043   9.266 -2.8809  1.6519  1.8171
   22SAPC  H11Y 2946   3.959   5.984   9.264  0.2856 -0.6187  0.6501
   22SAPC  C312 2947   4.082   5.909   9.102  0.0641 -0.5493 -0.6769
   22SAPC  H12X 2948   4.052   5.802   9.094  1.6148 -0.9780 -1.0691
   22SAPC  H12Y 2949   4.192   5.925   9.097 -0.1490  2.1502  1.9707
   22SAPC  C313 2950   4.012   6.003   9.000  0.1630 -0.1366  0.3722
   22SAPC  H13X 2951   4.052   5.981   8.899 -0.5259  1.4652 -0.2719
   22SAPC  H13Y 2952   4.039   6.108   9.026 -2.6998  0.8225 -0.2825
   22SAPC  C314 2953   3.852   6.004   9.008  0.3272 -0.0838  0.8393
   22SAPC  H14X 2954   3.823   6.084   9.079 -0.7039  0.9636 -0.7139
   22SAPC  H14Y 2955   3.814   5.902   9.028  0.2675 -0.3005 -0.3182
   22SAPC  C315 2956   3.776   6.031   8.877 -0.3453  0.2885 -0.4227
   22SAPC  H15X 2957   3.810   5.951   8.807  0.1129  2.5693 -2.8679
   22SAPC  H15Y 2958   3.795   6.130   8.831 -1.6645  1.9000  2.3907
   22SAPC  C316 2959   3.622   6.028   8.873 -0.6429 -0.0109  0.5114
   22SAPC  H16X 2960   3.576   6.110   8.932 -0.4525  1.0280 -0.7540
   22SAPC  H16Y 2961   3.588   5.932   8.919 -0.9184 -0.5027 -0.6801
   22SAPC  C317 2962   3.571   6.036   8.730  0.3180 -0.4739 -0.6658
   22SAPC  H17X 2963   3.467   5.996   8.725  0.1424 -0.4561  2.4058
   22SAPC  H17Y 2964   3.628   5.968   8.663 -2.7515 -1.1225 -2.7367
   22SAPC  C318 2965   3.557   6.177   8.669 -0.3985 -0.3075  0.3633
   22SAPC  H18X 2966   3.656   6.222   8.645  0.0994 -1.5056  0.1616
   22SAPC  H18Y 2967   3.520   6.241   8.751  1.2656 -0.8328  1.5545
   22SAPC  H18Z 2968   3.481   6.168   8.588  1.7507 -4.8180 -1.3014
   23SAPC     N 2969   5.948   6.505  10.932  0.6249  0.1144  0.3086
   23SAPC   C12 2970   6.039   6.404  10.873 -0.1954 -0.0798 -0.0495
   23SAPC  H12A 2971   6.014   6.389  10.769  0.6574 -2.0343 -0.0037
   23SAPC  H12B 2972   6.034   6.313  10.931  3.1422  0.8558  1.8585
   23SAPC   C13 2973   5.805   6.451  10.921 -0.5282  0.0260 -0.3911
   23SAPC  H13A 2974   5.736   6.522  10.964 -0.5419 -1.1080  1.5255
   23SAPC  H13B 2975   5.789   6.422  10.818  0.7484 -1.6590 -0.1411
   23SAPC  H13C 2976   5.787   6.358  10.972 -1.0216 -0.0840 -0.7591
   23SAPC   C14 2977   5.981   6.529  11.074  0.1764  0.4219  0.1669
   23SAPC  H14A 2978   5.898   6.588  11.112 -0.0982 -1.4602  2.6419
   23SAPC  H14B 2979   5.970   6.441  11.135  0.3995 -0.5103 -1.1098
   23SAPC  H14C 2980   6.075   6.581  11.085 -0.9196  2.2612  1.1846
   23SAPC   C15 2981   5.962   6.641  10.881  0.1674 -0.1574 -0.2130
   23SAPC  H15A 2982   5.922   6.642  10.781 -0.1001  0.2612 -0.1036
   23SAPC  H15B 2983   5.904   6.705  10.947 -0.2248 -0.8831  0.1542
   23SAPC  H15C 2984   6.062   6.681  10.877  0.6023 -1.3809 -2.8570
   23SAPC   C11 2985   6.191   6.433  10.884 -0.0254 -0.2984  0.0973
   23SAPC  H11A 2986   6.239   6.335  10.864 -0.4728 -0.7291  1.1104
   23SAPC  H11B 2987   6.220   6.466  10.986  0.2670  3.0823 -1.0011
   23SAPC     P 2988   6.287   6.512  10.660  0.0154 -0.6694 -0.2252
   23SAPC   O13 2989   6.413   6.440  10.695  0.3889 -0.6211 -0.1618
   23SAPC   O14 2990   6.192   6.449  10.572 -0.1600  0.0438  0.2008
   23SAPC   O12 2991   6.217   6.546  10.796  0.1243  0.3727  0.0200
   23SAPC   O11 2992   6.328   6.651  10.614  0.2463 -0.2322  0.1206
   23SAPC    C1 2993   6.236   6.762  10.600 -0.0838  0.7303 -0.2332
   23SAPC    HA 2994   6.133   6.722  10.608  0.6347 -0.7788  2.1314
   23SAPC    HB 2995   6.261   6.842  10.674 -2.2062  2.2348 -1.1073
   23SAPC    C2 2996   6.236   6.831  10.462  0.3960 -0.9966 -0.2131
   23SAPC    HS 2997   6.176   6.924  10.466 -0.2764 -1.4699  1.5927
   23SAPC   O21 2998   6.178   6.740  10.357 -0.3812 -0.5924  0.0493
   23SAPC   C21 2999   6.045   6.743  10.342  0.0557  1.0398  0.5915
   23SAPC   O22 3000   5.971   6.819  10.404 -0.0486  0.0851  0.0207
   23SAPC   C22 3001   5.998   6.620  10.264  0.3099  0.4508  0.1055
   23SAPC   H2R 3002   6.092   6.562  10.248  1.2557  2.2454 -0.9608
   23SAPC   H2S 3003   5.933   6.552  10.324  2.4128 -1.8229 -0.0947
   23SAPC    C3 3004   6.380   6.858  10.409 -0.3820 -0.3681  0.0324
   23SAPC    HX 3005   6.422   6.755  10.412  5.8982  1.9645  1.3244
   23SAPC    HY 3006   6.432   6.921  10.485 -0.7897  1.8209 -1.4720
   23SAPC   O31 3007   6.385   6.929  10.274 -0.1630 -0.2408 -0.3812
   23SAPC   C31 3008   6.511   6.972  10.253  0.1746 -0.5556  0.5328
   23SAPC   O32 3009   6.604   6.964  10.328 -0.1220 -0.1798  0.0088
   23SAPC   C32 3010   6.509   7.033  10.117 -0.0182 -0.6709 -0.3820
   23SAPC   H2X 3011   6.463   7.133  10.131  0.4934 -0.6064  0.9301
   23SAPC   H2Y 3012   6.445   6.973  10.049 -2.0057  2.7775 -1.6602
   23SAPC   C23 3013   5.936   6.670  10.132 -0.0883  0.0858 -0.0963
   23SAPC   H3R 3014   6.017   6.704  10.065 -0.3896 -1.1982 -1.1396
   23SAPC   H3S 3015   5.879   6.763  10.154  1.3771  0.5371  1.9514
   23SAPC   C24 3016   5.846   6.563  10.066 -0.1120 -0.8918  0.0531
   23SAPC   H4R 3017   5.762   6.606  10.006 -0.2081 -1.4503 -0.2183
   23SAPC   H4S 3018   5.796   6.503  10.145  0.2459 -1.4831 -0.1659
   23SAPC   C25 3019   5.939   6.475   9.991  0.9162  0.8416 -0.1157
   23SAPC   H5R 3020   6.002   6.409  10.053  1.7056  0.4744 -1.2971
   23SAPC   C26 3021   5.948   6.459   9.858 -0.1787 -0.7763 -0.5353
   23SAPC   H6R 3022   6.023   6.391   9.814 -1.1765 -1.5919 -1.0157
   23SAPC   C27 3023   5.874   6.533   9.755 -0.2913  0.5162 -0.0566
   23SAPC   H7R 3024   5.953   6.573   9.687 -0.2232  1.3652  0.5096
   23SAPC   H7S 3025   5.828   6.622   9.803  0.2741  1.4827 -1.2653
   23SAPC   C28 3026   5.776   6.445   9.681 -0.2241 -0.0915 -0.5006
   23SAPC   H8R 3027   5.678   6.443   9.731 -0.0350 -1.0232 -0.1532
   23SAPC   C29 3028   5.796   6.395   9.559 -0.4300 -0.2173 -0.0401
   23SAPC   H9R 3029   5.730   6.317   9.519  0.8264 -1.8920  1.0716
   23SAPC  C210 3030   5.925   6.401   9.476 -0.0504 -0.0633 -0.1677
   23SAPC  H10R 3031   5.956   6.299   9.448  2.1906  1.0609 -1.9222
   23SAPC  H10S 3032   6.005   6.435   9.545 -1.1182 -0.1295  1.1321
   23SAPC  C211 3033   5.919   6.510   9.377  0.3840  0.2674  0.1498
   23SAPC  H11R 3034   5.908   6.611   9.420 -0.7443  0.7442 -1.2429
   23SAPC  C212 3035   5.925   6.495   9.249 -0.1126  0.1468  0.1850
   23SAPC  H12R 3036   5.889   6.578   9.186 -1.3012 -0.3979  0.1275
   23SAPC  C213 3037   5.938   6.363   9.176 -0.1982 -0.4931 -0.3675
   23SAPC  H13R 3038   6.001   6.285   9.223  1.9269  1.1941 -0.3068
   23SAPC  H13S 3039   5.993   6.380   9.080 -2.3395  2.2032 -1.2018
   23SAPC  C214 3040   5.802   6.304   9.136  0.0439  0.0705 -0.0479
   23SAPC  H14R 3041   5.723   6.312   9.212  1.5991 -0.1468  1.6230
   23SAPC  C215 3042   5.774   6.265   9.013 -0.2827  0.7540  0.8753
   23SAPC  H15R 3043   5.673   6.225   8.996 -0.2503 -0.2690  2.9120
   23SAPC  C216 3044   5.869   6.251   8.896  0.7817  0.1453  0.2908
   23SAPC  H16R 3045   5.954   6.189   8.931  1.0208 -0.9547 -2.1327
   23SAPC  H16S 3046   5.890   6.354   8.860  2.0821 -0.4375 -0.6384
   23SAPC  C217 3047   5.823   6.179   8.770  0.4565 -0.4986 -0.7035
   23SAPC  H17R 3048   5.793   6.076   8.800  4.0812 -1.0422  1.3975
   23SAPC  H17S 3049   5.909   6.170   8.701  1.0704 -0.9490  0.1155
   23SAPC  C218 3050   5.713   6.256   8.706 -0.1629  0.1211 -0.7372
   23SAPC  H18R 3051   5.746   6.357   8.676  1.1959 -1.0472 -3.3306
   23SAPC  H18S 3052   5.628   6.268   8.777 -0.1986  0.8869 -0.9120
   23SAPC  C219 3053   5.649   6.195   8.583 -0.4072 -0.6087  0.0820
   23SAPC  H19R 3054   5.561   6.256   8.554 -1.4199 -2.3217 -0.4791
   23SAPC  H19S 3055   5.608   6.097   8.615 -0.5597 -0.1287  1.3931
   23SAPC  C220 3056   5.735   6.172   8.462  0.5381 -0.8149 -0.0474
   23SAPC  H20R 3057   5.692   6.099   8.391 -0.0762  0.9700 -1.5228
   23SAPC  H20S 3058   5.835   6.131   8.487  0.6002 -0.0372  1.0362
   23SAPC  H20T 3059   5.769   6.261   8.405  1.3239 -1.5413 -0.7209
   23SAPC   C33 3060   6.649   7.077  10.057 -0.3217  0.3881 -0.5496
   23SAPC   H3X 3061   6.706   6.987  10.027 -0.3038  1.0297 -2.4596
   23SAPC   H3Y 3062   6.707   7.135  10.133  1.8393 -0.6307 -1.3854
   23SAPC   C34 3063   6.643   7.158   9.931 -0.3998 -0.8805  0.4261
   23SAPC   H4X 3064   6.748   7.163   9.894 -0.8997  0.7334 -0.8372
   23SAPC   H4Y 3065   6.602   7.260   9.948  0.4071 -0.2135 -1.4794
   23SAPC   C35 3066   6.566   7.099   9.808 -0.1366  0.6852  0.0532
   23SAPC   H5X 3067   6.458   7.108   9.833 -0.6755 -2.6287 -0.7758
   23SAPC   H5Y 3068   6.586   6.991   9.788  3.0266  1.4387 -1.2622
   23SAPC   C36 3069   6.609   7.179   9.682 -0.0718 -0.6457 -0.2833
   23SAPC   H6X 3070   6.717   7.175   9.657  0.4850  1.5934  1.6134
   23SAPC   H6Y 3071   6.584   7.285   9.705  0.1469 -1.2281  2.7545
   23SAPC   C37 3072   6.545   7.128   9.553  0.3388 -0.2726 -0.1277
   23SAPC   H7X 3073   6.434   7.139   9.555  0.4105  0.4748  2.6612
   23SAPC   H7Y 3074   6.565   7.019   9.545  0.7795 -0.1637 -0.5383
   23SAPC   C38 3075   6.592   7.206   9.431 -0.0917  0.0739  0.6117
   23SAPC   H8X 3076   6.703   7.205   9.424 -0.1635  0.4366 -0.6243
   23SAPC   H8Y 3077   6.557   7.311   9.445 -1.2751 -0.1107 -0.9206
   23SAPC   C39 3078   6.525   7.161   9.299  0.4788 -0.5668  0.5755
   23SAPC   H9X 3079   6.417   7.183   9.309  0.3032 -1.3623  0.4747
   23SAPC   H9Y 3080   6.541   7.053   9.277  1.5338 -0.2051 -0.4747
   23SAPC  C310 3081   6.586   7.237   9.181  0.1105 -0.4374  0.8510
   23SAPC  H10X 3082   6.692   7.210   9.197  0.1798 -0.7678 -0.1301
   23SAPC  H10Y 3083   6.574   7.344   9.208  2.1555 -0.2672  1.1613
   23SAPC  C311 3084   6.536   7.175   9.046 -0.4244 -0.0905  0.0238
   23SAPC  H11X 3085   6.431   7.141   9.053 -0.4003 -0.4725 -1.3441
   23SAPC  H11Y 3086   6.607   7.096   9.013 -0.9293  0.3795 -2.2216
   23SAPC  C312 3087   6.536   7.281   8.933 -0.5567 -0.3997 -0.3249
   23SAPC  H12X 3088   6.635   7.330   8.945 -0.2414 -1.0263 -0.3121
   23SAPC  H12Y 3089   6.455   7.357   8.938 -0.3693  0.0805 -3.6068
   23SAPC  C313 3090   6.530   7.220   8.795  0.2177  0.2017 -1.0267
   23SAPC  H13X 3091   6.439   7.160   8.778  1.0027 -1.1673 -0.4649
   23SAPC  H13Y 3092   6.612   7.145   8.791  1.8788  2.0028 -1.8239
   23SAPC  C314 3093   6.555   7.327   8.693  0.5703 -0.2628  0.0763
   23SAPC  H14X 3094   6.659   7.363   8.706 -0.7582  4.0906 -0.3711
   23SAPC  H14Y 3095   6.494   7.418   8.715  1.7000  0.7325 -0.8449
   23SAPC  C315 3096   6.553   7.278   8.550  0.2684 -0.3814  0.0860
   23SAPC  H15X 3097   6.633   7.201   8.545  1.1786  0.5342  0.4355
   23SAPC  H15Y 3098   6.571   7.359   8.476  0.9109 -1.8293 -1.3567
   23SAPC  C316 3099   6.414   7.228   8.497  0.4680 -0.0493 -0.3505
   23SAPC  H16X 3100   6.356   7.318   8.467 -0.5851 -0.0280  1.6563
   23SAPC  H16Y 3101   6.366   7.159   8.570 -0.5389 -1.3586 -2.2167
   23SAPC  C317 3102   6.428   7.139   8.375  0.1182  0.3486 -0.5354
   23SAPC  H17X 3103   6.474   7.039   8.395  0.0509  0.1571 -1.3126
   23SAPC  H17Y 3104   6.484   7.196   8.298  1.4768 -0.4608 -0.1716
   23SAPC  C318 3105   6.293   7.100   8.303 -0.3490 -0.6807  0.0607
   23SAPC  H18X 3106   6.206   7.084   8.370 -0.0598  0.6843  0.7923
   23SAPC  H18Y 3107   6.300   7.016   8.231  0.1984 -0.2082 -0.4461
   23SAPC  H18Z 3108   6.253   7.190   8.253 -1.8748 -0.3378  1.8388
   24SAPC     N 3109   1.594   0.131  11.087 -0.2698  0.1968  0.5031
   24SAPC   C12 3110   1.622   0.231  10.978  0.0057  0.6592 -0.1519
   24SAPC  H12A 3111   1.663   0.176  10.895 -1.8876 -3.4013  1.4696
   24SAPC  H12B 3112   1.692   0.308  11.006  0.1678  0.1463  0.8726
   24SAPC   C13 3113   1.718   0.047  11.099 -0.3952 -0.6243  0.4941
   24SAPC  H13A 3114   1.805   0.105  11.125 -0.0620 -0.4243 -1.0339
   24SAPC  H13B 3115   1.702  -0.026  11.177  3.0027  0.6065  2.4677
   24SAPC  H13C 3116   1.745  -0.005  11.009  2.3510 -1.4924  1.7476
   24SAPC   C14 3117   1.571   0.186  11.227 -0.0018 -0.5744  0.4957
   24SAPC  H14A 3118   1.483   0.249  11.229 -0.7447 -1.6214  1.4138
   24SAPC  H14B 3119   1.555   0.099  11.289 -3.0603 -0.1519  0.3792
   24SAPC  H14C 3120   1.658   0.248  11.243 -2.1831  3.7680 -3.2934
   24SAPC   C15 3121   1.486   0.036  11.052  0.1998  0.1523 -0.3113
   24SAPC  H15A 3122   1.495  -0.052  11.114  0.3754  0.7998  0.5964
   24SAPC  H15B 3123   1.388   0.077  11.070 -0.1438 -1.6616  2.2615
   24SAPC  H15C 3124   1.498   0.006  10.949  1.3656  2.6522 -0.9328
   24SAPC   C11 3125   1.497   0.307  10.931  0.3064  0.3346 -0.0135
   24SAPC  H11A 3126   1.457   0.348  11.026  0.6060  1.8996 -0.5542
   24SAPC  H11B 3127   1.417   0.240  10.892  0.0153  0.7252 -0.0861
   24SAPC     P 3128   1.515   0.556  10.886 -0.1828  0.0322  0.8246
   24SAPC   O13 3129   1.370   0.580  10.897  1.0236  0.6689  0.3761
   24SAPC   O14 3130   1.593   0.577  11.007  0.5482  0.4563 -0.2976
   24SAPC   O12 3131   1.534   0.410  10.835  0.5238 -0.3930 -0.7910
   24SAPC   O11 3132   1.571   0.645  10.770  0.8511 -0.1501 -0.1669
   24SAPC    C1 3133   1.696   0.621  10.701  0.0592 -0.0231  0.3645
   24SAPC    HA 3134   1.786   0.647  10.762  0.7291  2.2675 -1.5026
   24SAPC    HB 3135   1.697   0.519  10.656 -2.3219  0.0068  0.2073
   24SAPC    C2 3136   1.707   0.724  10.582 -0.0565 -0.7983  0.2006
   24SAPC    HS 3137   1.703   0.822  10.633 -0.0977 -0.8426  0.2812
   24SAPC   O21 3138   1.589   0.709  10.500 -0.3445  0.4704 -0.0430
   24SAPC   C21 3139   1.566   0.810  10.422  0.0982 -1.0752 -0.1978
   24SAPC   O22 3140   1.635   0.907  10.397 -0.1457  0.4922 -0.5038
   24SAPC   C22 3141   1.417   0.793  10.375 -0.1712 -0.3294  0.2012
   24SAPC   H2R 3142   1.364   0.706  10.418 -0.9117 -0.9413 -1.9352
   24SAPC   H2S 3143   1.382   0.891  10.415 -2.0922 -0.0684 -2.0301
   24SAPC    C3 3144   1.843   0.712  10.506 -0.0802  0.3017  0.5592
   24SAPC    HX 3145   1.914   0.755  10.580 -0.0287  3.1617 -1.0705
   24SAPC    HY 3146   1.835   0.780  10.419  0.6151 -1.0847 -0.6045
   24SAPC   O31 3147   1.884   0.573  10.486  0.2844  0.4194 -0.0106
   24SAPC   C31 3148   1.853   0.517  10.371  0.2823  0.3527 -0.0582
   24SAPC   O32 3149   1.793   0.571  10.284  0.3554  0.1799  0.4095
   24SAPC   C32 3150   1.899   0.373  10.382 -0.3361  0.6815  0.2501
   24SAPC   H2X 3151   1.866   0.326  10.477  2.3632 -0.6930  0.5633
   24SAPC   H2Y 3152   2.010   0.374  10.376 -0.4589  0.3677 -2.3452
   24SAPC   C23 3153   1.396   0.773  10.224 -0.1872 -0.0297  0.4584
   24SAPC   H3R 3154   1.487   0.812  10.173 -0.6506 -1.3579 -1.4388
   24SAPC   H3S 3155   1.305   0.832  10.197  0.4940  0.4728 -0.7881
   24SAPC   C24 3156   1.374   0.629  10.184 -0.1452  0.4736  0.5524
   24SAPC   H4R 3157   1.274   0.604  10.227 -0.9643 -0.1170 -1.6145
   24SAPC   H4S 3158   1.458   0.568  10.223  0.8546  1.0451 -0.6586
   24SAPC   C25 3159   1.373   0.629  10.030 -0.0514  0.2318  0.4966
   24SAPC   H5R 3160   1.276   0.662   9.991 -0.1733 -1.0983 -0.3741
   24SAPC   C26 3161   1.470   0.603   9.947 -0.1416 -0.0820  0.3979
   24SAPC   H6R 3162   1.450   0.606   9.839  3.2808  1.5921 -0.2385
   24SAPC   C27 3163   1.608   0.548   9.976 -0.6938 -0.2039 -0.5355
   24SAPC   H7R 3164   1.613   0.437   9.974  0.9448 -0.1310 -0.9691
   24SAPC   H7S 3165   1.651   0.587  10.070 -1.2088 -0.6486 -0.1187
   24SAPC   C28 3166   1.711   0.595   9.877 -0.0525 -0.6363  0.8328
   24SAPC   H8R 3167   1.767   0.685   9.909  0.4982 -0.7610  0.2395
   24SAPC   C29 3168   1.756   0.538   9.762 -0.2779  0.1395  0.6854
   24SAPC   H9R 3169   1.838   0.586   9.706 -1.4499 -0.4252 -1.5736
   24SAPC  C210 3170   1.709   0.408   9.708 -0.3097 -0.0856 -0.1524
   24SAPC  H10R 3171   1.601   0.397   9.687 -0.1412  0.9589 -1.6509
   24SAPC  H10S 3172   1.722   0.335   9.791  3.2038 -0.5224 -1.0073
   24SAPC  C211 3173   1.795   0.365   9.596  0.2437 -1.1574 -0.1875
   24SAPC  H11R 3174   1.902   0.338   9.601  0.8461  1.2275  0.5678
   24SAPC  C212 3175   1.754   0.357   9.466  0.0449  0.5055 -0.1935
   24SAPC  H12R 3176   1.821   0.324   9.385  0.4230 -1.5147  0.9127
   24SAPC  C213 3177   1.613   0.377   9.427  0.2399 -0.3027  0.6456
   24SAPC  H13R 3178   1.560   0.451   9.490 -0.2694 -0.0603 -0.0590
   24SAPC  H13S 3179   1.560   0.281   9.445  0.0227 -0.1504  0.8295
   24SAPC  C214 3180   1.598   0.425   9.284  1.1968 -0.3044  0.3509
   24SAPC  H14R 3181   1.620   0.532   9.269  1.4247 -0.5602 -1.1650
   24SAPC  C215 3182   1.573   0.349   9.171 -0.1288 -0.9336 -0.2342
   24SAPC  H15R 3183   1.560   0.393   9.071  0.8117 -1.1949 -0.4842
   24SAPC  C216 3184   1.557   0.199   9.165 -1.0029  0.0448 -0.2435
   24SAPC  H16R 3185   1.553   0.151   9.265 -1.4507  1.3541  0.3864
   24SAPC  H16S 3186   1.640   0.153   9.108 -1.0478  2.3855 -2.3002
   24SAPC  C217 3187   1.431   0.164   9.082 -0.1768  0.1920 -0.5804
   24SAPC  H17R 3188   1.434   0.197   8.976 -1.9886 -0.5136 -0.8732
   24SAPC  H17S 3189   1.340   0.197   9.136 -0.5805 -1.5831 -0.1411
   24SAPC  C218 3190   1.383   0.013   9.097 -0.5720  0.1805 -0.5138
   24SAPC  H18R 3191   1.404  -0.021   9.200 -0.5426  1.8707  0.0500
   24SAPC  H18S 3192   1.462  -0.047   9.046 -2.1743 -1.7947 -0.7140
   24SAPC  C219 3193   1.240  -0.015   9.047 -0.0578  0.1547  0.5552
   24SAPC  H19R 3194   1.158   0.003   9.120 -0.8916 -0.2456 -0.2629
   24SAPC  H19S 3195   1.243  -0.121   9.014  0.7020  0.2574  0.2841
   24SAPC  C220 3196   1.201   0.067   8.916  0.4539  0.0722  0.0873
   24SAPC  H20R 3197   1.279   0.066   8.837  0.0672 -0.6067 -0.2867
   24SAPC  H20S 3198   1.186   0.172   8.950  1.4116  1.5856 -3.9422
   24SAPC  H20T 3199   1.107   0.031   8.869 -0.3914 -0.1599  1.8886
   24SAPC   C33 3200   1.847   0.287  10.261 -0.0930  0.2050  0.5999
   24SAPC   H3X 3201   1.907   0.194  10.265  2.0135  1.4899 -0.2994
   24SAPC   H3Y 3202   1.876   0.330  10.162  2.5651  1.2638  1.8026
   24SAPC   C34 3203   1.704   0.255  10.265 -0.0319  0.5763 -0.1622
   24SAPC   H4X 3204   1.627   0.334  10.255 -0.1702  0.5883  0.8514
   24SAPC   H4Y 3205   1.693   0.213  10.368 -1.0041  1.4974  0.1237
   24SAPC   C35 3206   1.662   0.140  10.171 -0.4372 -0.0960 -0.2091
   24SAPC   H5X 3207   1.730   0.057  10.198 -0.5751  0.0155  0.4918
   24SAPC   H5Y 3208   1.692   0.163  10.067 -1.3723  1.2204 -0.1978
   24SAPC   C36 3209   1.513   0.099  10.172  0.6884 -0.2745  0.5255
   24SAPC   H6X 3210   1.471   0.084  10.273  1.4149  1.7025  1.1457
   24SAPC   H6Y 3211   1.518   0.000  10.122 -2.3127 -1.6951  2.9158
   24SAPC   C37 3212   1.429   0.201  10.092 -0.3664 -0.0097 -0.1061
   24SAPC   H7X 3213   1.477   0.229   9.997 -1.9537  3.6244  0.0698
   24SAPC   H7Y 3214   1.409   0.295  10.148 -1.5530  0.0604 -0.6282
   24SAPC   C38 3215   1.285   0.145  10.057 -0.1566 -0.0205 -0.3178
   24SAPC   H8X 3216   1.237   0.115  10.152 -1.2282 -0.2489 -0.9254
   24SAPC   H8Y 3217   1.306   0.048  10.007 -0.9842 -0.1907 -0.3359
   24SAPC   C39 3218   1.200   0.251   9.984  0.4411  0.0861 -0.3948
   24SAPC   H9X 3219   1.174   0.341  10.043 -0.3325 -1.2575  1.3324
   24SAPC   H9Y 3220   1.107   0.191   9.973  1.7697 -2.2125  0.5892
   24SAPC  C310 3221   1.262   0.293   9.844 -0.7843 -0.1553  0.0289
   24SAPC  H10X 3222   1.290   0.196   9.798  1.3011  0.8532 -0.8522
   24SAPC  H10Y 3223   1.343   0.366   9.865  0.2851 -0.5472 -2.5478
   24SAPC  C311 3224   1.162   0.371   9.751 -0.4746 -0.1069  0.1872
   24SAPC  H11X 3225   1.159   0.469   9.802 -1.6453  0.4046 -0.8148
   24SAPC  H11Y 3226   1.060   0.329   9.766 -1.0139  1.9747  2.5724
   24SAPC  C312 3227   1.207   0.387   9.604 -0.2674 -0.3672  0.1804
   24SAPC  H12X 3228   1.280   0.306   9.581  0.2281  1.0993 -3.8227
   24SAPC  H12Y 3229   1.260   0.484   9.591 -0.1779 -0.5130 -0.5725
   24SAPC  C313 3230   1.098   0.380   9.496 -0.0525 -0.1784  0.1620
   24SAPC  H13X 3231   1.008   0.441   9.518 -1.3434 -1.9960  0.1094
   24SAPC  H13Y 3232   1.062   0.274   9.499  1.8586 -0.8119  2.1096
   24SAPC  C314 3233   1.160   0.402   9.356 -0.5350 -0.2646  0.0781
   24SAPC  H14X 3234   1.189   0.299   9.326 -1.2455 -0.1912 -0.8674
   24SAPC  H14Y 3235   1.246   0.472   9.369 -1.3790  0.5701  1.2111
   24SAPC  C315 3236   1.074   0.467   9.247 -1.0169 -0.2548 -0.1869
   24SAPC  H15X 3237   1.130   0.479   9.151 -1.2931  2.0724 -0.0850
   24SAPC  H15Y 3238   1.049   0.566   9.290 -2.2145 -0.7014  0.1584
   24SAPC  C316 3239   0.955   0.377   9.202  0.2119  0.4267  0.2317
   24SAPC  H16X 3240   0.935   0.306   9.285  3.0002 -2.4950 -1.4430
   24SAPC  H16Y 3241   1.004   0.312   9.126 -1.2109 -0.3305 -0.0560
   24SAPC  C317 3242   0.838   0.452   9.141  0.5742  0.2041 -0.0351
   24SAPC  H17X 3243   0.791   0.520   9.216 -0.2545 -2.0158  1.5136
   24SAPC  H17Y 3244   0.760   0.379   9.109 -1.0669  0.6099  2.8700
   24SAPC  C318 3245   0.882   0.536   9.014  0.2745  0.8802 -0.3556
   24SAPC  H18X 3246   0.962   0.608   9.037  0.4470 -0.0406  2.1100
   24SAPC  H18Y 3247   0.797   0.596   8.974 -1.7908 -0.9221  1.1544
   24SAPC  H18Z 3248   0.914   0.461   8.938 -0.6001 -0.1199  0.2405
   25SAPC     N 3249   5.110   4.673   5.865  0.0566  0.0717  0.3376
   25SAPC   C12 3250   5.193   4.758   5.959  0.0135  0.5084  0.2638
   25SAPC  H12A 3251   5.293   4.718   5.946 -0.7657 -1.0680 -1.0064
   25SAPC  H12B 3252   5.168   4.737   6.062 -0.9500 -1.5423 -0.3614
   25SAPC   C13 3253   5.171   4.661   5.730  0.7258 -0.1103 -0.1962
   25SAPC  H13A 3254   5.150   4.746   5.666  0.1281  0.3079  0.5411
   25SAPC  H13B 3255   5.278   4.652   5.740  0.6695  0.0318  0.5181
   25SAPC  H13C 3256   5.125   4.585   5.668  0.0663 -0.9456  1.2848
   25SAPC   C14 3257   5.117   4.533   5.916 -0.7888  0.3652  0.1977
   25SAPC  H14A 3258   5.067   4.461   5.853  1.3057 -0.3695 -0.6542
   25SAPC  H14B 3259   5.219   4.501   5.931 -0.6130  1.0027  0.3471
   25SAPC  H14C 3260   5.062   4.520   6.008  0.1826  0.0359  0.7370
   25SAPC   C15 3261   4.976   4.726   5.858 -0.0577 -0.6286 -0.8840
   25SAPC  H15A 3262   4.939   4.728   5.959 -1.4798  2.7254 -1.3861
   25SAPC  H15B 3263   4.976   4.828   5.822  1.0626 -1.0866 -2.2385
   25SAPC  H15C 3264   4.906   4.663   5.806  1.0790 -1.9881 -0.7840
   25SAPC   C11 3265   5.196   4.910   5.941 -0.9157 -0.4030 -0.1392
   25SAPC  H11A 3266   5.206   4.940   5.834  0.3043  0.0960  0.1169
   25SAPC  H11B 3267   5.276   4.950   6.006 -0.8746 -2.6324  1.2254
   25SAPC     P 3268   5.042   4.998   6.133 -0.3233 -0.3111  0.2354
   25SAPC   O13 3269   4.895   5.032   6.151 -0.5284 -0.0822 -0.1671
   25SAPC   O14 3270   5.088   4.883   6.219 -0.2203 -0.2473 -0.2092
   25SAPC   O12 3271   5.071   4.970   5.981  0.2516 -0.4956 -0.4511
   25SAPC   O11 3272   5.129   5.128   6.153 -0.2575 -0.5305  0.0676
   25SAPC    C1 3273   5.256   5.125   6.216 -0.3168  0.1325  0.1089
   25SAPC    HA 3274   5.291   5.020   6.217 -0.7339 -0.0196 -0.5958
   25SAPC    HB 3275   5.323   5.191   6.156  0.7434 -0.8396  0.2047
   25SAPC    C2 3276   5.244   5.187   6.356  0.4079 -0.3196 -0.6669
   25SAPC    HS 3277   5.344   5.195   6.405  0.5163  1.0500 -1.0890
   25SAPC   O21 3278   5.157   5.111   6.439 -0.2199  0.0593  0.7867
   25SAPC   C21 3279   5.212   4.998   6.486 -0.3733 -0.8521  0.7735
   25SAPC   O22 3280   5.329   4.966   6.459  1.0920 -0.4155  0.0875
   25SAPC   C22 3281   5.103   4.929   6.570 -0.3809 -0.6253  0.4627
   25SAPC   H2R 3282   5.012   4.993   6.567 -0.5989 -0.9715 -0.4875
   25SAPC   H2S 3283   5.062   4.834   6.528 -1.7366  0.2189 -0.1556
   25SAPC    C3 3284   5.186   5.334   6.354  0.0263 -0.1633  0.3305
   25SAPC    HX 3285   5.117   5.334   6.267 -0.2027  1.0755  0.4983
   25SAPC    HY 3286   5.261   5.404   6.311  1.7231 -0.5049  2.6251
   25SAPC   O31 3287   5.130   5.383   6.475 -0.1384 -0.4285 -0.3969
   25SAPC   C31 3288   5.221   5.426   6.563  0.4582  0.9217  0.1043
   25SAPC   O32 3289   5.340   5.401   6.545  0.5717  0.2208  0.3830
   25SAPC   C32 3290   5.167   5.491   6.694  0.1742 -0.1204  0.0978
   25SAPC   H2X 3291   5.140   5.592   6.657  1.7382  0.9436  1.7760
   25SAPC   H2Y 3292   5.247   5.490   6.772  1.8574  0.8058 -1.5781
   25SAPC   C23 3293   5.148   4.910   6.717 -0.2363  0.4560  1.0363
   25SAPC   H3R 3294   5.250   4.868   6.720 -0.5445 -0.5323 -1.5585
   25SAPC   H3S 3295   5.078   4.836   6.762  0.3850 -1.1844 -0.6088
   25SAPC   C24 3296   5.161   5.035   6.806 -0.6661 -0.1802 -0.0892
   25SAPC   H4R 3297   5.053   5.062   6.814 -0.9373 -1.0006 -0.9640
   25SAPC   H4S 3298   5.210   5.123   6.759 -0.5757  0.8121  1.8277
   25SAPC   C25 3299   5.222   4.999   6.934 -0.7562  0.0383 -0.7838
   25SAPC   H5R 3300   5.320   4.949   6.926  0.2080  1.6022  0.7086
   25SAPC   C26 3301   5.166   5.014   7.060  0.3350  0.1495  0.0757
   25SAPC   H6R 3302   5.228   4.980   7.144 -0.4801 -0.6423  0.3583
   25SAPC   C27 3303   5.039   5.088   7.090  0.3294 -0.3093  0.2662
   25SAPC   H7R 3304   4.947   5.025   7.086  0.1520  0.0415 -2.6735
   25SAPC   H7S 3305   5.020   5.164   7.011  1.9868  0.4817  0.5994
   25SAPC   C28 3306   5.030   5.161   7.223  0.3978  0.4603  0.3226
   25SAPC   H8R 3307   5.048   5.269   7.208 -0.5768  0.4398 -1.1182
   25SAPC   C29 3308   4.990   5.107   7.344  0.4991 -0.2002 -0.5553
   25SAPC   H9R 3309   4.984   5.169   7.435 -0.7964 -1.7939  0.4877
   25SAPC  C210 3310   4.942   4.966   7.365  0.5466 -0.2332 -0.1886
   25SAPC  H10R 3311   4.976   4.943   7.468 -0.1140  3.1390  0.8583
   25SAPC  H10S 3312   4.995   4.889   7.304 -2.7731 -3.1606  0.5062
   25SAPC  C211 3313   4.796   4.944   7.346  0.3865  0.5897 -0.3702
   25SAPC  H11R 3314   4.732   5.020   7.300 -1.8248 -0.9333  0.0889
   25SAPC  C212 3315   4.728   4.846   7.412 -0.0697  0.3829 -0.0790
   25SAPC  H12R 3316   4.619   4.836   7.401 -0.1845 -1.7808  2.5098
   25SAPC  C213 3317   4.792   4.734   7.495  0.5703  0.5187 -0.8979
   25SAPC  H13R 3318   4.748   4.734   7.597  0.3318  0.3979 -0.9995
   25SAPC  H13S 3319   4.902   4.728   7.492  0.4020 -2.7496 -1.8336
   25SAPC  C214 3320   4.753   4.608   7.424 -0.4412 -0.1770 -0.3750
   25SAPC  H14R 3321   4.806   4.591   7.329  0.9919 -3.5535  0.9712
   25SAPC  C215 3322   4.652   4.531   7.439  0.6374 -0.7225  0.0946
   25SAPC  H15R 3323   4.637   4.451   7.364 -1.4666  0.5570 -0.8853
   25SAPC  C216 3324   4.539   4.534   7.538 -0.1492 -1.0898  0.1304
   25SAPC  H16R 3325   4.545   4.629   7.596  0.4750  0.8661 -3.0081
   25SAPC  H16S 3326   4.563   4.447   7.602 -1.1695 -1.5757 -0.1532
   25SAPC  C217 3327   4.405   4.515   7.480 -0.4330 -0.6609 -0.3773
   25SAPC  H17R 3328   4.405   4.590   7.397  2.5510 -0.3087 -0.1087
   25SAPC  H17S 3329   4.329   4.521   7.561  1.5755 -2.6344  1.7106
   25SAPC  C218 3330   4.384   4.384   7.407 -0.2770 -0.2182 -0.9169
   25SAPC  H18R 3331   4.365   4.313   7.491  1.7989 -0.6616 -0.7888
   25SAPC  H18S 3332   4.469   4.348   7.345 -0.7272 -4.2143  0.6082
   25SAPC  C219 3333   4.263   4.390   7.305 -0.2741 -0.1097 -0.3167
   25SAPC  H19R 3334   4.245   4.287   7.269 -1.7937  0.6417 -1.8329
   25SAPC  H19S 3335   4.275   4.464   7.222  1.9282  0.6466  0.6383
   25SAPC  C220 3336   4.124   4.412   7.370  0.0879 -0.4444  0.1398
   25SAPC  H20R 3337   4.046   4.419   7.290 -0.0429  0.0898  0.3126
   25SAPC  H20S 3338   4.113   4.507   7.427 -3.4411  0.4914 -1.9000
   25SAPC  H20T 3339   4.103   4.317   7.422 -0.5857  0.3496  1.3401
   25SAPC   C33 3340   5.042   5.411   6.755  0.0564 -0.2426 -0.0516
   25SAPC   H3X 3341   5.098   5.325   6.799 -1.2293 -0.5774  0.9619
   25SAPC   H3Y 3342   4.973   5.378   6.675 -0.7990  0.7560  0.2604
   25SAPC   C34 3343   4.971   5.491   6.871  0.1544 -0.1059 -0.3155
   25SAPC   H4X 3344   4.890   5.423   6.905  0.1934 -0.3552 -0.7193
   25SAPC   H4Y 3345   4.927   5.583   6.827 -0.5130  0.4326  1.4571
   25SAPC   C35 3346   5.069   5.509   6.987 -0.2836 -0.3084 -0.5919
   25SAPC   H5X 3347   5.158   5.572   6.966  0.5563 -1.2204  0.1879
   25SAPC   H5Y 3348   5.114   5.410   7.010 -0.7681 -0.1335  1.1935
   25SAPC   C36 3349   4.992   5.560   7.111  0.1781 -0.3475  0.2652
   25SAPC   H6X 3350   4.896   5.504   7.115 -0.4511  0.7722  1.0969
   25SAPC   H6Y 3351   4.966   5.665   7.085 -0.9155 -1.0865 -1.6936
   25SAPC   C37 3352   5.060   5.552   7.245 -0.9417 -0.1132  0.2125
   25SAPC   H7X 3353   5.137   5.632   7.246  3.5193 -4.0517 -2.8765
   25SAPC   H7Y 3354   5.119   5.458   7.240 -0.0538  0.3532  1.9573
   25SAPC   C38 3355   4.963   5.547   7.362 -0.0430 -0.4441 -0.0814
   25SAPC   H8X 3356   4.883   5.471   7.344 -1.0584  0.5325  0.2340
   25SAPC   H8Y 3357   4.911   5.645   7.355 -0.0885 -0.6355 -3.1378
   25SAPC   C39 3358   5.017   5.524   7.507  0.1368 -0.7660 -0.6082
   25SAPC   H9X 3359   5.083   5.609   7.534 -0.2420  0.0692 -2.2568
   25SAPC   H9Y 3360   5.067   5.428   7.530  1.6512  0.4967  1.6420
   25SAPC  C310 3361   4.909   5.543   7.618  0.0601 -0.0646  0.0822
   25SAPC  H10X 3362   4.814   5.489   7.598 -0.5927  1.1310 -0.1599
   25SAPC  H10Y 3363   4.880   5.651   7.621  2.5765  0.6060  1.8640
   25SAPC  C311 3364   4.960   5.500   7.756  0.9522  0.8740  0.1261
   25SAPC  H11X 3365   4.891   5.533   7.837 -0.5539 -1.4959 -0.1275
   25SAPC  H11Y 3366   5.065   5.532   7.775  0.7418  0.2262  2.5986
   25SAPC  C312 3367   4.976   5.348   7.767  0.1542 -0.2501  0.1397
   25SAPC  H12X 3368   5.029   5.302   7.681 -0.0347  1.0309 -0.6604
   25SAPC  H12Y 3369   4.874   5.305   7.764 -0.9182  2.1785  1.0180
   25SAPC  C313 3370   5.058   5.303   7.895  0.5693 -1.0631  0.0322
   25SAPC  H13X 3371   5.156   5.354   7.901  0.9047 -1.9180  2.3766
   25SAPC  H13Y 3372   5.079   5.194   7.893  0.0977 -1.1358 -1.5821
   25SAPC  C314 3373   4.979   5.316   8.020  0.0342  0.1001 -0.1619
   25SAPC  H14X 3374   4.897   5.242   8.022  0.5539 -0.4579  1.5607
   25SAPC  H14Y 3375   4.929   5.415   8.015  1.2810  0.6968 -0.8373
   25SAPC  C315 3376   5.061   5.303   8.153  0.3725 -0.3799 -0.1608
   25SAPC  H15X 3377   5.144   5.376   8.151 -0.0956  0.1448 -0.5640
   25SAPC  H15Y 3378   5.107   5.202   8.158 -1.1921 -1.2753 -2.8341
   25SAPC  C316 3379   4.982   5.334   8.279  0.5053 -0.0798 -0.0445
   25SAPC  H16X 3380   4.878   5.298   8.264  1.2322 -2.4166  0.3262
   25SAPC  H16Y 3381   4.976   5.445   8.288  1.3362  0.1425 -1.9693
   25SAPC  C317 3382   5.030   5.270   8.410  0.0674 -0.6275 -0.7637
   25SAPC  H17X 3383   5.134   5.305   8.430 -0.3698 -0.2731  0.9074
   25SAPC  H17Y 3384   5.036   5.161   8.392  0.6912 -1.1972  2.6723
   25SAPC  C318 3385   4.941   5.298   8.535  0.4017 -0.1915  0.7664
   25SAPC  H18X 3386   4.926   5.408   8.543  0.7581 -0.2346  2.0577
   25SAPC  H18Y 3387   5.001   5.261   8.620  1.1754 -2.4289 -0.7076
   25SAPC  H18Z 3388   4.844   5.247   8.517 -1.0409  2.7130 -0.0388
   26SAPC     N 3389   4.672   6.323   5.966  0.4242 -0.5540  0.2030
   26SAPC   C12 3390   4.754   6.436   6.036 -0.2956  0.5175 -0.0872
   26SAPC  H12A 3391   4.851   6.450   5.991 -0.8664  0.1825 -1.4409
   26SAPC  H12B 3392   4.773   6.406   6.138 -1.4369 -0.3996 -0.1394
   26SAPC   C13 3393   4.745   6.194   5.983  0.3312 -0.2373 -0.2352
   26SAPC  H13A 3394   4.685   6.107   5.961 -0.8949  0.7752 -0.9568
   26SAPC  H13B 3395   4.841   6.192   5.934  0.0840 -0.1125 -0.7245
   26SAPC  H13C 3396   4.778   6.186   6.086  0.0368  0.2559 -0.1010
   26SAPC   C14 3397   4.541   6.311   6.032  0.2404 -0.4618 -0.0846
   26SAPC  H14A 3398   4.550   6.253   6.123 -1.9756 -1.3669 -0.4003
   26SAPC  H14B 3399   4.513   6.411   6.062 -1.6329 -0.6350 -1.1983
   26SAPC  H14C 3400   4.468   6.258   5.973  0.2460 -2.8543  1.9745
   26SAPC   C15 3401   4.660   6.352   5.821 -1.0528  0.3360 -0.0252
   26SAPC  H15A 3402   4.621   6.263   5.774  0.8300 -0.1529 -0.7106
   26SAPC  H15B 3403   4.603   6.440   5.794  1.4613  1.6561 -1.2881
   26SAPC  H15C 3404   4.761   6.362   5.782 -0.8069 -1.3149  0.1612
   26SAPC   C11 3405   4.683   6.570   6.025 -0.1521 -0.9117 -0.0923
   26SAPC  H11A 3406   4.573   6.568   6.043  0.0399  2.2298  1.7573
   26SAPC  H11B 3407   4.699   6.605   5.921 -1.1424 -1.1343 -0.3278
   26SAPC     P 3408   4.727   6.671   6.263 -0.0213 -0.5530 -0.0526
   26SAPC   O13 3409   4.587   6.691   6.315  0.0891  0.4293 -0.5860
   26SAPC   O14 3410   4.792   6.544   6.300 -0.6208 -0.0994 -0.9632
   26SAPC   O12 3411   4.729   6.679   6.104  0.2083 -0.4375  0.0851
   26SAPC   O11 3412   4.811   6.798   6.303 -0.3578  0.1469 -0.1395
   26SAPC    C1 3413   4.748   6.923   6.314 -0.3456  0.1817  0.1268
   26SAPC    HA 3414   4.805   6.993   6.250  0.0845 -0.4033 -0.1322
   26SAPC    HB 3415   4.643   6.926   6.276 -0.7877  0.2133  1.3276
   26SAPC    C2 3416   4.742   6.980   6.457 -0.7587 -0.8955  0.0047
   26SAPC    HS 3417   4.730   7.090   6.445  0.0348 -0.8749 -0.6431
   26SAPC   O21 3418   4.863   6.950   6.528  0.5656 -0.4141 -0.4407
   26SAPC   C21 3419   4.882   7.033   6.629  0.1007  0.4104  0.4109
   26SAPC   O22 3420   4.849   7.151   6.627  0.0376  0.1340 -0.0875
   26SAPC   C22 3421   4.933   6.955   6.746  0.1930 -0.1817  0.1714
   26SAPC   H2R 3422   4.877   6.863   6.773 -1.3850  0.9388  0.7849
   26SAPC   H2S 3423   5.024   6.907   6.704 -0.9412 -2.2975  0.0656
   26SAPC    C3 3424   4.627   6.909   6.535 -0.4825  0.0522 -0.0301
   26SAPC    HX 3425   4.648   6.802   6.557 -1.8073  0.3093  2.7244
   26SAPC    HY 3426   4.544   6.892   6.464 -1.3434  1.5100  0.6059
   26SAPC   O31 3427   4.590   6.979   6.662 -0.0671  0.3262 -0.1154
   26SAPC   C31 3428   4.500   7.070   6.642 -0.1220 -0.0649 -0.3273
   26SAPC   O32 3429   4.448   7.110   6.538  0.2552  0.0800 -0.7339
   26SAPC   C32 3430   4.491   7.131   6.783 -0.1704 -0.3881  0.2630
   26SAPC   H2X 3431   4.585   7.182   6.815 -0.1747 -1.5379  2.2186
   26SAPC   H2Y 3432   4.462   7.056   6.859  0.6727 -1.3449 -0.3496
   26SAPC   C23 3433   4.959   7.043   6.873  0.5603 -0.4791  0.9167
   26SAPC   H3R 3434   5.003   7.137   6.834 -1.3264 -0.7938 -2.1198
   26SAPC   H3S 3435   5.025   6.996   6.949  1.3863  0.5170  0.8304
   26SAPC   C24 3436   4.828   7.077   6.950  0.1073  0.1722 -0.0655
   26SAPC   H4R 3437   4.767   7.144   6.886  0.5843 -1.4314 -2.2813
   26SAPC   H4S 3438   4.869   7.129   7.039  2.3094 -0.5062 -0.6551
   26SAPC   C25 3439   4.744   6.956   6.995  0.2755  0.3072  0.4163
   26SAPC   H5R 3440   4.709   6.895   6.909  0.6024 -1.9448  1.8376
   26SAPC   C26 3441   4.707   6.907   7.118  0.1658  1.4402  0.7370
   26SAPC   H6R 3442   4.646   6.817   7.132  1.0734  1.1354  3.0100
   26SAPC   C27 3443   4.752   6.967   7.250 -0.2411  0.0582 -0.3294
   26SAPC   H7R 3444   4.744   7.078   7.247 -2.1621 -0.1004 -2.5906
   26SAPC   H7S 3445   4.862   6.951   7.246 -0.1207  0.7050  0.2853
   26SAPC   C28 3446   4.688   6.932   7.385 -0.3564  0.7095  0.2222
   26SAPC   H8R 3447   4.582   6.905   7.372 -0.6933  2.5340 -1.0081
   26SAPC   C29 3448   4.752   6.925   7.503 -0.2125  0.4205 -0.0642
   26SAPC   H9R 3449   4.689   6.899   7.589 -0.4407  3.7088  0.8272
   26SAPC  C210 3450   4.893   6.957   7.528  0.5413 -0.2611  0.1498
   26SAPC  H10R 3451   4.909   7.050   7.471 -0.9205 -0.1579 -0.1113
   26SAPC  H10S 3452   4.954   6.881   7.474 -0.4938  0.5546 -2.2357
   26SAPC  C211 3453   4.931   6.968   7.671 -0.2867 -0.2063 -0.1756
   26SAPC  H11R 3454   4.954   7.069   7.706  1.8459 -0.9067  0.5063
   26SAPC  C212 3455   4.934   6.865   7.760  0.5538 -0.5181  0.6179
   26SAPC  H12R 3456   4.975   6.888   7.860 -1.0104 -1.4706  1.5092
   26SAPC  C213 3457   4.919   6.716   7.730  0.3828  0.3513 -0.4947
   26SAPC  H13R 3458   4.907   6.704   7.620  4.2600  3.2715 -1.3427
   26SAPC  H13S 3459   4.837   6.673   7.791  0.3597  0.6120 -0.3428
   26SAPC  C214 3460   5.047   6.638   7.759 -0.0521  0.3469  1.2994
   26SAPC  H14R 3461   5.126   6.694   7.811  1.8125 -2.3529  1.5007
   26SAPC  C215 3462   5.088   6.513   7.714 -0.1622 -0.8075 -0.5529
   26SAPC  H15R 3463   5.185   6.469   7.743 -0.5632 -1.3642 -0.0503
   26SAPC  C216 3464   5.013   6.416   7.627  0.7294  0.1342  0.4812
   26SAPC  H16R 3465   4.905   6.439   7.621  0.6819  0.4755  2.4730
   26SAPC  H16S 3466   5.009   6.311   7.662 -1.9342  0.1232  0.2555
   26SAPC  C217 3467   5.073   6.430   7.478  0.0804  0.0239  0.0864
   26SAPC  H17R 3468   5.016   6.362   7.412  0.3290 -0.1742  0.0748
   26SAPC  H17S 3469   5.172   6.380   7.481 -0.1459 -0.4203  0.2841
   26SAPC  C218 3470   5.073   6.573   7.429  0.1073  0.9171 -0.4949
   26SAPC  H18R 3471   5.145   6.642   7.476 -0.1187  0.5773  0.3635
   26SAPC  H18S 3472   4.976   6.622   7.454  0.0917  0.2150  0.8653
   26SAPC  C219 3473   5.098   6.565   7.278 -0.2240  0.6641 -0.3610
   26SAPC  H19R 3474   5.045   6.481   7.229 -0.1423 -0.1386  0.9043
   26SAPC  H19S 3475   5.203   6.530   7.267 -1.2939 -2.4969 -1.1196
   26SAPC  C220 3476   5.065   6.700   7.207 -0.2375 -0.2488  0.1052
   26SAPC  H20R 3477   4.981   6.753   7.257  3.7705  3.8195  2.9946
   26SAPC  H20S 3478   5.034   6.688   7.101 -0.4911 -0.5619  0.2121
   26SAPC  H20T 3479   5.149   6.773   7.219  0.8143 -1.8243  2.6452
   26SAPC   C33 3480   4.378   7.240   6.798  0.5360  0.3193  0.3251
   26SAPC   H3X 3481   4.276   7.196   6.787 -0.0596  1.7386  0.0497
   26SAPC   H3Y 3482   4.384   7.317   6.718  0.6006  1.2560  1.2133
   26SAPC   C34 3483   4.391   7.313   6.935 -0.0733  0.2519 -0.6693
   26SAPC   H4X 3484   4.312   7.392   6.936 -0.2467  0.0785 -0.5264
   26SAPC   H4Y 3485   4.493   7.356   6.929 -0.6963  1.8824  0.1262
   26SAPC   C35 3486   4.366   7.219   7.059 -0.2341 -0.6886 -0.0529
   26SAPC   H5X 3487   4.429   7.127   7.060  0.1432 -0.4704  4.1398
   26SAPC   H5Y 3488   4.258   7.192   7.066  0.0901 -1.4272  2.5112
   26SAPC   C36 3489   4.389   7.294   7.190  0.5479 -0.4298  0.2093
   26SAPC   H6X 3490   4.291   7.331   7.227  0.1683 -0.2762 -0.9289
   26SAPC   H6Y 3491   4.451   7.383   7.168  1.2561  0.0827  3.9558
   26SAPC   C37 3492   4.448   7.201   7.301  0.1522 -0.2081 -0.4304
   26SAPC   H7X 3493   4.525   7.138   7.251  0.6839 -0.3930  0.5927
   26SAPC   H7Y 3494   4.368   7.130   7.330  2.0172 -1.8635  0.8527
   26SAPC   C38 3495   4.489   7.285   7.425  0.0715  0.3216 -0.8636
   26SAPC   H8X 3496   4.429   7.379   7.436  1.2697  0.8890  1.0378
   26SAPC   H8Y 3497   4.589   7.332   7.412  0.7932 -1.6598 -2.6184
   26SAPC   C39 3498   4.475   7.204   7.555 -0.2751  0.1540 -0.0798
   26SAPC   H9X 3499   4.510   7.101   7.534  1.8649  0.9384 -0.5739
   26SAPC   H9Y 3500   4.366   7.211   7.570 -0.4396  1.2392 -1.6286
   26SAPC  C310 3501   4.550   7.272   7.676 -0.0183 -0.1440  0.3582
   26SAPC  H10X 3502   4.507   7.374   7.692  1.1122  0.0737  2.2342
   26SAPC  H10Y 3503   4.657   7.291   7.654  0.5400 -3.4240  0.0418
   26SAPC  C311 3504   4.530   7.200   7.812 -0.0357 -0.0459  0.0892
   26SAPC  H11X 3505   4.576   7.098   7.810 -1.0143 -0.4769 -1.7108
   26SAPC  H11Y 3506   4.424   7.169   7.817 -0.0400 -0.0660 -0.1279
   26SAPC  C312 3507   4.551   7.282   7.947 -1.1580 -0.7090  0.3116
   26SAPC  H12X 3508   4.494   7.375   7.922  1.4944  0.9688  0.3452
   26SAPC  H12Y 3509   4.656   7.316   7.956 -0.8287 -1.6878  0.1745
   26SAPC  C313 3510   4.493   7.221   8.075 -0.2130 -0.5447  0.5738
   26SAPC  H13X 3511   4.522   7.115   8.085 -0.3948 -0.5337  1.2137
   26SAPC  H13Y 3512   4.384   7.241   8.083  0.5620  4.2364  0.6926
   26SAPC  C314 3513   4.538   7.288   8.209  0.0971  0.1884 -0.0299
   26SAPC  H14X 3514   4.541   7.399   8.202 -1.1614  0.3044  1.0330
   26SAPC  H14Y 3515   4.628   7.238   8.250 -0.0801  1.4087  1.9095
   26SAPC  C315 3516   4.445   7.255   8.327  0.6505  0.0486 -0.3922
   26SAPC  H15X 3517   4.355   7.319   8.313 -1.0241 -2.2471 -0.4319
   26SAPC  H15Y 3518   4.498   7.291   8.417  1.1305 -0.9330 -0.2890
   26SAPC  C316 3519   4.407   7.109   8.360  0.9882  0.1468 -0.3015
   26SAPC  H16X 3520   4.502   7.058   8.388  0.0088 -0.4109  2.2210
   26SAPC  H16Y 3521   4.358   7.068   8.270  1.9300 -0.1445 -0.6938
   26SAPC  C317 3522   4.304   7.094   8.474 -0.0255 -0.3093 -0.7428
   26SAPC  H17X 3523   4.205   7.125   8.437 -0.1110  0.3684  0.0282
   26SAPC  H17Y 3524   4.335   7.160   8.558  0.5534  0.2923 -1.4235
   26SAPC  C318 3525   4.293   6.952   8.530 -0.1446 -0.5854 -0.4337
   26SAPC  H18X 3526   4.206   6.966   8.597  0.3862 -0.3923  0.2293
   26SAPC  H18Y 3527   4.382   6.929   8.594 -0.7940 -0.5723  0.4816
   26SAPC  H18Z 3528   4.271   6.874   8.453 -2.0845 -0.2116 -0.2705
   27SAPC     N 3529   2.029   1.217   6.422  0.0076 -0.3140  0.1869
   27SAPC   C12 3530   2.046   1.250   6.569 -0.5054  0.1730 -0.5290
   27SAPC  H12A 3531   1.960   1.301   6.611 -1.0362 -1.2290  0.1081
   27SAPC  H12B 3532   2.127   1.321   6.570 -0.8761  0.5915  1.5314
   27SAPC   C13 3533   1.925   1.119   6.402  0.2667  0.2137 -0.2469
   27SAPC  H13A 3534   1.939   1.030   6.462  0.2526  0.4702  0.1421
   27SAPC  H13B 3535   1.835   1.168   6.436  0.6865 -0.5980  2.1110
   27SAPC  H13C 3536   1.908   1.096   6.298 -3.3854  2.6002 -0.2799
   27SAPC   C14 3537   1.983   1.342   6.342  0.1660  0.3167 -0.3623
   27SAPC  H14A 3538   2.018   1.433   6.387  0.0130  0.4898 -0.5979
   27SAPC  H14B 3539   2.010   1.333   6.237 -2.5638  4.2361 -1.4824
   27SAPC  H14C 3540   1.877   1.358   6.351  0.1186  0.6199 -1.3347
   27SAPC   C15 3541   2.160   1.174   6.360 -0.3901  0.0950 -0.2054
   27SAPC  H15A 3542   2.230   1.256   6.363  1.0446 -1.1259  0.0027
   27SAPC  H15B 3543   2.197   1.092   6.419 -0.6883 -0.1680 -0.3839
   27SAPC  H15C 3544   2.159   1.138   6.259  1.3692  0.4572 -0.3595
   27SAPC   C11 3545   2.102   1.134   6.660  0.8921 -0.1864  0.7002
   27SAPC  H11A 3546   2.145   1.188   6.746 -0.3378  1.3332  0.3781
   27SAPC  H11B 3547   2.188   1.094   6.602  1.0851 -0.1916  0.9916
   27SAPC     P 3548   1.914   1.040   6.812 -0.0976  0.2701  0.7891
   27SAPC   O13 3549   1.920   1.174   6.870 -0.3218  0.0737  0.0421
   27SAPC   O14 3550   1.784   0.972   6.781 -0.0541 -0.0325  0.0783
   27SAPC   O12 3551   2.005   1.032   6.685 -0.4709 -0.3615  0.3320
   27SAPC   O11 3552   2.001   0.936   6.901  0.5697  0.3186 -0.6347
   27SAPC    C1 3553   2.023   0.802   6.858 -0.0814  0.5483 -0.0098
   27SAPC    HA 3554   1.949   0.762   6.785  1.8745 -1.9829 -0.7000
   27SAPC    HB 3555   2.123   0.787   6.812 -1.1131 -0.5059 -2.0124
   27SAPC    C2 3556   2.027   0.695   6.973  0.4585 -0.5536 -0.6799
   27SAPC    HS 3557   1.983   0.600   6.936  0.1699  0.8304 -3.9559
   27SAPC   O21 3558   1.953   0.749   7.084  0.0374  0.2475 -0.0211
   27SAPC   C21 3559   1.817   0.761   7.056  0.6817 -0.4573  0.4185
   27SAPC   O22 3560   1.765   0.695   6.964  0.0812 -0.2432  0.1574
   27SAPC   C22 3561   1.741   0.856   7.148  0.2672  0.3333 -0.4969
   27SAPC   H2R 3562   1.724   0.950   7.092  2.9178  1.9479  1.2982
   27SAPC   H2S 3563   1.644   0.802   7.155 -0.0801  0.7484 -1.9077
   27SAPC    C3 3564   2.181   0.670   7.017 -0.0484  0.2510 -0.3608
   27SAPC    HX 3565   2.223   0.765   7.057  0.3185 -0.1574  0.2395
   27SAPC    HY 3566   2.228   0.649   6.919  0.9207 -1.7692  0.4877
   27SAPC   O31 3567   2.186   0.559   7.101 -0.6000  0.5064 -0.4946
   27SAPC   C31 3568   2.312   0.517   7.127 -0.7754 -0.1036  1.0983
   27SAPC   O32 3569   2.416   0.569   7.090  0.2379  0.7648  0.1564
   27SAPC   C32 3570   2.303   0.389   7.210  0.0527  0.0805  0.2348
   27SAPC   H2X 3571   2.234   0.324   7.152  0.2647  1.7805 -2.0070
   27SAPC   H2Y 3572   2.271   0.433   7.307  0.1999 -1.0616  0.8078
   27SAPC   C23 3573   1.792   0.881   7.293  0.1926 -0.2463 -0.8058
   27SAPC   H3R 3574   1.849   0.977   7.297 -1.1414  0.5559 -0.8373
   27SAPC   H3S 3575   1.876   0.814   7.319 -0.6990 -1.7485 -1.7247
   27SAPC   C24 3576   1.676   0.876   7.402 -0.2941 -0.3864  0.2871
   27SAPC   H4R 3577   1.730   0.891   7.498  1.1016 -2.5451 -0.1010
   27SAPC   H4S 3578   1.628   0.776   7.406 -1.5013  0.0462 -2.5245
   27SAPC   C25 3579   1.569   0.986   7.384 -0.5260 -0.1265 -0.4405
   27SAPC   H5R 3580   1.548   1.012   7.279  1.6187 -1.0087 -1.1039
   27SAPC   C26 3581   1.504   1.053   7.479 -0.5555 -0.0488 -0.3059
   27SAPC   H6R 3582   1.453   1.143   7.441  1.4766  0.5795 -1.6423
   27SAPC   C27 3583   1.510   1.039   7.624  0.0460 -0.7215  0.2183
   27SAPC   H7R 3584   1.553   1.134   7.664  0.4535 -0.2595 -1.2980
   27SAPC   H7S 3585   1.587   0.962   7.646  0.4452 -1.4132 -3.3146
   27SAPC   C28 3586   1.374   1.004   7.679  0.2838 -0.0381 -0.0067
   27SAPC   H8R 3587   1.289   0.974   7.616  0.7161 -1.5455  0.1279
   27SAPC   C29 3588   1.354   0.999   7.810 -0.3334 -0.5967 -0.5332
   27SAPC   H9R 3589   1.252   0.981   7.848 -0.4330  0.2868 -0.3810
   27SAPC  C210 3590   1.456   1.037   7.912 -0.2051 -0.1008  0.2284
   27SAPC  H10R 3591   1.552   1.078   7.874  0.3266 -0.5361  1.0917
   27SAPC  H10S 3592   1.478   0.948   7.976  1.6314 -0.6086 -1.0602
   27SAPC  C211 3593   1.403   1.153   8.004  0.1387 -0.2165 -0.9588
   27SAPC  H11R 3594   1.380   1.244   7.947 -0.0113 -0.3875 -1.1726
   27SAPC  C212 3595   1.380   1.157   8.135 -0.1630  0.0387  0.0522
   27SAPC  H12R 3596   1.356   1.259   8.168 -0.4092 -0.4348  1.3817
   27SAPC  C213 3597   1.391   1.046   8.236  0.3563  0.7424  0.5517
   27SAPC  H13R 3598   1.445   0.957   8.195 -0.4209  1.2746 -1.7038
   27SAPC  H13S 3599   1.290   1.007   8.263  1.4418 -2.3780  0.3448
   27SAPC  C214 3600   1.458   1.106   8.351 -0.4279 -0.2404  0.0186
   27SAPC  H14R 3601   1.558   1.149   8.334  1.0926 -2.4278  3.0281
   27SAPC  C215 3602   1.416   1.120   8.473  0.4272 -0.0118 -0.4203
   27SAPC  H15R 3603   1.489   1.156   8.547  0.5569 -0.7926 -0.1585
   27SAPC  C216 3604   1.286   1.078   8.528  0.5486  0.0606 -0.4740
   27SAPC  H16R 3605   1.304   1.064   8.637 -0.0118 -1.9359 -0.6179
   27SAPC  H16S 3606   1.260   0.979   8.484  2.7154 -2.1556  2.9528
   27SAPC  C217 3607   1.172   1.181   8.525  0.3290  0.0697  0.3672
   27SAPC  H17R 3608   1.129   1.201   8.425 -0.6995 -2.6609  0.2150
   27SAPC  H17S 3609   1.202   1.280   8.566 -3.1452  0.8899  1.0661
   27SAPC  C218 3610   1.053   1.135   8.615  0.3055 -0.6063  0.0578
   27SAPC  H18R 3611   1.072   1.126   8.724  0.3587 -2.0919 -0.0660
   27SAPC  H18S 3612   1.036   1.029   8.586  1.1718 -1.2254  1.7503
   27SAPC  C219 3613   0.927   1.211   8.601  0.5605  0.7422 -0.2394
   27SAPC  H19R 3614   0.844   1.151   8.645  0.8026  0.7223  0.1870
   27SAPC  H19S 3615   0.906   1.233   8.494  2.5962  0.7836 -0.6573
   27SAPC  C220 3616   0.922   1.347   8.659  0.3659 -0.7698 -0.5029
   27SAPC  H20R 3617   0.989   1.409   8.595  0.4398 -0.6294 -0.2911
   27SAPC  H20S 3618   0.952   1.338   8.765  1.2925 -4.1042 -0.9975
   27SAPC  H20T 3619   0.818   1.386   8.653  1.1512  1.9490  2.2424
   27SAPC   C33 3620   2.441   0.312   7.230 -0.7378  0.3118 -0.4776
   27SAPC   H3X 3621   2.497   0.385   7.292 -0.6730  0.4728 -0.7244
   27SAPC   H3Y 3622   2.493   0.287   7.136 -0.7123 -0.7480 -0.1793
   27SAPC   C34 3623   2.433   0.181   7.316 -0.1795  0.0920  0.5001
   27SAPC   H4X 3624   2.535   0.140   7.333 -0.3930 -0.5518  0.2298
   27SAPC   H4Y 3625   2.371   0.122   7.245  0.7003 -0.6498  0.3335
   27SAPC   C35 3626   2.357   0.200   7.450 -0.0380  0.4812  0.2614
   27SAPC   H5X 3627   2.256   0.246   7.444 -1.0035 -1.5399  0.5768
   27SAPC   H5Y 3628   2.422   0.259   7.519  0.3742 -0.5476  0.7578
   27SAPC   C36 3629   2.328   0.066   7.516  0.5597  0.2439 -0.1509
   27SAPC   H6X 3630   2.409  -0.009   7.504 -0.7520 -1.2349  0.1018
   27SAPC   H6Y 3631   2.247   0.012   7.463 -0.5903  0.7213  1.0860
   27SAPC   C37 3632   2.299   0.071   7.664 -0.0106 -0.4596  0.1634
   27SAPC   H7X 3633   2.392   0.110   7.711  1.8702 -0.1755 -3.6311
   27SAPC   H7Y 3634   2.270  -0.027   7.709  2.3743 -1.0348  0.4830
   27SAPC   C38 3635   2.182   0.163   7.699 -0.5965 -0.3238 -0.4102
   27SAPC   H8X 3636   2.090   0.138   7.643 -2.6415  2.5588  1.4973
   27SAPC   H8Y 3637   2.219   0.264   7.670  0.7831 -0.9959 -1.0421
   27SAPC   C39 3638   2.149   0.139   7.845  0.0569  0.1559 -0.6428
   27SAPC   H9X 3639   2.122   0.033   7.862 -0.6151  0.6195  1.2942
   27SAPC   H9Y 3640   2.055   0.194   7.868 -0.1173  0.0084 -1.0005
   27SAPC  C310 3641   2.274   0.174   7.932 -0.1729  0.0710 -0.6826
   27SAPC  H10X 3642   2.306   0.276   7.900 -0.3905  0.2186 -0.4323
   27SAPC  H10Y 3643   2.357   0.105   7.908  0.5847 -0.7234  3.7913
   27SAPC  C311 3644   2.263   0.161   8.081 -0.4096  0.7820 -0.2567
   27SAPC  H11X 3645   2.363   0.165   8.130 -0.4607  0.0942 -0.0896
   27SAPC  H11Y 3646   2.233   0.056   8.102  1.7435  0.3145  0.5966
   27SAPC  C312 3647   2.178   0.274   8.139  0.6638 -0.4509 -0.9389
   27SAPC  H12X 3648   2.074   0.243   8.116  0.3759 -0.0782 -0.1737
   27SAPC  H12Y 3649   2.181   0.375   8.091 -0.9054  1.0429  1.9527
   27SAPC  C313 3650   2.203   0.280   8.282 -0.3367 -0.1826 -0.0937
   27SAPC  H13X 3651   2.309   0.296   8.312 -0.9054  2.1044  0.8079
   27SAPC  H13Y 3652   2.166   0.186   8.329  2.5343 -0.7977  1.0225
   27SAPC  C314 3653   2.133   0.398   8.347  1.1575  0.5218 -0.0276
   27SAPC  H14X 3654   2.030   0.408   8.308  1.4953  0.5082 -0.9356
   27SAPC  H14Y 3655   2.185   0.491   8.313 -0.0977  0.5634 -1.8651
   27SAPC  C315 3656   2.136   0.397   8.499 -0.1391 -0.4151 -0.5168
   27SAPC  H15X 3657   2.237   0.409   8.544  0.5431 -1.4981 -1.7433
   27SAPC  H15Y 3658   2.093   0.300   8.532  1.5462 -0.9740  0.1030
   27SAPC  C316 3659   2.046   0.512   8.561  0.0387 -0.0935 -0.8777
   27SAPC  H16X 3660   1.942   0.474   8.558  0.0385 -0.3160  1.1122
   27SAPC  H16Y 3661   2.043   0.593   8.485 -0.1510  0.1987 -0.5582
   27SAPC  C317 3662   2.090   0.567   8.702 -0.3513 -0.3768  0.0101
   27SAPC  H17X 3663   2.189   0.614   8.688  0.3211 -1.9537 -0.7298
   27SAPC  H17Y 3664   2.108   0.472   8.757  1.1813 -0.1568 -0.0951
   27SAPC  C318 3665   1.992   0.661   8.773 -0.8644  0.2711  0.0384
   27SAPC  H18X 3666   1.902   0.610   8.811  0.5422 -0.2126  2.8786
   27SAPC  H18Y 3667   1.959   0.741   8.703 -1.0517  0.9408  0.8873
   27SAPC  H18Z 3668   2.039   0.706   8.863  1.8949 -0.7092 -0.8595
   28SAPC     N 3669   1.346   4.560   6.145  0.5604  0.4248 -0.2291
   28SAPC   C12 3670   1.372   4.417   6.122 -0.0422  0.1709  0.0490
   28SAPC  H12A 3671   1.464   4.409   6.067  0.4020  0.8229  0.7016
   28SAPC  H12B 3672   1.291   4.371   6.067  1.8367 -0.4279 -2.2776
   28SAPC   C13 3673   1.349   4.628   6.011 -0.5116  0.5133 -0.6108
   28SAPC  H13A 3674   1.296   4.572   5.936 -0.2445  1.3952 -1.4793
   28SAPC  H13B 3675   1.309   4.728   6.012  2.3102  1.7004  1.1066
   28SAPC  H13C 3676   1.451   4.632   5.974 -0.3327 -0.2616 -0.2090
   28SAPC   C14 3677   1.216   4.581   6.206  0.3227  0.9409  0.5492
   28SAPC  H14A 3678   1.204   4.688   6.220  0.8509  1.0637  0.0557
   28SAPC  H14B 3679   1.132   4.542   6.150 -1.0196  0.2936  2.9236
   28SAPC  H14C 3680   1.204   4.533   6.302 -3.2367 -0.1664 -0.3690
   28SAPC   C15 3681   1.451   4.630   6.225  0.1671 -0.2305  0.1041
   28SAPC  H15A 3682   1.547   4.624   6.177 -0.8688 -0.7195 -1.9796
   28SAPC  H15B 3683   1.417   4.732   6.235  1.8600  0.3264  0.2382
   28SAPC  H15C 3684   1.450   4.596   6.328  0.6851 -0.2185  0.1106
   28SAPC   C11 3685   1.400   4.337   6.248  0.4826  0.0760  0.5437
   28SAPC  H11A 3686   1.311   4.348   6.314 -0.9480 -0.8218 -1.1870
   28SAPC  H11B 3687   1.491   4.374   6.300  1.9850 -0.8551 -1.3608
   28SAPC     P 3688   1.398   4.078   6.285 -0.2341  0.0052  0.1641
   28SAPC   O13 3689   1.254   4.046   6.314  0.1062 -0.1850 -0.2421
   28SAPC   O14 3690   1.476   3.972   6.218  0.4616  0.3069 -0.8234
   28SAPC   O12 3691   1.415   4.203   6.198  0.5296 -0.3436  0.2127
   28SAPC   O11 3692   1.485   4.103   6.412 -0.6773 -0.2682  0.6282
   28SAPC    C1 3693   1.451   4.164   6.536 -0.3435  0.2273 -0.1949
   28SAPC    HA 3694   1.541   4.175   6.601 -0.8719 -0.9797  0.7691
   28SAPC    HB 3695   1.398   4.261   6.520  0.5194  0.2082 -3.4877
   28SAPC    C2 3696   1.345   4.078   6.628 -0.5891 -0.1317 -0.3753
   28SAPC    HS 3697   1.258   4.066   6.560 -0.1465  0.7894 -1.1071
   28SAPC   O21 3698   1.318   4.153   6.743  0.0143  0.3972 -0.7091
   28SAPC   C21 3699   1.210   4.120   6.803 -0.1889  0.2241  0.7958
   28SAPC   O22 3700   1.141   4.026   6.768  0.0651 -0.0315  0.3241
   28SAPC   C22 3701   1.189   4.205   6.932 -1.1142  0.3455  0.0214
   28SAPC   H2R 3702   1.286   4.206   6.985 -0.9842  0.2959 -0.2162
   28SAPC   H2S 3703   1.174   4.308   6.892 -0.3151  0.7077  0.6525
   28SAPC    C3 3704   1.412   3.941   6.654 -0.8127  0.0099  0.3043
   28SAPC    HX 3705   1.435   3.893   6.557 -0.3847 -1.6276  1.1831
   28SAPC    HY 3706   1.344   3.875   6.714 -1.5358  0.4994  0.0306
   28SAPC   O31 3707   1.541   3.959   6.723 -0.5246  0.3045  0.4087
   28SAPC   C31 3708   1.540   3.931   6.850 -0.1657  0.1628 -0.1016
   28SAPC   O32 3709   1.438   3.918   6.913  0.3770 -0.2535 -0.5113
   28SAPC   C32 3710   1.675   3.913   6.901  0.2143 -0.4312 -0.1695
   28SAPC   H2X 3711   1.734   4.005   6.877 -0.5423 -0.7664 -3.6228
   28SAPC   H2Y 3712   1.730   3.828   6.855  0.6441 -0.6346  0.7109
   28SAPC   C23 3713   1.069   4.157   7.013  0.0198  0.2789 -0.1451
   28SAPC   H3R 3714   0.975   4.171   6.956 -0.1089  0.0426  0.0107
   28SAPC   H3S 3715   1.068   4.221   7.103  0.7915 -1.1071  0.8612
   28SAPC   C24 3716   1.075   4.015   7.085 -0.1078  1.1422 -0.3718
   28SAPC   H4R 3717   0.987   4.016   7.152 -1.1216  1.0662 -1.6756
   28SAPC   H4S 3718   1.057   3.932   7.013  4.3159 -1.1682  1.0419
   28SAPC   C25 3719   1.206   3.993   7.160 -0.8142  0.8159 -0.4509
   28SAPC   H5R 3720   1.282   3.937   7.104  1.8149  2.8344  1.0175
   28SAPC   C26 3721   1.224   4.031   7.289 -0.5073  0.0055  0.1569
   28SAPC   H6R 3722   1.325   4.021   7.332  0.4664 -0.4639 -2.1743
   28SAPC   C27 3723   1.131   4.097   7.393 -0.0753  0.3004 -0.1732
   28SAPC   H7R 3724   1.102   4.033   7.479  1.3149 -1.6478 -1.1100
   28SAPC   H7S 3725   1.032   4.120   7.350 -0.0444  0.7217 -0.0251
   28SAPC   C28 3726   1.188   4.229   7.451 -0.1509 -0.6547 -0.2342
   28SAPC   H8R 3727   1.232   4.295   7.376 -1.1139 -0.7881 -0.9262
   28SAPC   C29 3728   1.209   4.254   7.583 -0.5882  0.0731  0.1068
   28SAPC   H9R 3729   1.228   4.358   7.614 -0.4632  0.2547 -0.5557
   28SAPC  C210 3730   1.168   4.166   7.699  0.1927 -0.0245  0.5694
   28SAPC  H10R 3731   1.076   4.106   7.684 -0.8037  1.1546  1.7408
   28SAPC  H10S 3732   1.130   4.245   7.768 -1.4322 -0.0415 -0.2760
   28SAPC  C211 3733   1.280   4.086   7.754 -0.1584 -0.4751 -0.4097
   28SAPC  H11R 3734   1.355   4.053   7.680  1.9023 -0.8301  1.8022
   28SAPC  C212 3735   1.298   4.031   7.873  0.0814  0.6973 -0.2785
   28SAPC  H12R 3736   1.389   3.972   7.895 -1.4260 -2.1912 -1.5491
   28SAPC  C213 3737   1.200   4.042   7.988 -0.3552  0.0223 -0.7306
   28SAPC  H13R 3738   1.107   3.989   7.958 -1.5195  2.1974 -1.1054
   28SAPC  H13S 3739   1.163   4.147   7.999  0.0252 -0.1188  2.1638
   28SAPC  C214 3740   1.251   3.980   8.115  0.1036 -0.0463  0.2471
   28SAPC  H14R 3741   1.296   3.880   8.110 -0.4826 -0.2827 -0.3702
   28SAPC  C215 3742   1.255   4.053   8.231  0.3004  0.5309  0.2170
   28SAPC  H15R 3743   1.300   4.005   8.320  0.8116  1.2498  0.3533
   28SAPC  C216 3744   1.206   4.197   8.252  0.2015 -0.5881 -0.4133
   28SAPC  H16R 3745   1.114   4.218   8.194  0.6884  1.2223 -0.5524
   28SAPC  H16S 3746   1.288   4.266   8.223 -2.0435  1.9743 -0.8004
   28SAPC  C217 3747   1.177   4.210   8.402 -0.3524 -0.1951 -0.5373
   28SAPC  H17R 3748   1.262   4.173   8.462  0.5398  2.7730  0.1110
   28SAPC  H17S 3749   1.076   4.176   8.434 -0.0420 -1.0526 -0.4726
   28SAPC  C218 3750   1.175   4.360   8.448 -0.2913  0.1373 -0.4684
   28SAPC  H18R 3751   1.090   4.409   8.397 -1.0979  2.0443  2.6010
   28SAPC  H18S 3752   1.265   4.405   8.400  1.9328 -0.7324  2.7508
   28SAPC  C219 3753   1.196   4.380   8.595 -0.1722  0.1229  0.5305
   28SAPC  H19R 3754   1.297   4.357   8.635 -0.8766 -1.9805  1.1814
   28SAPC  H19S 3755   1.132   4.309   8.652 -0.8542  0.6738  0.4500
   28SAPC  C220 3756   1.147   4.514   8.649 -0.6713  0.6312  0.3946
   28SAPC  H20R 3757   1.070   4.567   8.590 -0.6229  0.2094 -0.0603
   28SAPC  H20S 3758   1.230   4.588   8.643  1.0893 -1.3324 -0.3476
   28SAPC  H20T 3759   1.105   4.491   8.749 -1.0266 -1.0202 -0.1208
   28SAPC   C33 3760   1.679   3.889   7.055  0.2531 -0.0487  0.3460
   28SAPC   H3X 3761   1.644   3.787   7.079 -1.3216  0.0203 -1.4711
   28SAPC   H3Y 3762   1.614   3.967   7.100 -0.6291  0.3388 -1.5389
   28SAPC   C34 3763   1.823   3.908   7.115  0.5819  0.0110 -0.1908
   28SAPC   H4X 3764   1.850   4.015   7.106  0.3194  0.1681  0.9091
   28SAPC   H4Y 3765   1.891   3.844   7.053  2.1046  0.4373  0.9994
   28SAPC   C35 3766   1.817   3.865   7.261  0.3130  0.4046 -0.1503
   28SAPC   H5X 3767   1.797   3.756   7.263  0.0244  0.4160 -1.7375
   28SAPC   H5Y 3768   1.733   3.908   7.319  0.5979 -0.3787  0.8595
   28SAPC   C36 3769   1.941   3.902   7.339  0.2250  0.1348 -0.0127
   28SAPC   H6X 3770   1.937   4.012   7.353  1.3653  0.3523 -1.2840
   28SAPC   H6Y 3771   2.037   3.870   7.293 -1.1304 -1.8237 -1.5686
   28SAPC   C37 3772   1.913   3.847   7.483  0.0331 -0.4973  0.5448
   28SAPC   H7X 3773   1.915   3.738   7.457  0.9697  0.0575 -1.8939
   28SAPC   H7Y 3774   1.818   3.870   7.534  0.6939  0.9980  1.1385
   28SAPC   C38 3775   2.037   3.875   7.571  0.2954 -0.6016  0.0877
   28SAPC   H8X 3776   2.034   3.981   7.604 -1.5575 -0.5044 -0.3306
   28SAPC   H8Y 3777   2.133   3.857   7.517  0.3213 -0.1438 -0.0189
   28SAPC   C39 3778   2.038   3.795   7.702 -0.1012  0.0136  0.4976
   28SAPC   H9X 3779   2.036   3.688   7.670  0.4034  0.3889 -0.8277
   28SAPC   H9Y 3780   1.941   3.814   7.753 -0.3194  0.2939 -0.0156
   28SAPC  C310 3781   2.157   3.830   7.795  0.2032 -0.9129  0.5388
   28SAPC  H10X 3782   2.156   3.936   7.827  1.0562 -1.7996  3.5891
   28SAPC  H10Y 3783   2.249   3.812   7.735 -0.6360 -0.5872 -0.8719
   28SAPC  C311 3784   2.147   3.740   7.922  0.5552  0.4877 -0.5276
   28SAPC  H11X 3785   2.126   3.638   7.885 -0.8704 -0.6204  3.0722
   28SAPC  H11Y 3786   2.051   3.761   7.975 -0.8270 -0.9914 -2.3720
   28SAPC  C312 3787   2.271   3.747   8.023  0.1257 -0.0214  1.0796
   28SAPC  H12X 3788   2.283   3.848   8.068 -1.1253  0.6948 -0.1578
   28SAPC  H12Y 3789   2.361   3.704   7.973  0.4037 -0.7079  2.1687
   28SAPC  C313 3790   2.245   3.647   8.134 -0.1883 -0.6766 -0.2680
   28SAPC  H13X 3791   2.257   3.549   8.084  1.0538  0.1638 -1.6758
   28SAPC  H13Y 3792   2.140   3.652   8.171 -0.4689 -0.3205 -1.0890
   28SAPC  C314 3793   2.346   3.662   8.246  0.1311  0.8027  0.4830
   28SAPC  H14X 3794   2.356   3.769   8.273 -0.2353  0.3239  2.5415
   28SAPC  H14Y 3795   2.438   3.616   8.203 -1.0529 -0.9574 -0.2434
   28SAPC  C315 3796   2.291   3.590   8.367  0.2436 -0.2254 -0.0724
   28SAPC  H15X 3797   2.250   3.490   8.341 -2.0819  0.3250  1.2975
   28SAPC  H15Y 3798   2.205   3.645   8.410  0.8640 -1.2630  2.6073
   28SAPC  C316 3799   2.400   3.574   8.469 -0.4257 -0.2080 -0.0231
   28SAPC  H16X 3800   2.427   3.672   8.512  0.2188  0.1980 -1.3296
   28SAPC  H16Y 3801   2.497   3.554   8.418  0.2285  0.8556  0.7791
   28SAPC  C317 3802   2.382   3.463   8.580  0.2391 -0.1660 -0.3859
   28SAPC  H17X 3803   2.373   3.378   8.509  2.0823 -0.2150 -0.5762
   28SAPC  H17Y 3804   2.284   3.472   8.631 -0.1449  2.2402 -1.4782
   28SAPC  C318 3805   2.497   3.444   8.673  0.2808 -0.6599 -0.3766
   28SAPC  H18X 3806   2.480   3.384   8.765  0.5091  0.1422  0.1983
   28SAPC  H18Y 3807   2.516   3.546   8.715 -2.6698 -0.7991  1.4761
   28SAPC  H18Z 3808   2.590   3.403   8.630 -0.0166 -0.3383 -1.3471
   29SAPC     N 3809   4.083   1.281   6.268 -0.1000 -0.7921  0.0180
   29SAPC   C12 3810   4.165   1.239   6.377 -0.4219 -0.0223  0.0517
   29SAPC  H12A 3811   4.202   1.324   6.432 -0.2393 -1.1055  1.6249
   29SAPC  H12B 3812   4.254   1.199   6.330 -0.5678 -2.4083  1.6941
   29SAPC   C13 3813   4.163   1.389   6.194 -0.6869 -0.4198 -0.6610
   29SAPC  H13A 3814   4.258   1.354   6.158 -0.6198  0.6469 -1.5608
   29SAPC  H13B 3815   4.106   1.423   6.108 -0.4610 -0.6817 -0.9132
   29SAPC  H13C 3816   4.180   1.467   6.266 -1.7781 -1.4952  0.7820
   29SAPC   C14 3817   4.048   1.163   6.179 -0.1159  0.3916 -0.3307
   29SAPC  H14A 3818   4.131   1.123   6.123 -1.8096 -0.7629 -2.0915
   29SAPC  H14B 3819   4.000   1.083   6.233  1.0607 -0.4134 -0.4836
   29SAPC  H14C 3820   3.979   1.201   6.105  0.1738 -0.1161 -0.8687
   29SAPC   C15 3821   3.952   1.340   6.315 -0.3708  0.1125 -0.1310
   29SAPC  H15A 3822   3.965   1.424   6.381 -0.7088  0.1296 -0.0865
   29SAPC  H15B 3823   3.889   1.358   6.229  0.5457  0.5436 -0.7289
   29SAPC  H15C 3824   3.903   1.273   6.384 -0.1286 -2.5940 -2.4935
   29SAPC   C11 3825   4.103   1.132   6.468 -0.4049  0.6945  0.1163
   29SAPC  H11A 3826   3.998   1.152   6.499  0.3150  3.5120  0.8458
   29SAPC  H11B 3827   4.149   1.132   6.569  1.2607 -0.6924 -0.6023
   29SAPC     P 3828   4.266   0.951   6.404  0.2905  0.5815 -0.1070
   29SAPC   O13 3829   4.271   0.847   6.296 -0.2810  0.0463  0.1932
   29SAPC   O14 3830   4.367   1.054   6.403 -0.1348 -0.0946  0.4217
   29SAPC   O12 3831   4.120   0.999   6.403 -0.2033  0.3649 -0.0746
   29SAPC   O11 3832   4.273   0.882   6.539  0.3639  0.6391  0.0530
   29SAPC    C1 3833   4.198   0.765   6.578  0.4682 -0.4335 -0.8285
   29SAPC    HA 3834   4.154   0.713   6.491  1.2687  1.5069 -2.4559
   29SAPC    HB 3835   4.266   0.693   6.629  0.5289  1.4683  1.9101
   29SAPC    C2 3836   4.097   0.799   6.689  0.1166 -0.4279  0.7643
   29SAPC    HS 3837   4.042   0.891   6.657  0.6436  0.2084  1.6681
   29SAPC   O21 3838   4.171   0.823   6.809 -0.8056  0.1761 -0.1487
   29SAPC   C21 3839   4.130   0.909   6.903 -0.2453  0.1073  0.1522
   29SAPC   O22 3840   4.032   0.976   6.895 -0.3344  0.4142 -0.0542
   29SAPC   C22 3841   4.235   0.931   7.008 -0.0821  0.2109  0.4559
   29SAPC   H2R 3842   4.280   0.833   7.035  0.1752  0.3836  0.6548
   29SAPC   H2S 3843   4.312   0.996   6.962  0.1467  2.3552  3.6425
   29SAPC    C3 3844   3.980   0.689   6.712  0.1884 -0.1296  0.1161
   29SAPC    HX 3845   4.030   0.593   6.739  1.0358 -0.1915 -1.6517
   29SAPC    HY 3846   3.938   0.662   6.613  0.9003 -0.6326 -0.0555
   29SAPC   O31 3847   3.875   0.726   6.802 -0.7612  0.5352  0.6554
   29SAPC   C31 3848   3.783   0.810   6.754  0.2382  0.3371 -0.3694
   29SAPC   O32 3849   3.785   0.866   6.648  0.5372  0.2255 -0.2768
   29SAPC   C32 3850   3.676   0.820   6.856 -0.2918  0.2595  0.2715
   29SAPC   H2X 3851   3.632   0.720   6.878  1.2120 -0.9503 -1.9942
   29SAPC   H2Y 3852   3.597   0.883   6.811  0.9999  1.2256 -0.6926
   29SAPC   C23 3853   4.172   0.991   7.137 -0.1664  0.1583  0.9445
   29SAPC   H3R 3854   4.101   0.917   7.182 -1.8230  1.4096  0.4608
   29SAPC   H3S 3855   4.122   1.085   7.103 -1.8278 -0.3260  1.9554
   29SAPC   C24 3856   4.268   1.062   7.229  0.2837  0.2788 -0.2042
   29SAPC   H4R 3857   4.205   1.123   7.297  0.7598 -0.4092  0.8659
   29SAPC   H4S 3858   4.323   1.136   7.168  1.2269 -0.6630 -0.5231
   29SAPC   C25 3859   4.356   0.962   7.299 -0.0431 -0.1011 -0.5204
   29SAPC   H5R 3860   4.414   0.902   7.227  0.9099 -1.6228  1.4794
   29SAPC   C26 3861   4.364   0.936   7.430  0.5841 -0.5146  0.3224
   29SAPC   H6R 3862   4.426   0.852   7.466  2.7416  1.7435  2.0151
   29SAPC   C27 3863   4.291   0.987   7.543  1.0788  0.1353  0.0070
   29SAPC   H7R 3864   4.227   0.911   7.592  1.3675  0.8363  1.4898
   29SAPC   H7S 3865   4.219   1.067   7.513 -0.8787 -1.0347  1.4800
   29SAPC   C28 3866   4.388   1.056   7.635 -1.0493  0.9332  0.1860
   29SAPC   H8R 3867   4.451   1.135   7.590  1.3067 -2.0675 -2.0514
   29SAPC   C29 3868   4.426   1.015   7.761  0.2063  0.0744 -0.4435
   29SAPC   H9R 3869   4.512   1.057   7.816 -0.7401  2.1588 -0.4906
   29SAPC  C210 3870   4.369   0.900   7.842 -0.3132 -0.3293  0.4575
   29SAPC  H10R 3871   4.342   0.810   7.783 -2.2772 -0.0616  0.9287
   29SAPC  H10S 3872   4.273   0.927   7.890 -1.0731 -2.1650  0.0187
   29SAPC  C211 3873   4.469   0.850   7.945 -0.2017  0.3242  0.1529
   29SAPC  H11R 3874   4.537   0.775   7.902  3.2114  1.9691  2.4294
   29SAPC  C212 3875   4.483   0.882   8.081  0.0911 -0.2261  0.1838
   29SAPC  H12R 3876   4.557   0.827   8.140 -0.5606 -1.1208  0.1755
   29SAPC  C213 3877   4.401   0.982   8.155  0.0353 -0.4731  0.2634
   29SAPC  H13R 3878   4.353   1.056   8.087  0.0090  0.0350  0.8303
   29SAPC  H13S 3879   4.472   1.034   8.223 -0.1487  1.2668 -0.8400
   29SAPC  C214 3880   4.288   0.911   8.234  0.0962 -0.0642  0.0831
   29SAPC  H14R 3881   4.229   0.835   8.181 -0.1034  1.2521 -1.6462
   29SAPC  C215 3882   4.262   0.931   8.368 -0.3702  0.1758 -0.4676
   29SAPC  H15R 3883   4.171   0.885   8.411 -0.7532  1.5780  0.2802
   29SAPC  C216 3884   4.340   1.028   8.456  0.3780  0.3959 -0.1138
   29SAPC  H16R 3885   4.286   1.121   8.484 -0.7534  0.1074 -1.2843
   29SAPC  H16S 3886   4.431   1.071   8.409  1.1548 -2.2995 -1.2016
   29SAPC  C217 3887   4.404   0.973   8.583 -0.3789  0.1127 -0.3381
   29SAPC  H17R 3888   4.331   0.915   8.642  1.4556  0.3701  2.2710
   29SAPC  H17S 3889   4.435   1.058   8.647 -2.0704  0.1200  0.4851
   29SAPC  C218 3890   4.524   0.881   8.554 -0.1778  0.2731 -0.4277
   29SAPC  H18R 3891   4.490   0.793   8.496 -0.0104 -0.4825  0.6051
   29SAPC  H18S 3892   4.547   0.832   8.651 -0.4845  0.9450 -0.0065
   29SAPC  C219 3893   4.654   0.952   8.502 -0.0463 -0.6433 -0.5825
   29SAPC  H19R 3894   4.673   1.041   8.567 -0.8217 -1.2008  0.4063
   29SAPC  H19S 3895   4.616   0.983   8.402 -2.7079 -1.1545  0.2505
   29SAPC  C220 3896   4.787   0.881   8.501 -0.0221 -0.0413  1.0479
   29SAPC  H20R 3897   4.842   0.869   8.597  0.4659 -3.7444  0.4109
   29SAPC  H20S 3898   4.861   0.941   8.444 -0.3025 -1.0223 -0.3917
   29SAPC  H20T 3899   4.786   0.776   8.463  0.1068 -0.8228  3.1202
   29SAPC   C33 3900   3.724   0.881   6.993  0.4031  0.4965  0.2644
   29SAPC   H3X 3901   3.831   0.857   7.012 -0.0825 -0.9883  1.1321
   29SAPC   H3Y 3902   3.668   0.840   7.080  0.2793 -1.4028 -0.6941
   29SAPC   C34 3903   3.711   1.034   7.000 -0.3545  0.3413  0.4774
   29SAPC   H4X 3904   3.606   1.071   6.997 -0.4249  0.1501  0.5968
   29SAPC   H4Y 3905   3.775   1.075   6.918  1.0890 -1.2790  0.7618
   29SAPC   C35 3906   3.790   1.090   7.121  0.1217 -0.1481 -0.0309
   29SAPC   H5X 3907   3.798   1.201   7.117  1.0661 -0.2503 -1.1850
   29SAPC   H5Y 3908   3.892   1.048   7.124  0.0808 -0.1579  1.9471
   29SAPC   C36 3909   3.715   1.058   7.246 -0.2145 -0.5074  0.6337
   29SAPC   H6X 3910   3.734   0.951   7.265  0.8737  0.0335  2.7401
   29SAPC   H6Y 3911   3.608   1.068   7.216 -0.0491  0.1379  0.2386
   29SAPC   C37 3912   3.750   1.126   7.378 -0.3918  0.0314  0.5468
   29SAPC   H7X 3913   3.676   1.110   7.459 -1.8872 -3.3670 -1.3941
   29SAPC   H7Y 3914   3.754   1.235   7.358  1.5894 -0.1094  0.1106
   29SAPC   C38 3915   3.883   1.080   7.443 -0.8003 -1.4459 -0.1641
   29SAPC   H8X 3916   3.963   1.117   7.376  0.5903 -0.3231  2.0361
   29SAPC   H8Y 3917   3.879   0.971   7.462  0.2573 -1.5022 -0.2251
   29SAPC   C39 3918   3.916   1.161   7.567 -0.5750 -0.3115 -0.1741
   29SAPC   H9X 3919   3.882   1.267   7.562  1.4722  0.3695 -0.4040
   29SAPC   H9Y 3920   4.027   1.171   7.569 -0.5358 -0.8223  0.9100
   29SAPC  C310 3921   3.884   1.088   7.700  0.0110 -0.6551 -1.0495
   29SAPC  H10X 3922   3.935   0.989   7.698 -0.4891 -0.9594  0.6495
   29SAPC  H10Y 3923   3.774   1.072   7.709  0.1268 -1.3920 -0.8914
   29SAPC  C311 3924   3.935   1.153   7.825  0.9545  0.8706 -0.7836
   29SAPC  H11X 3925   3.879   1.250   7.827  2.5464  1.8149 -0.8878
   29SAPC  H11Y 3926   4.044   1.170   7.812  1.1303  0.9430  0.6963
   29SAPC  C312 3927   3.917   1.059   7.940  0.3027  0.0179 -0.2316
   29SAPC  H12X 3928   3.991   0.976   7.935  1.0511  0.6496  0.2421
   29SAPC  H12Y 3929   3.814   1.026   7.916  0.4618 -0.6253 -0.0231
   29SAPC  C313 3930   3.934   1.125   8.078 -0.0976  0.5714 -0.2886
   29SAPC  H13X 3931   3.892   1.227   8.062 -2.1055  0.0171  1.1918
   29SAPC  H13Y 3932   4.041   1.132   8.107  0.6938  1.3383 -3.1957
   29SAPC  C314 3933   3.852   1.048   8.185  1.0393  0.0252  0.1978
   29SAPC  H14X 3934   3.898   0.946   8.189 -1.0208 -0.9752 -0.8601
   29SAPC  H14Y 3935   3.748   1.046   8.149  0.2960 -1.8052  2.2771
   29SAPC  C315 3936   3.855   1.112   8.325 -0.2148 -0.6880 -0.4655
   29SAPC  H15X 3937   3.846   1.222   8.311  0.3311 -0.6828 -0.8019
   29SAPC  H15Y 3938   3.957   1.092   8.362 -0.0627  1.9360  0.6441
   29SAPC  C316 3939   3.747   1.059   8.412 -0.2144  0.0834 -0.1279
   29SAPC  H16X 3940   3.738   0.949   8.406  0.1416  0.1218 -1.7724
   29SAPC  H16Y 3941   3.646   1.089   8.374  0.7928  2.1880 -1.2589
   29SAPC  C317 3942   3.756   1.089   8.564 -0.0865  0.1255 -0.7644
   29SAPC  H17X 3943   3.658   1.053   8.601 -1.4157  1.3540 -2.9812
   29SAPC  H17Y 3944   3.745   1.200   8.567 -1.7186 -0.0300 -0.3134
   29SAPC  C318 3945   3.874   1.040   8.641  0.3105 -0.2869 -0.3117
   29SAPC  H18X 3946   3.895   0.932   8.625 -0.4407 -0.6378  1.0221
   29SAPC  H18Y 3947   3.867   1.068   8.748  0.6507 -1.8572  0.1410
   29SAPC  H18Z 3948   3.962   1.098   8.607  1.4354 -1.4139  0.6439
   30SAPC     N 3949   4.736   0.946   6.384  0.1651 -0.5285 -0.0542
   30SAPC   C12 3950   4.870   0.881   6.370  0.9327  0.5855  0.1918
   30SAPC  H12A 3951   4.889   0.848   6.269  1.1348 -1.6672  0.9423
   30SAPC  H12B 3952   4.867   0.790   6.427  2.3347  0.7548  0.5391
   30SAPC   C13 3953   4.698   1.002   6.518 -0.2591 -0.0768 -0.0071
   30SAPC  H13A 3954   4.684   0.928   6.596  2.7627  0.9608  1.5762
   30SAPC  H13B 3955   4.781   1.058   6.557  1.7761 -3.1996  0.3263
   30SAPC  H13C 3956   4.614   1.070   6.526 -1.2101 -1.1522 -0.6408
   30SAPC   C14 3957   4.727   1.059   6.291  0.5368  0.3630 -0.2994
   30SAPC  H14A 3958   4.734   1.031   6.187 -1.4478  1.6799 -0.8271
   30SAPC  H14B 3959   4.641   1.124   6.302 -0.2629 -0.6748 -0.3308
   30SAPC  H14C 3960   4.808   1.128   6.309  0.5905 -0.2370  1.9432
   30SAPC   C15 3961   4.631   0.848   6.345 -0.4779  1.1262  0.1281
   30SAPC  H15A 3962   4.635   0.766   6.415 -1.1956  0.7193 -0.2986
   30SAPC  H15B 3963   4.538   0.902   6.354  0.1117  2.0665  0.7244
   30SAPC  H15C 3964   4.639   0.819   6.242 -0.4195  0.3690  0.3480
   30SAPC   C11 3965   4.988   0.971   6.410 -0.4705 -0.1510 -0.6638
   30SAPC  H11A 3966   5.070   0.897   6.402 -1.9043 -1.7912 -0.3838
   30SAPC  H11B 3967   4.983   1.004   6.516  0.9620  0.7759 -0.8765
   30SAPC     P 3968   5.100   1.063   6.194 -0.2253 -0.4552  0.2551
   30SAPC   O13 3969   5.048   0.948   6.114  0.1233 -0.3023  0.0531
   30SAPC   O14 3970   5.120   1.195   6.131 -0.0050  0.6930  0.2102
   30SAPC   O12 3971   5.006   1.078   6.323 -0.3935  0.2348 -0.1524
   30SAPC   O11 3972   5.231   1.012   6.270 -0.3900  0.1599  0.6963
   30SAPC    C1 3973   5.315   1.114   6.339  0.4037  0.3806  0.2010
   30SAPC    HA 3974   5.396   1.154   6.274  0.5713  0.8349  0.6856
   30SAPC    HB 3975   5.259   1.204   6.374  0.7415  0.4222  0.6478
   30SAPC    C2 3976   5.392   1.054   6.460  0.2546 -0.1052  0.1167
   30SAPC    HS 3977   5.444   0.968   6.412 -0.6309  0.3656 -1.7422
   30SAPC   O21 3978   5.304   1.008   6.567  0.0303 -0.2126 -0.3889
   30SAPC   C21 3979   5.354   0.925   6.657  1.0553 -0.3496  0.0473
   30SAPC   O22 3980   5.466   0.878   6.656 -0.5348  0.3818  0.3217
   30SAPC   C22 3981   5.250   0.911   6.770 -1.0563  0.9699  0.4226
   30SAPC   H2R 3982   5.156   0.881   6.718 -0.4189 -0.4721  0.0964
   30SAPC   H2S 3983   5.292   0.829   6.832  0.5624  0.9314 -0.7029
   30SAPC    C3 3984   5.497   1.163   6.509  0.3758 -0.0150 -0.5480
   30SAPC    HX 3985   5.545   1.216   6.425  2.5183  2.4167  2.0866
   30SAPC    HY 3986   5.573   1.098   6.557 -0.9976 -0.8081  0.6120
   30SAPC   O31 3987   5.434   1.254   6.600 -0.5148  0.2277 -0.0830
   30SAPC   C31 3988   5.476   1.376   6.605 -0.2350  0.5395 -0.5780
   30SAPC   O32 3989   5.559   1.422   6.528 -0.4779 -0.3044 -0.5699
   30SAPC   C32 3990   5.393   1.446   6.710 -0.3115  0.1065  0.5068
   30SAPC   H2X 3991   5.299   1.387   6.714 -0.9860  1.2424  1.6116
   30SAPC   H2Y 3992   5.369   1.547   6.671  1.5949  0.3139 -0.1896
   30SAPC   C23 3993   5.238   1.040   6.855 -0.9474 -0.0192  0.0661
   30SAPC   H3R 3994   5.162   1.025   6.934 -0.3946 -1.6071  0.3065
   30SAPC   H3S 3995   5.194   1.117   6.788 -0.3094  0.6681  0.4329
   30SAPC   C24 3996   5.371   1.092   6.920 -0.1374 -0.2692 -0.1099
   30SAPC   H4R 3997   5.343   1.184   6.976  2.3954  0.6440 -0.2906
   30SAPC   H4S 3998   5.434   1.110   6.831 -2.5506  0.3327 -1.7577
   30SAPC   C25 3999   5.444   0.997   7.005  0.0661  0.1227  0.7343
   30SAPC   H5R 4000   5.485   0.911   6.951 -0.5932  1.1134 -1.4012
   30SAPC   C26 4001   5.467   0.995   7.138  0.0544  0.2206 -0.1365
   30SAPC   H6R 4002   5.528   0.913   7.179  0.5358 -0.6600 -2.5326
   30SAPC   C27 4003   5.418   1.098   7.238  0.5408 -0.1179  0.4514
   30SAPC   H7R 4004   5.392   1.188   7.178 -2.0379 -1.2263 -0.1625
   30SAPC   H7S 4005   5.500   1.129   7.306  0.9260  2.5057 -1.1390
   30SAPC   C28 4006   5.295   1.057   7.316  0.6645  0.7538  0.6793
   30SAPC   H8R 4007   5.205   1.034   7.256  0.8735  2.2408 -0.2459
   30SAPC   C29 4008   5.273   1.049   7.449  0.0438  0.0570 -0.3273
   30SAPC   H9R 4009   5.178   1.005   7.483  1.2271 -2.8681 -0.6216
   30SAPC  C210 4010   5.376   1.078   7.555 -0.1614 -0.6325 -0.4419
   30SAPC  H10R 4011   5.406   1.185   7.546 -0.1839 -0.7881 -2.4665
   30SAPC  H10S 4012   5.464   1.014   7.532  0.0840 -0.1468 -0.8484
   30SAPC  C211 4013   5.335   1.050   7.701  0.5035 -0.3851  0.1536
   30SAPC  H11R 4014   5.321   0.941   7.711 -0.0503 -0.4252 -0.9723
   30SAPC  C212 4015   5.313   1.131   7.805 -0.6392 -0.4894  0.5051
   30SAPC  H12R 4016   5.289   1.096   7.907  0.1262 -1.3482  0.3971
   30SAPC  C213 4017   5.309   1.279   7.795  0.0680 -0.0418  0.1198
   30SAPC  H13R 4018   5.295   1.306   7.688 -1.4043 -0.4137  0.2073
   30SAPC  H13S 4019   5.407   1.317   7.831 -0.1085 -0.0186  0.5801
   30SAPC  C214 4020   5.192   1.331   7.877  0.0137 -0.2092  0.5658
   30SAPC  H14R 4021   5.103   1.349   7.814  0.4483  2.5713  0.6999
   30SAPC  C215 4022   5.176   1.336   8.016  0.0164 -0.2720  0.7155
   30SAPC  H15R 4023   5.089   1.389   8.058  0.4534  1.1817 -0.1815
   30SAPC  C216 4024   5.272   1.280   8.114 -0.1824 -0.1237  0.3562
   30SAPC  H16R 4025   5.317   1.360   8.178 -0.7979  0.5284 -0.0152
   30SAPC  H16S 4026   5.358   1.228   8.067  0.1786  0.0251  0.8424
   30SAPC  C217 4027   5.197   1.189   8.214  0.0455  0.0823 -0.4229
   30SAPC  H17R 4028   5.278   1.135   8.269  0.1879  0.1989 -0.5182
   30SAPC  H17S 4029   5.138   1.107   8.168 -0.1576 -2.2949  3.8316
   30SAPC  C218 4030   5.120   1.269   8.322 -0.0721 -0.1245  0.2629
   30SAPC  H18R 4031   5.084   1.362   8.274  2.2317  0.5804 -0.1496
   30SAPC  H18S 4032   5.201   1.301   8.391  1.7750 -2.2706 -0.8039
   30SAPC  C219 4033   5.015   1.188   8.388 -0.4417 -0.4206 -0.2840
   30SAPC  H19R 4034   5.046   1.084   8.415 -0.7698 -0.0399  1.6659
   30SAPC  H19S 4035   4.939   1.180   8.308  0.4185  1.0482 -1.2842
   30SAPC  C220 4036   4.959   1.257   8.513 -0.3922  0.3381 -0.6251
   30SAPC  H20R 4037   4.862   1.209   8.540 -0.8519  1.3158 -0.5260
   30SAPC  H20S 4038   4.960   1.368   8.514  2.4529  0.3637  1.6090
   30SAPC  H20T 4039   5.023   1.224   8.598  0.2139  0.7281 -0.9332
   30SAPC   C33 4040   5.464   1.450   6.847 -0.0527 -0.2798 -0.0969
   30SAPC   H3X 4041   5.562   1.502   6.837  1.5911 -3.4921 -1.4278
   30SAPC   H3Y 4042   5.482   1.348   6.886 -2.2032 -0.5967  0.1198
   30SAPC   C34 4043   5.388   1.509   6.967  0.1037  0.3824 -0.8627
   30SAPC   H4X 4044   5.283   1.475   6.979  0.1895  0.6488  0.9004
   30SAPC   H4Y 4045   5.376   1.618   6.949 -1.3403  0.1524 -1.3268
   30SAPC   C35 4046   5.453   1.497   7.106 -0.5336  0.7688  0.7943
   30SAPC   H5X 4047   5.538   1.567   7.124  0.5870  0.3239 -2.4211
   30SAPC   H5Y 4048   5.496   1.395   7.106 -3.1095 -0.3429  2.0561
   30SAPC   C36 4049   5.352   1.519   7.231 -0.1131  0.2765 -0.0090
   30SAPC   H6X 4050   5.273   1.442   7.241  0.0240 -0.1184 -1.7536
   30SAPC   H6Y 4051   5.301   1.616   7.215  2.2371  1.1061 -2.9359
   30SAPC   C37 4052   5.428   1.525   7.365  0.0973 -0.4035  0.4430
   30SAPC   H7X 4053   5.488   1.618   7.357 -2.6648  1.4319  0.6069
   30SAPC   H7Y 4054   5.494   1.436   7.380  1.3301  0.3705 -0.3327
   30SAPC   C38 4055   5.334   1.556   7.488  0.2914 -0.0703 -1.0320
   30SAPC   H8X 4056   5.287   1.460   7.518  0.8732 -0.1860 -0.4981
   30SAPC   H8Y 4057   5.252   1.621   7.449 -0.4810 -0.8515 -0.7260
   30SAPC   C39 4058   5.408   1.607   7.616 -0.0162  0.0665 -0.3783
   30SAPC   H9X 4059   5.468   1.699   7.600  0.0490  0.4453  1.8921
   30SAPC   H9Y 4060   5.477   1.524   7.641 -0.3819 -0.2357 -0.3675
   30SAPC  C310 4061   5.316   1.625   7.741 -0.7337  1.0653 -0.2663
   30SAPC  H10X 4062   5.374   1.589   7.829 -6.0571 -2.5958  1.9874
   30SAPC  H10Y 4063   5.229   1.558   7.723 -0.9496  1.1552  0.3978
   30SAPC  C311 4064   5.269   1.773   7.756  0.7781 -0.6431 -0.1397
   30SAPC  H11X 4065   5.230   1.815   7.661  0.0682  2.0413  1.2692
   30SAPC  H11Y 4066   5.358   1.832   7.786  0.5757 -0.0329 -0.7431
   30SAPC  C312 4067   5.170   1.795   7.876  0.9676 -0.2526 -0.6439
   30SAPC  H12X 4068   5.060   1.785   7.859  0.7219  1.1849 -0.0090
   30SAPC  H12Y 4069   5.184   1.905   7.887  1.0317 -0.4256  1.0940
   30SAPC  C313 4070   5.215   1.723   8.002  0.2992  0.3698 -0.1250
   30SAPC  H13X 4071   5.324   1.737   8.020 -0.2515  3.7439  0.8591
   30SAPC  H13Y 4072   5.197   1.614   7.992  0.3673  0.5413 -2.2906
   30SAPC  C314 4073   5.133   1.779   8.123 -0.3465 -0.0457 -0.2829
   30SAPC  H14X 4074   5.030   1.748   8.094 -0.1850 -0.9066  0.0690
   30SAPC  H14Y 4075   5.143   1.888   8.145 -0.1976  0.5240 -2.9768
   30SAPC  C315 4076   5.169   1.702   8.251  0.4821  0.5688  0.8013
   30SAPC  H15X 4077   5.279   1.685   8.253  0.3491 -0.2788  1.0567
   30SAPC  H15Y 4078   5.123   1.602   8.238  0.9778  0.4266  0.1585
   30SAPC  C316 4079   5.127   1.762   8.382  0.2915 -0.6728 -0.4413
   30SAPC  H16X 4080   5.021   1.794   8.377  0.5519 -0.0445 -2.2902
   30SAPC  H16Y 4081   5.188   1.853   8.401 -2.1378  0.8640  0.1682
   30SAPC  C317 4082   5.133   1.667   8.502  0.3801 -0.1686  0.1117
   30SAPC  H17X 4083   5.064   1.583   8.481  1.3373 -1.2469  1.1899
   30SAPC  H17Y 4084   5.091   1.726   8.586  1.1816  1.0257 -0.3181
   30SAPC  C318 4085   5.274   1.622   8.529 -0.0056  0.7081  0.5978
   30SAPC  H18X 4086   5.306   1.627   8.635 -1.6224  1.9321  1.0483
   30SAPC  H18Y 4087   5.332   1.701   8.477  0.6545 -0.6955 -0.8268
   30SAPC  H18Z 4088   5.300   1.524   8.484 -1.5156  0.2395  0.7105
   31SAPC     N 4089   6.127   1.443   6.086 -0.3714 -0.3343  0.6700
   31SAPC   C12 4090   6.239   1.494   6.183 -0.4645  0.0361 -0.5246
   31SAPC  H12A 4091   6.316   1.547   6.128 -0.0318 -0.2804 -0.2347
   31SAPC  H12B 4092   6.291   1.412   6.231 -0.7846  0.0308 -0.1876
   31SAPC   C13 4093   6.008   1.392   6.171  0.0651  0.0179  0.1745
   31SAPC  H13A 4094   6.043   1.320   6.244 -0.9976  0.1975  0.8811
   31SAPC  H13B 4095   5.964   1.470   6.231  0.9308  0.0499  0.7765
   31SAPC  H13C 4096   5.928   1.350   6.111  2.2469 -1.6369 -1.6764
   31SAPC   C14 4097   6.082   1.553   5.993  0.4820 -0.7096  0.0233
   31SAPC  H14A 4098   6.024   1.511   5.911  0.6342 -2.2994  0.7118
   31SAPC  H14B 4099   6.015   1.614   6.051 -0.0686 -0.3737 -0.9425
   31SAPC  H14C 4100   6.166   1.611   5.958  0.4702 -0.1594  0.8905
   31SAPC   C15 4101   6.198   1.336   6.000 -0.1034 -0.4130 -0.5298
   31SAPC  H15A 4102   6.271   1.382   5.936 -1.0739  0.3840 -1.0783
   31SAPC  H15B 4103   6.251   1.257   6.052  1.6634 -0.1020 -1.8263
   31SAPC  H15C 4104   6.134   1.300   5.921 -0.5845 -1.9251  0.5312
   31SAPC   C11 4105   6.197   1.588   6.298 -0.5745 -0.1660  0.0333
   31SAPC  H11A 4106   6.286   1.628   6.351 -0.8976  2.7326 -1.5527
   31SAPC  H11B 4107   6.139   1.531   6.374 -0.2302 -0.0945  0.3527
   31SAPC     P 4108   5.992   1.758   6.305  0.1137 -0.2009 -0.3384
   31SAPC   O13 4109   5.963   1.895   6.246 -0.0936  0.8778  0.5801
   31SAPC   O14 4110   5.890   1.650   6.307 -0.0764  0.3559  0.4728
   31SAPC   O12 4111   6.133   1.702   6.246 -0.1407  0.6530 -0.4949
   31SAPC   O11 4112   6.027   1.788   6.459 -0.1500  0.5906 -0.4894
   31SAPC    C1 4113   6.139   1.874   6.480  0.2914  0.0053  0.8516
   31SAPC    HA 4114   6.233   1.832   6.440 -0.7490 -0.8256 -0.7303
   31SAPC    HB 4115   6.124   1.975   6.435 -0.2355 -0.0661  0.8648
   31SAPC    C2 4116   6.156   1.889   6.634 -0.1578 -0.1670  0.5297
   31SAPC    HS 4117   6.246   1.948   6.661  1.1047 -1.1475 -1.4357
   31SAPC   O21 4118   6.152   1.760   6.703 -0.3981 -0.0649  0.9808
   31SAPC   C21 4119   6.274   1.706   6.695 -0.3638  0.4126 -0.0707
   31SAPC   O22 4120   6.366   1.755   6.630 -0.5382 -0.6303 -0.6585
   31SAPC   C22 4121   6.291   1.583   6.786  0.5815 -0.8033  0.3946
   31SAPC   H2R 4122   6.192   1.573   6.835 -0.7285  1.8904 -1.5922
   31SAPC   H2S 4123   6.304   1.495   6.720  1.6167 -0.6193  0.3356
   31SAPC    C3 4124   6.038   1.976   6.701  0.5187 -0.0244  0.3520
   31SAPC    HX 4125   5.945   1.915   6.693  0.1628  0.7768 -1.8752
   31SAPC    HY 4126   6.022   2.067   6.639 -1.4063 -1.4098 -1.2404
   31SAPC   O31 4127   6.047   2.007   6.838 -0.6220 -0.7974 -0.1043
   31SAPC   C31 4128   6.146   2.092   6.870  0.2275 -0.1964 -0.4522
   31SAPC   O32 4129   6.219   2.157   6.793 -0.6787  0.4491  0.0788
   31SAPC   C32 4130   6.151   2.099   7.031  0.2207 -0.1229  0.1999
   31SAPC   H2X 4131   6.186   2.204   7.038 -0.9068  0.1811  1.3078
   31SAPC   H2Y 4132   6.227   2.027   7.068 -0.0531 -1.0201 -0.9649
   31SAPC   C23 4133   6.397   1.594   6.896 -0.5362 -0.0160 -0.6456
   31SAPC   H3R 4134   6.497   1.598   6.848 -0.4577  1.9626 -0.3625
   31SAPC   H3S 4135   6.388   1.506   6.963  1.5578 -1.1834 -1.8427
   31SAPC   C24 4136   6.384   1.707   6.993 -0.1219  0.8434 -0.0823
   31SAPC   H4R 4137   6.396   1.801   6.935  1.3689  0.4602 -0.4120
   31SAPC   H4S 4138   6.473   1.694   7.059 -1.5794 -0.1769  1.7209
   31SAPC   C25 4139   6.261   1.701   7.073 -0.3439 -0.3865 -0.1738
   31SAPC   H5R 4140   6.174   1.733   7.015 -0.0942  2.7875  1.0902
   31SAPC   C26 4141   6.250   1.662   7.201  0.2991 -0.2177  0.2338
   31SAPC   H6R 4142   6.146   1.671   7.237  1.2075 -1.5552  3.3434
   31SAPC   C27 4143   6.353   1.608   7.289 -1.0881  0.1610 -0.3504
   31SAPC   H7R 4144   6.325   1.626   7.395 -0.2586 -0.2863 -0.0478
   31SAPC   H7S 4145   6.440   1.675   7.274 -1.6810  1.2480  0.9007
   31SAPC   C28 4146   6.415   1.478   7.261  0.4221 -0.0100  0.2376
   31SAPC   H8R 4147   6.463   1.467   7.163 -2.1121 -1.9212 -0.8512
   31SAPC   C29 4148   6.422   1.366   7.337  0.5247  0.2714 -0.3049
   31SAPC   H9R 4149   6.501   1.297   7.304  1.6975 -0.0976  3.0423
   31SAPC  C210 4150   6.360   1.346   7.476  0.0204  0.6565 -0.4729
   31SAPC  H10R 4151   6.341   1.239   7.500  0.2337  0.3858 -1.4721
   31SAPC  H10S 4152   6.268   1.404   7.497  0.2550  0.5348  0.9275
   31SAPC  C211 4153   6.470   1.390   7.571  0.1009 -0.0545 -0.5224
   31SAPC  H11R 4154   6.571   1.348   7.560 -0.2448 -1.3079  0.9537
   31SAPC  C212 4155   6.443   1.465   7.680 -0.4478  0.4129 -0.1313
   31SAPC  H12R 4156   6.531   1.487   7.743 -0.2911 -2.4253  0.7135
   31SAPC  C213 4157   6.312   1.523   7.727 -0.1319  0.0363  0.1453
   31SAPC  H13R 4158   6.269   1.577   7.640  4.4972  0.5557 -1.9675
   31SAPC  H13S 4159   6.339   1.604   7.799  0.2755  2.6623 -2.8200
   31SAPC  C214 4160   6.200   1.436   7.770 -0.2578 -0.5397 -0.5016
   31SAPC  H14R 4161   6.147   1.391   7.685 -0.8268 -0.8136 -0.0104
   31SAPC  C215 4162   6.153   1.419   7.897  0.1964 -0.0988 -0.3039
   31SAPC  H15R 4163   6.057   1.368   7.913 -0.7714  1.7409 -0.1502
   31SAPC  C216 4164   6.206   1.484   8.023 -0.2397 -0.7503 -0.2492
   31SAPC  H16R 4165   6.122   1.539   8.071  0.2829  0.2534 -0.4767
   31SAPC  H16S 4166   6.284   1.559   7.997 -1.3357  0.2130 -0.8394
   31SAPC  C217 4167   6.265   1.384   8.123 -0.7151 -0.3052 -0.3952
   31SAPC  H17R 4168   6.188   1.308   8.149 -0.1302 -0.0072  2.3493
   31SAPC  H17S 4169   6.294   1.443   8.212  1.0014 -0.9572 -0.4999
   31SAPC  C218 4170   6.394   1.325   8.063 -0.5927 -0.0066  0.3357
   31SAPC  H18R 4171   6.470   1.405   8.076  0.0079 -0.7694  1.6720
   31SAPC  H18S 4172   6.390   1.318   7.952 -2.9800 -2.5806  0.5348
   31SAPC  C219 4173   6.450   1.191   8.126  0.5633 -0.7482  0.0050
   31SAPC  H19R 4174   6.375   1.111   8.109  0.1782 -0.7659  1.6842
   31SAPC  H19S 4175   6.457   1.204   8.236 -0.1331  4.3631 -0.4139
   31SAPC  C220 4176   6.583   1.145   8.078  0.5743  0.8048 -0.0794
   31SAPC  H20R 4177   6.618   1.050   8.122 -0.5534  1.3152  1.9954
   31SAPC  H20S 4178   6.653   1.228   8.103  0.7297  0.2248  1.4354
   31SAPC  H20T 4179   6.582   1.125   7.968  2.1412  0.2095  0.0082
   31SAPC   C33 4180   6.020   2.064   7.114 -0.1832 -0.3111  0.7146
   31SAPC   H3X 4181   5.982   1.962   7.090 -0.2113 -0.5586  1.7615
   31SAPC   H3Y 4182   5.942   2.142   7.108  0.2724  0.0646 -0.5283
   31SAPC   C34 4183   6.049   2.052   7.268 -0.1982  0.0358  0.3847
   31SAPC   H4X 4184   6.071   2.152   7.310  3.3848 -1.0250  1.2005
   31SAPC   H4Y 4185   6.147   2.000   7.260 -0.7808 -1.0103 -0.0648
   31SAPC   C35 4186   5.935   1.966   7.331  0.1920  0.1333  0.7245
   31SAPC   H5X 4187   5.924   1.863   7.290 -1.8632  0.3726  0.6155
   31SAPC   H5Y 4188   5.833   2.003   7.306  0.2074 -0.3071  0.0047
   31SAPC   C36 4189   5.958   1.952   7.477  0.0961  0.3909  0.0260
   31SAPC   H6X 4190   5.867   1.909   7.525 -1.1088 -1.0396 -3.3732
   31SAPC   H6Y 4191   5.962   2.060   7.501  1.0717 -0.0728  2.0335
   31SAPC   C37 4192   6.088   1.884   7.521 -0.0527 -0.2420  0.2185
   31SAPC   H7X 4193   6.164   1.876   7.441  0.3457 -1.7065  0.7270
   31SAPC   H7Y 4194   6.072   1.775   7.542 -1.6733  0.2871  1.9450
   31SAPC   C38 4195   6.148   1.954   7.645 -0.2390 -0.3551 -0.7276
   31SAPC   H8X 4196   6.168   2.057   7.611 -1.9104  1.2911  3.0021
   31SAPC   H8Y 4197   6.246   1.906   7.664 -0.8604 -1.3604 -0.0057
   31SAPC   C39 4198   6.057   1.959   7.773  0.0646 -0.2166 -0.4783
   31SAPC   H9X 4199   5.971   2.025   7.750  0.8937  1.4186  0.9966
   31SAPC   H9Y 4200   6.111   2.016   7.852 -0.0612  0.0504 -0.5863
   31SAPC  C310 4201   6.013   1.824   7.833 -0.4360 -0.1084 -0.0359
   31SAPC  H10X 4202   6.103   1.759   7.830  0.3453  1.0154 -1.6435
   31SAPC  H10Y 4203   5.941   1.787   7.756  0.9319  0.1969 -1.4683
   31SAPC  C311 4204   5.940   1.832   7.962  0.6054  0.1108  0.9141
   31SAPC  H11X 4205   5.875   1.743   7.974  1.8771 -0.9780 -0.0443
   31SAPC  H11Y 4206   5.867   1.916   7.960 -1.0265 -1.2857 -1.2172
   31SAPC  C312 4207   6.025   1.861   8.088  0.1685  0.4244 -0.0735
   31SAPC  H12X 4208   6.106   1.934   8.071  1.4257 -0.8689  0.2532
   31SAPC  H12Y 4209   6.074   1.766   8.118  1.0571  1.1493  0.7831
   31SAPC  C313 4210   5.946   1.890   8.218 -0.5872  0.1598 -0.3218
   31SAPC  H13X 4211   5.889   1.802   8.255 -1.2311  1.7101  2.5159
   31SAPC  H13Y 4212   5.869   1.960   8.179  0.0940  1.3410  0.4283
   31SAPC  C314 4213   6.018   1.944   8.339 -0.1407  0.1291 -0.0304
   31SAPC  H14X 4214   5.941   1.950   8.418  1.0501  0.7269  1.1009
   31SAPC  H14Y 4215   6.053   2.050   8.337  1.6292 -0.3596  2.6541
   31SAPC  C315 4216   6.134   1.855   8.377 -0.4527 -0.3158 -0.2324
   31SAPC  H15X 4217   6.201   1.849   8.288 -2.6121 -0.9641 -1.8620
   31SAPC  H15Y 4218   6.090   1.756   8.400 -1.3970  0.8425  3.2239
   31SAPC  C316 4219   6.208   1.911   8.501  0.0415 -0.4084 -0.3389
   31SAPC  H16X 4220   6.142   1.927   8.589  0.2031 -0.7051 -0.1612
   31SAPC  H16Y 4221   6.259   2.009   8.488 -2.1407  0.5005 -2.2766
   31SAPC  C317 4222   6.313   1.814   8.554 -0.4503  0.5757 -0.0058
   31SAPC  H17X 4223   6.379   1.784   8.470 -1.2410  0.4326 -0.5802
   31SAPC  H17Y 4224   6.260   1.730   8.604 -0.0816  0.8942  0.9409
   31SAPC  C318 4225   6.394   1.876   8.669  0.4757 -0.0544  0.3616
   31SAPC  H18X 4226   6.444   1.968   8.631 -1.5761  1.0961  0.3521
   31SAPC  H18Y 4227   6.478   1.806   8.690  0.6338  0.1329  0.3525
   31SAPC  H18Z 4228   6.326   1.895   8.755 -0.8501 -1.2774 -0.4061
   32SAPC     N 4229   1.383   2.466   6.093  0.5283  0.1180 -0.4010
   32SAPC   C12 4230   1.250   2.394   6.123  0.2265  0.4817 -0.4584
   32SAPC  H12A 4231   1.231   2.418   6.226  0.2929 -0.6373 -0.1752
   32SAPC  H12B 4232   1.265   2.287   6.119  1.6276  0.4370  3.7733
   32SAPC   C13 4233   1.497   2.400   6.169  0.1127  0.2838 -0.1792
   32SAPC  H13A 4234   1.518   2.301   6.131  1.7084  0.1384  1.0282
   32SAPC  H13B 4235   1.586   2.460   6.157  0.7119 -0.0144  2.4640
   32SAPC  H13C 4236   1.477   2.397   6.275  0.4774  2.9068 -0.0004
   32SAPC   C14 4237   1.412   2.458   5.946 -0.1402 -0.0022 -0.2465
   32SAPC  H14A 4238   1.327   2.497   5.892 -2.0657 -0.5507  2.2602
   32SAPC  H14B 4239   1.504   2.506   5.916 -0.1838  0.7858  0.8359
   32SAPC  H14C 4240   1.426   2.358   5.910 -1.8718  0.2607 -1.6996
   32SAPC   C15 4241   1.369   2.608   6.135 -0.4790 -0.6874 -0.4688
   32SAPC  H15A 4242   1.286   2.655   6.085  0.2900  1.3077  0.0990
   32SAPC  H15B 4243   1.341   2.612   6.239  2.1303  3.1223  0.1726
   32SAPC  H15C 4244   1.463   2.653   6.107  0.4469 -2.3921 -0.2184
   32SAPC   C11 4245   1.125   2.426   6.044  0.4710  0.7988  0.4470
   32SAPC  H11A 4246   1.046   2.361   6.086  0.2231  0.9177  0.1671
   32SAPC  H11B 4247   1.145   2.406   5.936 -1.6463 -0.5323  0.2655
   32SAPC     P 4248   1.017   2.634   6.167 -0.1034 -0.5194  0.0129
   32SAPC   O13 4249   1.092   2.756   6.201  0.2519 -0.4579  0.4674
   32SAPC   O14 4250   0.871   2.651   6.133  0.4244  0.2695 -0.1829
   32SAPC   O12 4251   1.090   2.563   6.042  0.1142  0.4980  0.0809
   32SAPC   O11 4252   1.034   2.532   6.278 -0.0663 -0.0941 -0.4274
   32SAPC    C1 4253   0.927   2.439   6.296 -0.0408  0.0266  0.6264
   32SAPC    HA 4254   0.846   2.442   6.220  1.1225  0.0291 -0.6244
   32SAPC    HB 4255   0.963   2.335   6.308 -0.8008 -0.3397 -0.2061
   32SAPC    C2 4256   0.847   2.476   6.428  0.2967 -0.0332 -0.6164
   32SAPC    HS 4257   0.798   2.575   6.420 -0.3521 -0.3761 -0.9345
   32SAPC   O21 4258   0.944   2.478   6.533 -0.0806 -0.3354 -0.6741
   32SAPC   C21 4259   0.933   2.579   6.617  0.2770  0.2940 -0.1459
   32SAPC   O22 4260   0.845   2.662   6.622 -0.0786 -0.2848 -0.1415
   32SAPC   C22 4261   1.059   2.567   6.708  0.3777  0.1309 -0.1477
   32SAPC   H2R 4262   1.080   2.465   6.748 -2.7034 -1.0330 -1.3399
   32SAPC   H2S 4263   1.139   2.611   6.646  1.5658  0.6948  1.7570
   32SAPC    C3 4264   0.731   2.376   6.463 -0.5525 -0.1787 -0.6013
   32SAPC    HX 4265   0.790   2.283   6.479 -1.0802 -0.0635  2.2081
   32SAPC    HY 4266   0.661   2.352   6.380 -0.1509  0.0836 -1.0223
   32SAPC   O31 4267   0.659   2.396   6.585  0.7085  0.1536 -0.7901
   32SAPC   C31 4268   0.538   2.455   6.572 -0.7099  0.4664  0.2357
   32SAPC   O32 4269   0.495   2.513   6.472  0.2612  0.6330 -0.0708
   32SAPC   C32 4270   0.470   2.466   6.710  0.9911  0.2874  0.3135
   32SAPC   H2X 4271   0.504   2.378   6.768  0.5138 -1.2064 -1.5886
   32SAPC   H2Y 4272   0.364   2.446   6.682  0.8284  3.4743 -1.5618
   32SAPC   C23 4273   1.037   2.650   6.842 -0.5190 -0.2115 -0.0256
   32SAPC   H3R 4274   0.978   2.593   6.917  1.5920 -0.9240  1.1514
   32SAPC   H3S 4275   0.984   2.744   6.816  2.4730  0.9169 -2.4187
   32SAPC   C24 4276   1.169   2.692   6.909 -0.1024  0.4031 -0.3058
   32SAPC   H4R 4277   1.140   2.748   7.001 -0.7897  1.3059 -1.0599
   32SAPC   H4S 4278   1.219   2.766   6.843 -0.3674  0.0816 -0.8717
   32SAPC   C25 4279   1.247   2.565   6.930  0.4209 -0.0704  0.0992
   32SAPC   H5R 4280   1.283   2.528   6.833 -0.4662 -1.9041  0.4518
   32SAPC   C26 4281   1.278   2.508   7.050  0.2334  0.0838 -0.5322
   32SAPC   H6R 4282   1.334   2.414   7.045 -0.4551 -0.2371 -2.5835
   32SAPC   C27 4283   1.246   2.550   7.195  0.0348  0.1764 -0.0942
   32SAPC   H7R 4284   1.261   2.460   7.259  0.7980 -0.1402 -0.7058
   32SAPC   H7S 4285   1.136   2.548   7.189 -0.2534 -0.4932  3.8533
   32SAPC   C28 4286   1.306   2.671   7.245  0.2551  0.1419  0.1541
   32SAPC   H8R 4287   1.315   2.747   7.166  2.2210 -0.4899 -0.2791
   32SAPC   C29 4288   1.354   2.700   7.367 -0.3414 -0.2833 -0.6748
   32SAPC   H9R 4289   1.404   2.794   7.394  1.4160 -1.4798  0.3724
   32SAPC  C210 4290   1.357   2.600   7.488 -0.1387 -0.1085 -0.0598
   32SAPC  H10R 4291   1.454   2.600   7.542  0.3034  0.5501 -0.8339
   32SAPC  H10S 4292   1.351   2.502   7.438  0.9170 -1.2639  2.0162
   32SAPC  C211 4293   1.233   2.606   7.577 -0.0292  0.1095 -0.9353
   32SAPC  H11R 4294   1.133   2.598   7.531  0.1818 -1.7112 -1.1051
   32SAPC  C212 4295   1.245   2.633   7.709  0.3273  0.7467 -0.6704
   32SAPC  H12R 4296   1.157   2.629   7.775  0.5567 -1.1242 -0.4440
   32SAPC  C213 4297   1.372   2.640   7.791 -0.0289  0.1605 -0.2963
   32SAPC  H13R 4298   1.443   2.560   7.760 -2.5535 -2.4645  0.4799
   32SAPC  H13S 4299   1.348   2.612   7.895  1.8043 -0.2994  0.0218
   32SAPC  C214 4300   1.445   2.765   7.779  0.1536 -0.3963 -0.1036
   32SAPC  H14R 4301   1.407   2.831   7.700  0.6719  0.4757  0.3552
   32SAPC  C215 4302   1.549   2.800   7.862  0.1133 -0.0112 -0.6378
   32SAPC  H15R 4303   1.593   2.900   7.855  0.5318 -0.1213  0.3837
   32SAPC  C216 4304   1.602   2.730   7.980  0.1217  0.0193 -0.2298
   32SAPC  H16R 4305   1.712   2.747   7.984  0.5148 -2.5888  1.6972
   32SAPC  H16S 4306   1.585   2.620   7.972  1.6674 -0.2731  0.3220
   32SAPC  C217 4307   1.546   2.786   8.106 -0.3854 -0.1412  0.6737
   32SAPC  H17R 4308   1.562   2.705   8.180 -1.1551  0.5459  1.6152
   32SAPC  H17S 4309   1.437   2.801   8.092 -0.3831 -0.4137  0.3675
   32SAPC  C218 4310   1.619   2.919   8.154  0.8022 -0.2265  0.0066
   32SAPC  H18R 4311   1.607   2.987   8.067  0.0313  0.8543  0.9343
   32SAPC  H18S 4312   1.729   2.903   8.162  0.7324 -1.3708 -1.1226
   32SAPC  C219 4313   1.563   2.982   8.279 -0.4004  0.2279 -0.6366
   32SAPC  H19R 4314   1.452   2.977   8.274 -0.4170  0.1768 -0.2362
   32SAPC  H19S 4315   1.595   3.086   8.301  0.9983 -0.4787  0.7711
   32SAPC  C220 4316   1.607   2.901   8.411 -0.1407  0.2375 -0.0008
   32SAPC  H20R 4317   1.567   2.960   8.496  1.0753  0.3894  0.4873
   32SAPC  H20S 4318   1.713   2.911   8.445 -0.3260 -1.0376  0.9741
   32SAPC  H20T 4319   1.574   2.796   8.402 -1.4633  0.7616 -1.3508
   32SAPC   C33 4320   0.495   2.601   6.771 -0.3919  0.5542 -0.1381
   32SAPC   H3X 4321   0.434   2.679   6.719 -0.7148  0.5439  0.2224
   32SAPC   H3Y 4322   0.600   2.637   6.767 -0.0533 -0.2650  1.2729
   32SAPC   C34 4323   0.463   2.612   6.928 -0.7650  0.0847  0.2865
   32SAPC   H4X 4324   0.380   2.540   6.946 -1.0971 -0.1951 -2.1924
   32SAPC   H4Y 4325   0.428   2.709   6.968  0.6054  0.0255  1.6688
   32SAPC   C35 4326   0.582   2.574   7.024  0.0123 -0.1153 -0.3528
   32SAPC   H5X 4327   0.659   2.654   7.015  0.1048 -0.1730 -0.0794
   32SAPC   H5Y 4328   0.616   2.477   6.982 -0.4913 -1.2657  1.8443
   32SAPC   C36 4329   0.542   2.556   7.171 -0.1974  0.3966 -0.4238
   32SAPC   H6X 4330   0.622   2.498   7.222 -2.0847 -0.7483  1.3471
   32SAPC   H6Y 4331   0.446   2.501   7.181 -0.4857  1.4253  3.1296
   32SAPC   C37 4332   0.521   2.695   7.237 -0.1754 -0.9883  0.2048
   32SAPC   H7X 4333   0.445   2.739   7.169 -0.1154 -1.0853  0.0745
   32SAPC   H7Y 4334   0.618   2.750   7.238 -1.7260  1.9627 -2.8975
   32SAPC   C38 4335   0.455   2.679   7.377  0.3896  0.3279 -0.5516
   32SAPC   H8X 4336   0.519   2.628   7.451  0.2988 -0.9850 -1.3716
   32SAPC   H8Y 4337   0.363   2.618   7.364 -0.3911  1.3667  0.0631
   32SAPC   C39 4338   0.403   2.815   7.431 -0.2573  0.0655 -0.1971
   32SAPC   H9X 4339   0.318   2.845   7.365 -0.1664 -1.3943 -0.9979
   32SAPC   H9Y 4340   0.481   2.894   7.429 -0.7441  0.5433 -0.3906
   32SAPC  C310 4341   0.344   2.806   7.573  0.6369 -0.5843 -0.2646
   32SAPC  H10X 4342   0.271   2.723   7.565 -0.5682  0.3780  0.3923
   32SAPC  H10Y 4343   0.287   2.899   7.595 -0.2748 -1.2060  0.0400
   32SAPC  C311 4344   0.443   2.784   7.687  0.0147  0.0531  0.3702
   32SAPC  H11X 4345   0.509   2.871   7.706  0.6098 -0.4284  0.5107
   32SAPC  H11Y 4346   0.515   2.703   7.661  1.2247  1.1338  0.3154
   32SAPC  C312 4347   0.378   2.742   7.816  0.4832  0.1448  0.2963
   32SAPC  H12X 4348   0.306   2.662   7.790  0.8996 -1.0607  2.7070
   32SAPC  H12Y 4349   0.321   2.821   7.868 -0.5149  0.6492 -1.5103
   32SAPC  C313 4350   0.491   2.682   7.910  0.0032  0.5781 -0.3657
   32SAPC  H13X 4351   0.578   2.751   7.914  0.4963 -0.1389  1.9664
   32SAPC  H13Y 4352   0.517   2.580   7.877  0.6352 -0.0369  1.9135
   32SAPC  C314 4353   0.431   2.660   8.053  0.0654 -0.3752  0.2325
   32SAPC  H14X 4354   0.375   2.564   8.061 -0.4486 -0.2028 -1.1412
   32SAPC  H14Y 4355   0.351   2.733   8.074  1.7591  1.4873  0.3636
   32SAPC  C315 4356   0.544   2.677   8.150 -0.0909 -0.1236  0.4624
   32SAPC  H15X 4357   0.611   2.764   8.133  0.8019 -0.4544  2.1843
   32SAPC  H15Y 4358   0.615   2.593   8.134  0.6107  0.6030 -0.3302
   32SAPC  C316 4359   0.496   2.652   8.292  0.1078  0.4958  0.2972
   32SAPC  H16X 4360   0.413   2.720   8.322 -0.5252  0.5076 -1.4335
   32SAPC  H16Y 4361   0.573   2.696   8.359  1.1059 -1.6068  0.5362
   32SAPC  C317 4362   0.458   2.509   8.322 -0.3362  0.1355  0.3972
   32SAPC  H17X 4363   0.551   2.451   8.300 -1.1253 -0.6497 -0.9942
   32SAPC  H17Y 4364   0.385   2.479   8.243  2.2610 -3.3273 -0.8462
   32SAPC  C318 4365   0.401   2.478   8.464 -0.8612 -0.1937  0.3134
   32SAPC  H18X 4366   0.473   2.535   8.527  0.2647 -0.3710 -0.7897
   32SAPC  H18Y 4367   0.409   2.374   8.501 -2.0996  0.4464  2.4239
   32SAPC  H18Z 4368   0.296   2.510   8.482 -1.4940 -1.0076 -1.7879
   33POPC     N 4369   5.262   3.977  10.832  0.2447  0.7774 -0.9195
   33POPC   C12 4370   5.311   3.920  10.701  0.4742  0.7441 -0.1448
   33POPC  H12A 4371   5.340   3.819  10.724 -0.7856  0.5281  0.5198
   33POPC  H12B 4372   5.407   3.965  10.677 -0.2518  1.4326 -1.7778
   33POPC   C13 4373   5.157   3.893  10.891  0.2074  0.4550 -0.0894
   33POPC  H13A 4374   5.179   3.793  10.924  1.7496  0.0196 -2.2833
   33POPC  H13B 4375   5.096   3.937  10.968 -2.4946 -1.9781 -0.7160
   33POPC  H13C 4376   5.090   3.868  10.809 -0.1520 -0.9842  0.6324
   33POPC   C14 4377   5.364   4.000  10.942  0.3041 -0.0181 -0.4130
   33POPC  H14A 4378   5.308   4.022  11.032  0.6734 -1.6289  0.2315
   33POPC  H14B 4379   5.425   3.912  10.955 -3.3273 -2.8399 -1.8949
   33POPC  H14C 4380   5.424   4.084  10.910  1.2818 -1.0692 -1.3925
   33POPC   C15 4381   5.201   4.112  10.807 -0.2084 -0.0560  0.4202
   33POPC  H15A 4382   5.193   4.170  10.898 -0.9757  0.9519 -0.2845
   33POPC  H15B 4383   5.104   4.102  10.762  0.7705  0.6167 -1.9299
   33POPC  H15C 4384   5.255   4.169  10.732 -0.0189  1.3067  1.5664
   33POPC   C11 4385   5.228   3.930  10.575 -0.2465 -0.6308  0.2478
   33POPC  H11A 4386   5.290   3.893  10.490 -1.7737 -0.9874 -0.7347
   33POPC  H11B 4387   5.194   4.032  10.547 -2.1578 -1.4776 -0.5723
   33POPC     P 4388   5.119   3.694  10.591  0.0776  0.0790 -0.0760
   33POPC   O13 4389   5.011   3.644  10.684 -0.3839  0.6760 -0.0664
   33POPC   O14 4390   5.250   3.641  10.623  0.0643 -0.0759 -0.7650
   33POPC   O12 4391   5.112   3.846  10.593  0.0337  0.2489  0.3237
   33POPC   O11 4392   5.090   3.658  10.440 -0.2026  0.0577  0.3531
   33POPC    C1 4393   4.955   3.695  10.392 -0.5071  0.1860  0.6599
   33POPC    HA 4394   4.905   3.596  10.403 -0.0042 -0.0802  0.6017
   33POPC    HB 4395   4.905   3.761  10.466  0.9818  1.0441  0.9204
   33POPC    C2 4396   4.956   3.747  10.248  0.5471  0.0900  0.1284
   33POPC    HS 4397   4.853   3.780  10.220  0.7127 -0.3723 -1.0827
   33POPC   O21 4398   5.009   3.651  10.156  0.6052 -0.1107 -0.6814
   33POPC   C21 4399   4.958   3.660  10.033 -0.0150  0.3346  0.2493
   33POPC   O22 4400   4.858   3.719  10.000  0.0451 -0.4590 -0.5026
   33POPC   C22 4401   5.031   3.559   9.951  0.2296  0.1329  0.4027
   33POPC   H2R 4402   5.008   3.454   9.977  0.1099  0.5592  2.0602
   33POPC   H2S 4403   5.139   3.575   9.975  0.4190  0.1084 -0.4053
   33POPC    C3 4404   5.038   3.880  10.239  0.1076 -0.3152  0.3177
   33POPC    HX 4405   5.147   3.856  10.239 -0.5282 -3.5112 -2.2879
   33POPC    HY 4406   5.027   3.941  10.331  0.9954  0.6305 -0.1939
   33POPC   O31 4407   5.003   3.968  10.136 -0.0060 -0.0272  0.1321
   33POPC   C31 4408   5.099   3.999  10.045 -1.0658  0.3402 -0.5517
   33POPC   O32 4409   5.215   3.948  10.038  0.4773 -0.1397  0.4917
   33POPC   C32 4410   5.051   4.100   9.948  0.7799  0.2360 -0.6512
   33POPC   H2X 4411   5.103   4.194   9.975  1.5979 -0.3679 -0.1218
   33POPC   H2Y 4412   4.947   4.131   9.972  1.0259 -1.3656  2.6617
   33POPC   C23 4413   5.019   3.574   9.798 -0.4213  0.1446  0.7803
   33POPC   H3R 4414   5.060   3.670   9.760 -0.1132 -0.7188 -1.0947
   33POPC   H3S 4415   4.911   3.555   9.779 -0.6514  1.0457  1.1303
   33POPC   C24 4416   5.083   3.459   9.718  0.6587  0.6734  0.1645
   33POPC   H4R 4417   5.021   3.432   9.630 -2.0803  0.3809  2.1301
   33POPC   H4S 4418   5.085   3.367   9.780 -0.5002  1.0230  0.7391
   33POPC   C25 4419   5.229   3.492   9.686  1.4713  0.3330 -0.3365
   33POPC   H5R 4420   5.279   3.489   9.785  0.7363  0.9233  0.0619
   33POPC   H5S 4421   5.230   3.599   9.654  2.8917  1.5073  3.3969
   33POPC   C26 4422   5.299   3.404   9.582  0.4519 -0.4202  0.5629
   33POPC   H6R 4423   5.291   3.303   9.627 -2.8862  0.8789  3.0843
   33POPC   H6S 4424   5.404   3.437   9.594  0.6716 -1.4722  1.6052
   33POPC   C27 4425   5.234   3.416   9.446  0.4412 -0.1873 -0.0882
   33POPC   H7R 4426   5.200   3.519   9.418  1.4971  0.4331  0.8659
   33POPC   H7S 4427   5.142   3.355   9.448  0.8813 -0.8681 -0.4018
   33POPC   C28 4428   5.336   3.371   9.342 -0.3670 -0.2126 -0.4624
   33POPC   H8R 4429   5.380   3.275   9.376  0.7268  1.6057  3.5136
   33POPC   H8S 4430   5.417   3.447   9.334 -0.1398 -0.2983  0.9668
   33POPC   C29 4431   5.272   3.355   9.205 -0.2500  0.4585  0.3825
   33POPC   H91 4432   5.181   3.416   9.198 -1.7231 -1.3124  3.0996
   33POPC  C210 4433   5.335   3.298   9.100  0.0124 -0.0238  0.2801
   33POPC  H101 4434   5.284   3.308   9.003 -0.8330  1.0125  0.8106
   33POPC  C211 4435   5.469   3.243   9.105 -0.7023 -0.1972  0.7630
   33POPC  H11R 4436   5.468   3.135   9.080  2.0243 -0.2239  0.6222
   33POPC  H11S 4437   5.523   3.240   9.202  2.0570  1.9097 -0.6410
   33POPC  C212 4438   5.562   3.303   9.006 -0.2338  0.1061 -0.2167
   33POPC  H12R 4439   5.631   3.375   9.055 -1.1472  1.4594 -0.9126
   33POPC  H12S 4440   5.510   3.363   8.929  0.1463  1.7759  0.7991
   33POPC  C213 4441   5.644   3.188   8.928  0.4484  0.7712  0.2254
   33POPC  H13R 4442   5.583   3.147   8.845  0.9380  1.1942 -0.3495
   33POPC  H13S 4443   5.680   3.112   9.000 -0.6434 -0.7865 -0.8445
   33POPC  C214 4444   5.770   3.237   8.852  0.3115  1.0395  0.9127
   33POPC  H14R 4445   5.839   3.293   8.919  1.0148  1.8170 -0.4419
   33POPC  H14S 4446   5.746   3.302   8.766  2.5512 -0.0944 -0.6147
   33POPC  C215 4447   5.847   3.113   8.794 -0.0328 -0.3193  0.5214
   33POPC  H15R 4448   5.813   3.068   8.698  0.9906 -1.2140  0.5648
   33POPC  H15S 4449   5.864   3.039   8.875  0.5564 -0.0531  0.6421
   33POPC  C216 4450   5.994   3.144   8.761  0.3393 -0.7700 -0.6097
   33POPC  H16R 4451   6.045   3.186   8.851 -0.2179  0.2825 -0.7755
   33POPC  H16S 4452   6.004   3.220   8.681 -0.8318  1.1870  1.0586
   33POPC  C217 4453   6.065   3.016   8.720 -0.6607  0.1392  0.0464
   33POPC  H17R 4454   6.017   2.971   8.631  1.3634 -0.6672 -0.6592
   33POPC  H17S 4455   6.054   2.940   8.800  2.1499  0.6924  1.0160
   33POPC  C218 4456   6.221   3.035   8.703 -0.3291  0.4903 -0.4471
   33POPC  H18R 4457   6.275   2.947   8.662 -0.9815  0.8014 -1.9959
   33POPC  H18S 4458   6.262   3.059   8.803 -0.4824  1.5783 -0.6317
   33POPC  H18T 4459   6.250   3.120   8.637  3.3039 -0.8502 -0.7302
   33POPC   C33 4460   5.071   4.064   9.801  0.0872 -0.6024  0.3690
   33POPC   H3X 4461   5.158   3.996   9.786 -0.7644 -2.2885  2.6824
   33POPC   H3Y 4462   5.073   4.153   9.734 -1.1223  0.4557  1.7004
   33POPC   C34 4463   4.951   3.985   9.738 -0.0786 -0.3237  0.2541
   33POPC   H4X 4464   4.864   4.051   9.722  0.2277  0.0817  0.2706
   33POPC   H4Y 4465   4.936   3.907   9.816 -1.4121  1.5408  1.9107
   33POPC   C35 4466   4.983   3.907   9.610 -0.3195 -0.3910  0.1213
   33POPC   H5X 4467   5.062   3.830   9.624  1.8956  1.9296  0.7641
   33POPC   H5Y 4468   5.032   3.971   9.533  2.0823  0.3201  2.1822
   33POPC   C36 4469   4.861   3.836   9.557  0.2247 -0.1909 -0.0948
   33POPC   H6X 4470   4.800   3.906   9.496  2.7371  0.4974 -1.9244
   33POPC   H6Y 4471   4.808   3.804   9.649  2.8981  0.2554  1.6713
   33POPC   C37 4472   4.898   3.711   9.474  0.2411 -0.3069  0.1663
   33POPC   H7X 4473   4.801   3.680   9.431  0.5743  0.0916 -0.9006
   33POPC   H7Y 4474   4.944   3.635   9.541  2.1500  1.1457  0.5728
   33POPC   C38 4475   4.988   3.757   9.357 -0.1076 -0.9209  0.6272
   33POPC   H8X 4476   5.093   3.771   9.390 -0.8537  2.8710  1.5827
   33POPC   H8Y 4477   4.949   3.849   9.309 -1.9082 -1.4337  1.0828
   33POPC   C39 4478   5.004   3.650   9.242  0.1066  0.0246  0.1252
   33POPC   H9X 4479   4.904   3.652   9.194  0.0957  3.3707  0.1675
   33POPC   H9Y 4480   5.023   3.559   9.304 -2.2574 -0.0971  0.7025
   33POPC  C310 4481   5.099   3.693   9.142  0.0480 -0.4244 -0.4919
   33POPC  H10X 4482   5.202   3.713   9.179  0.8008 -0.4688 -2.5219
   33POPC  H10Y 4483   5.069   3.797   9.117 -2.6594 -0.8945  0.6314
   33POPC  C311 4484   5.103   3.614   9.008 -0.0026  0.2155 -0.5869
   33POPC  H11X 4485   5.132   3.508   9.021 -0.6473 -0.5349 -4.6616
   33POPC  H11Y 4486   5.183   3.658   8.945  0.8691  0.6097  0.7645
   33POPC  C312 4487   4.958   3.620   8.933  0.5268  0.2048 -0.8944
   33POPC  H12X 4488   4.878   3.585   9.002  1.5270  2.7432  1.6175
   33POPC  H12Y 4489   4.966   3.548   8.849  2.3432 -0.2366 -0.3783
   33POPC  C313 4490   4.911   3.758   8.883 -0.3439 -0.7582  0.4422
   33POPC  H13X 4491   4.966   3.843   8.928 -1.3450 -0.8755  1.9626
   33POPC  H13Y 4492   4.803   3.781   8.895 -0.0478  1.7627 -1.3992
   33POPC  C314 4493   4.937   3.768   8.734 -0.1609 -0.4177  0.7355
   33POPC  H14X 4494   5.040   3.731   8.711 -0.8734 -1.5347 -0.7660
   33POPC  H14Y 4495   4.938   3.872   8.696  1.7726 -0.2730  1.1346
   33POPC  C315 4496   4.840   3.684   8.646 -0.1096  0.1285  0.5501
   33POPC  H15X 4497   4.739   3.731   8.651 -0.1633 -0.1526  2.2645
   33POPC  H15Y 4498   4.825   3.582   8.687 -0.8119 -0.2203 -0.5666
   33POPC  C316 4499   4.881   3.668   8.502 -0.6024  0.7325  0.0510
   33POPC  H16X 4500   4.984   3.629   8.492 -0.9461 -0.1013 -0.3405
   33POPC  H16Y 4501   4.899   3.765   8.452  2.3853  0.5752  0.7492
   33POPC  H16Z 4502   4.816   3.609   8.432  1.9173  0.1162 -1.8416
   34POPC     N 4503   4.500   4.887  11.015 -0.7930  0.5634  0.3676
   34POPC   C12 4504   4.466   4.913  10.869 -0.2057 -0.3789 -0.4070
   34POPC  H12A 4505   4.557   4.890  10.815 -0.4627 -2.7976  0.1076
   34POPC  H12B 4506   4.454   5.019  10.857 -1.2690 -0.2786  1.3078
   34POPC   C13 4507   4.566   4.753  11.019 -0.3514 -0.3941  0.0767
   34POPC  H13A 4508   4.510   4.688  10.954 -0.3848 -0.5362  0.2489
   34POPC  H13B 4509   4.665   4.754  10.976 -0.3357  1.5279  0.1061
   34POPC  H13C 4510   4.565   4.711  11.118 -1.1371  3.7348  1.9418
   34POPC   C14 4511   4.593   4.995  11.070 -0.5405 -0.0005 -0.1948
   34POPC  H14A 4512   4.679   5.011  11.007 -1.1816  0.2068 -1.0366
   34POPC  H14B 4513   4.546   5.091  11.081 -3.0455 -1.0922 -0.7931
   34POPC  H14C 4514   4.621   4.964  11.170  1.6477  0.7405 -0.5598
   34POPC   C15 4515   4.373   4.883  11.090  0.6328 -0.0301  0.6075
   34POPC  H15A 4516   4.381   4.893  11.197 -1.1285 -1.0325  0.8431
   34POPC  H15B 4517   4.331   4.792  11.052  1.2756 -0.3005  0.5269
   34POPC  H15C 4518   4.307   4.964  11.062  0.3209 -0.3648  0.3659
   34POPC   C11 4519   4.342   4.839  10.804 -0.0471 -0.8519  0.4089
   34POPC  H11A 4520   4.324   4.897  10.711 -1.7509 -1.3374  0.4378
   34POPC  H11B 4521   4.250   4.856  10.864 -3.7253  1.6161 -5.4733
   34POPC     P 4522   4.478   4.665  10.669 -0.1673  0.4969  0.1934
   34POPC   O13 4523   4.527   4.532  10.690 -0.1029  0.4203  0.0271
   34POPC   O14 4524   4.585   4.766  10.656  0.0266 -0.4494 -0.4822
   34POPC   O12 4525   4.371   4.705  10.778 -0.2458  0.2903 -0.1559
   34POPC   O11 4526   4.373   4.666  10.548 -0.8757  0.2722  0.4681
   34POPC    C1 4527   4.376   4.765  10.446 -0.2705 -0.0736 -0.3501
   34POPC    HA 4528   4.472   4.757  10.391  0.5972 -0.4335  1.1897
   34POPC    HB 4529   4.371   4.864  10.496 -3.9103  0.0839 -0.8923
   34POPC    C2 4530   4.257   4.745  10.349  0.5995  0.2120  0.2575
   34POPC    HS 4531   4.164   4.782  10.396  0.4305  0.4763 -0.2796
   34POPC   O21 4532   4.226   4.610  10.304 -0.1667 -0.5226  0.1642
   34POPC   C21 4533   4.321   4.551  10.233  0.3340  0.3538  0.1042
   34POPC   O22 4534   4.431   4.596  10.203  0.1497  0.8927 -0.0797
   34POPC   C22 4535   4.287   4.402  10.215  0.2710 -0.1539 -0.4082
   34POPC   H2R 4536   4.215   4.364  10.290  0.2331  2.6701  1.0566
   34POPC   H2S 4537   4.383   4.348  10.231  2.1841  3.0723 -0.4932
   34POPC    C3 4538   4.261   4.845  10.223  0.0081 -0.1759  0.2304
   34POPC    HX 4539   4.359   4.828  10.173  0.9356 -1.0057  2.2606
   34POPC    HY 4540   4.261   4.946  10.268  0.3610  1.4858 -3.3280
   34POPC   O31 4541   4.160   4.831  10.124 -0.3848 -0.5512  0.2324
   34POPC   C31 4542   4.053   4.913  10.147  0.3253  0.2956 -0.7557
   34POPC   O32 4543   4.043   4.998  10.232  0.5261  0.5194  0.1385
   34POPC   C32 4544   3.964   4.907  10.022  0.7022 -0.1954 -1.1179
   34POPC   H2X 4545   3.933   4.803  10.002 -0.5831 -0.3140  1.3086
   34POPC   H2Y 4546   4.028   4.930   9.934  0.8655  0.4541 -0.8379
   34POPC   C23 4547   4.221   4.374  10.073  0.5651 -0.8225 -0.8725
   34POPC   H3R 4548   4.123   4.422  10.093  0.9894  0.2259 -1.2724
   34POPC   H3S 4549   4.202   4.266  10.057  0.8597 -1.0113  0.0228
   34POPC   C24 4550   4.293   4.438   9.956  0.2029  0.3665 -0.2420
   34POPC   H4R 4551   4.396   4.398   9.965 -0.3530 -0.7431  1.5019
   34POPC   H4S 4552   4.301   4.548   9.965 -0.3173  0.2718  1.3726
   34POPC   C25 4553   4.217   4.412   9.817  0.1175 -0.5861 -0.2754
   34POPC   H5R 4554   4.131   4.482   9.811 -2.9114 -4.1993 -0.6291
   34POPC   H5S 4555   4.169   4.313   9.830 -0.4812 -0.6508 -2.7338
   34POPC   C26 4556   4.304   4.411   9.686 -0.7790  0.8716 -0.0708
   34POPC   H6R 4557   4.368   4.322   9.670 -2.3642 -0.7465  2.3889
   34POPC   H6S 4558   4.376   4.496   9.683  0.9331 -0.5996 -2.6857
   34POPC   C27 4559   4.212   4.422   9.567  0.2124  0.2816  0.1872
   34POPC   H7R 4560   4.142   4.507   9.581 -2.4134 -1.3953 -2.3162
   34POPC   H7S 4561   4.151   4.331   9.553  0.8764 -0.2201  0.5208
   34POPC   C28 4562   4.283   4.459   9.440  0.3836  0.0480 -0.7153
   34POPC   H8R 4563   4.344   4.548   9.467 -0.3826 -0.4933  2.9805
   34POPC   H8S 4564   4.206   4.473   9.360  0.1527  0.8968 -0.3457
   34POPC   C29 4565   4.363   4.344   9.385 -0.0473  0.1562 -0.6599
   34POPC   H91 4566   4.446   4.300   9.442 -0.1008 -1.2723 -1.6671
   34POPC  C210 4567   4.333   4.271   9.280 -0.1702  0.3664  0.6685
   34POPC  H101 4568   4.389   4.179   9.256  1.2053  0.8883  1.8198
   34POPC  C211 4569   4.224   4.299   9.176 -0.6495  0.2097  0.3782
   34POPC  H11R 4570   4.272   4.320   9.078 -1.7154 -0.4963 -0.3079
   34POPC  H11S 4571   4.172   4.395   9.193 -0.2644  0.8090 -1.7327
   34POPC  C212 4572   4.126   4.184   9.174 -0.0307  0.4278 -0.7203
   34POPC  H12R 4573   4.163   4.081   9.154  0.4806  0.0572  2.0509
   34POPC  H12S 4574   4.060   4.205   9.087  0.0665  1.0438 -0.6488
   34POPC  C213 4575   4.024   4.173   9.296 -0.3405  0.3041  0.4104
   34POPC  H13R 4576   3.974   4.269   9.321 -0.5056  0.2802  0.1712
   34POPC  H13S 4577   4.086   4.144   9.384 -1.5758  0.0278  1.2007
   34POPC  C214 4578   3.930   4.054   9.285 -0.1385  0.6643  0.4689
   34POPC  H14R 4579   3.987   3.959   9.286 -0.0979  0.6848  0.1500
   34POPC  H14S 4580   3.876   4.068   9.189 -0.0069  0.3427  0.3467
   34POPC  C215 4581   3.829   4.030   9.399 -0.2921  0.3908  0.0185
   34POPC  H15R 4582   3.769   3.938   9.385 -0.4470  0.7968 -2.2667
   34POPC  H15S 4583   3.755   4.113   9.404  0.0417  0.7002 -0.0860
   34POPC  C216 4584   3.897   4.023   9.539  0.1451 -0.3211  0.4204
   34POPC  H16R 4585   3.933   4.122   9.574 -0.2239 -0.6176  1.6297
   34POPC  H16S 4586   3.991   3.965   9.526 -0.1207 -0.1315 -3.0461
   34POPC  C217 4587   3.807   3.966   9.652  0.2807 -1.4390  0.1604
   34POPC  H17R 4588   3.774   3.863   9.626  2.7123 -2.1166 -0.4541
   34POPC  H17S 4589   3.725   4.038   9.670  1.4759 -0.0664  0.2595
   34POPC  C218 4590   3.893   3.949   9.782  0.5281 -0.8511 -0.3001
   34POPC  H18R 4591   3.969   3.873   9.753 -0.1240 -1.5330 -0.2581
   34POPC  H18S 4592   3.827   3.915   9.865 -2.7693  1.1142 -2.0085
   34POPC  H18T 4593   3.949   4.041   9.808  0.0085 -0.7179  0.3397
   34POPC   C33 4594   3.847   5.006  10.026  0.1235  0.2122  0.4187
   34POPC   H3X 4595   3.884   5.105  10.059  0.4274  0.3522 -0.3213
   34POPC   H3Y 4596   3.760   4.974  10.087 -1.6208  0.7656 -1.7199
   34POPC   C34 4597   3.805   5.037   9.883 -0.7986 -0.3983 -0.0474
   34POPC   H4X 4598   3.890   5.067   9.820 -1.2229  0.1120 -0.3816
   34POPC   H4Y 4599   3.729   5.118   9.886  0.1889  0.5018  0.9998
   34POPC   C35 4600   3.737   4.915   9.815 -0.2221  0.3731 -0.1027
   34POPC   H5X 4601   3.812   4.832   9.818  0.3501  0.8815 -0.2337
   34POPC   H5Y 4602   3.717   4.946   9.710 -3.3033  3.6115  1.3545
   34POPC   C36 4603   3.612   4.872   9.882 -0.8737  0.1879  0.1746
   34POPC   H6X 4604   3.537   4.954   9.885 -1.1142 -0.0140 -0.2205
   34POPC   H6Y 4605   3.631   4.836   9.986 -1.7500 -0.2975  0.1735
   34POPC   C37 4606   3.547   4.747   9.816 -0.5105  0.2356 -0.5792
   34POPC   H7X 4607   3.458   4.717   9.875 -0.1127 -0.6593 -0.4244
   34POPC   H7Y 4608   3.616   4.661   9.805  0.0562  0.8261 -1.7999
   34POPC   C38 4609   3.488   4.765   9.674  0.0654  0.2521 -0.3069
   34POPC   H8X 4610   3.569   4.780   9.598 -1.3256  2.2723 -1.4229
   34POPC   H8Y 4611   3.446   4.868   9.672 -1.5152 -0.3956 -1.5415
   34POPC   C39 4612   3.392   4.650   9.634 -0.0684  0.3206 -0.2937
   34POPC   H9X 4613   3.342   4.625   9.730  0.6155  4.0678  1.1377
   34POPC   H9Y 4614   3.462   4.567   9.610  1.7732  1.6721  0.2648
   34POPC  C310 4615   3.283   4.667   9.530 -0.8838  0.0113  0.0828
   34POPC  H10X 4616   3.201   4.739   9.550  0.0685  0.8594  1.0404
   34POPC  H10Y 4617   3.236   4.568   9.519 -0.9049  0.0975 -0.6057
   34POPC  C311 4618   3.344   4.696   9.390 -0.1220 -0.6797 -0.1218
   34POPC  H11X 4619   3.417   4.614   9.371  0.3789 -0.7111  1.8938
   34POPC  H11Y 4620   3.403   4.790   9.396  2.0436 -1.8905 -1.4878
   34POPC  C312 4621   3.247   4.711   9.273 -0.8066 -0.2679  0.1019
   34POPC  H12X 4622   3.171   4.789   9.294 -1.0693 -0.1819 -1.1390
   34POPC  H12Y 4623   3.202   4.611   9.256 -0.3554 -0.6780  1.2918
   34POPC  C313 4624   3.319   4.730   9.138  0.1217 -0.1038 -0.2377
   34POPC  H13X 4625   3.374   4.636   9.118  0.7781 -0.0374  1.1186
   34POPC  H13Y 4626   3.393   4.812   9.151 -0.2647  0.1242  0.5678
   34POPC  C314 4627   3.222   4.761   9.028 -0.6453 -0.1800 -0.6310
   34POPC  H14X 4628   3.143   4.833   9.058 -2.9265 -1.5483 -3.1474
   34POPC  H14Y 4629   3.173   4.666   8.998 -0.2791 -0.7130  0.4277
   34POPC  C315 4630   3.287   4.826   8.904  0.1118  0.8368  0.0654
   34POPC  H15X 4631   3.322   4.930   8.925 -1.1584  1.1528  0.6732
   34POPC  H15Y 4632   3.213   4.837   8.822  0.4073 -0.4292 -0.3816
   34POPC  C316 4633   3.401   4.743   8.840  0.4108  0.0482  0.9217
   34POPC  H16X 4634   3.461   4.815   8.780 -0.9728 -0.6403 -1.3924
   34POPC  H16Y 4635   3.362   4.660   8.778 -0.8032  2.7992 -2.1801
   34POPC  H16Z 4636   3.466   4.701   8.919 -0.4192  1.3925  2.3447
   35POPC     N 4637   3.495   1.917  11.145  0.4589  0.1943  0.1311
   35POPC   C12 4638   3.569   1.800  11.207 -0.0229  0.1662  0.0089
   35POPC  H12A 4639   3.543   1.795  11.311  1.3856  0.3959  0.3835
   35POPC  H12B 4640   3.675   1.820  11.205  0.1771 -0.9358 -2.0346
   35POPC   C13 4641   3.343   1.902  11.155  0.3789 -0.0714  0.2011
   35POPC  H13A 4642   3.313   1.808  11.111 -2.0345  1.2268 -1.0889
   35POPC  H13B 4643   3.319   1.900  11.260  1.0287  1.3336  0.3824
   35POPC  H13C 4644   3.301   1.984  11.098  0.0852 -0.4541 -0.1397
   35POPC   C14 4645   3.509   2.045  11.221  0.7899  0.0585  0.1830
   35POPC  H14A 4646   3.614   2.071  11.226  1.9633 -3.8484 -2.2473
   35POPC  H14B 4647   3.464   2.128  11.169 -2.5740 -1.2223  0.9164
   35POPC  H14C 4648   3.459   2.039  11.316  1.4031  0.4127  0.5368
   35POPC   C15 4649   3.536   1.934  11.007  0.6868  0.3820  0.4110
   35POPC  H15A 4650   3.468   2.003  10.959 -1.3662 -1.3092  0.8000
   35POPC  H15B 4651   3.528   1.843  10.950  0.9251  0.6482 -0.0432
   35POPC  H15C 4652   3.639   1.966  11.006  1.3225 -1.5854  1.0568
   35POPC   C11 4653   3.547   1.654  11.158 -0.2646  0.1711  0.0637
   35POPC  H11A 4654   3.443   1.622  11.177 -0.4041 -0.8477 -2.2091
   35POPC  H11B 4655   3.616   1.600  11.226  1.6410  0.9290 -1.2104
   35POPC     P 4656   3.491   1.520  10.938 -0.7010  0.4155  0.5175
   35POPC   O13 4657   3.351   1.512  10.981  0.2737 -0.0735 -0.7195
   35POPC   O14 4658   3.575   1.401  10.921  0.0223 -0.5147 -0.1368
   35POPC   O12 4659   3.580   1.627  11.018  0.2251 -0.0279 -1.0540
   35POPC   O11 4660   3.497   1.604  10.804 -0.1033  0.4064 -0.0080
   35POPC    C1 4661   3.630   1.635  10.753 -0.0206  0.2025 -0.6096
   35POPC    HA 4662   3.703   1.552  10.763  0.0663  0.2674 -0.7063
   35POPC    HB 4663   3.672   1.719  10.813 -1.0563 -0.3864  0.9793
   35POPC    C2 4664   3.634   1.678  10.599  0.0966  0.0336  0.4581
   35POPC    HS 4665   3.741   1.688  10.572 -0.0556 -0.9563 -0.5685
   35POPC   O21 4666   3.555   1.798  10.585  0.5364  0.3010  0.5131
   35POPC   C21 4667   3.619   1.906  10.621 -0.7280 -0.2357 -0.1556
   35POPC   O22 4668   3.729   1.914  10.675  0.3745 -0.1901 -0.3028
   35POPC   C22 4669   3.529   2.025  10.568 -0.2000 -0.2469  0.1454
   35POPC   H2R 4670   3.441   2.037  10.635 -1.5264  0.8525 -1.7631
   35POPC   H2S 4671   3.497   1.997  10.466  0.5964 -1.4637  0.2217
   35POPC    C3 4672   3.592   1.561  10.503  0.2252 -0.1150 -0.6533
   35POPC    HX 4673   3.494   1.520  10.535 -0.1136 -0.8841 -2.6247
   35POPC    HY 4674   3.669   1.484  10.522 -1.0378 -2.2285 -3.7025
   35POPC   O31 4675   3.600   1.611  10.361 -0.7970  0.5293 -0.7293
   35POPC   C31 4676   3.476   1.647  10.316  0.2912  0.3626  0.1920
   35POPC   O32 4677   3.371   1.658  10.381  0.3413  0.0492 -0.1155
   35POPC   C32 4678   3.477   1.687  10.167  0.0996  0.5635  0.1119
   35POPC   H2X 4679   3.377   1.674  10.121  2.3791 -1.6325 -4.5278
   35POPC   H2Y 4680   3.549   1.628  10.107  1.1695  2.4153 -0.4746
   35POPC   C23 4681   3.615   2.156  10.550 -0.4984 -0.2865 -0.2895
   35POPC   H3R 4682   3.708   2.146  10.491 -0.3846  0.5082 -0.2575
   35POPC   H3S 4683   3.654   2.178  10.652 -2.2698  0.6058  0.2091
   35POPC   C24 4684   3.539   2.285  10.504 -0.2355  0.7321 -0.0670
   35POPC   H4R 4685   3.603   2.375  10.516  1.6139 -0.1421 -2.7691
   35POPC   H4S 4686   3.457   2.289  10.578 -1.3160 -2.0445 -1.0497
   35POPC   C25 4687   3.476   2.278  10.365  0.0555 -0.1892 -0.0592
   35POPC   H5R 4688   3.445   2.378  10.326  0.6810  0.3878  0.8823
   35POPC   H5S 4689   3.377   2.228  10.373  0.1624 -0.4953 -0.6702
   35POPC   C26 4690   3.573   2.222  10.260 -0.3483  0.3033 -0.2681
   35POPC   H6R 4691   3.569   2.111  10.265 -0.2620  0.3843  2.7930
   35POPC   H6S 4692   3.682   2.236  10.279  0.4485 -2.4811 -2.4418
   35POPC   C27 4693   3.538   2.286  10.119 -0.3061 -0.6271  0.1483
   35POPC   H7R 4694   3.569   2.393  10.132  0.6248 -0.6293 -1.9190
   35POPC   H7S 4695   3.428   2.277  10.106 -0.3421 -1.9001  1.2027
   35POPC   C28 4696   3.619   2.231   9.994  0.3153 -0.9311  0.0636
   35POPC   H8R 4697   3.590   2.124   9.984 -0.9712 -0.4658 -1.3696
   35POPC   H8S 4698   3.725   2.249  10.020 -0.6281  1.2501  2.6430
   35POPC   C29 4699   3.580   2.302   9.866 -0.3079 -0.6816  0.2729
   35POPC   H91 4700   3.658   2.372   9.832 -0.2938 -0.0798  1.4837
   35POPC  C210 4701   3.461   2.315   9.810  0.1874  0.3567 -0.2316
   35POPC  H101 4702   3.455   2.376   9.719 -1.7352  0.5380 -0.0064
   35POPC  C211 4703   3.325   2.259   9.853 -0.2230 -0.6946 -0.0181
   35POPC  H11R 4704   3.278   2.340   9.913 -2.0889 -0.0592 -2.2487
   35POPC  H11S 4705   3.353   2.171   9.915 -1.6229 -0.5856  0.7869
   35POPC  C212 4706   3.228   2.211   9.743 -0.0017 -0.2104  0.5530
   35POPC  H12R 4707   3.202   2.305   9.691  2.2058 -1.4585 -2.9791
   35POPC  H12S 4708   3.140   2.168   9.795 -1.7766  1.1562 -1.2879
   35POPC  C213 4709   3.288   2.106   9.648 -0.2250  0.1047 -0.1451
   35POPC  H13R 4710   3.264   2.003   9.683  0.4820  0.3576  1.0965
   35POPC  H13S 4711   3.395   2.114   9.620 -0.6663  1.0263 -1.6342
   35POPC  C214 4712   3.217   2.096   9.513  0.0362 -0.2820 -0.6288
   35POPC  H14R 4713   3.107   2.105   9.524 -0.0931 -0.9090 -1.3818
   35POPC  H14S 4714   3.247   1.997   9.472  1.0733 -0.4215  0.4372
   35POPC  C215 4715   3.263   2.206   9.415 -0.7820 -0.7095 -0.0363
   35POPC  H15R 4716   3.374   2.209   9.409 -0.8244  2.4636 -0.2288
   35POPC  H15S 4717   3.233   2.301   9.464 -0.0801 -0.6654  0.3050
   35POPC  C216 4718   3.188   2.200   9.285 -0.4019 -0.3720  0.0550
   35POPC  H16R 4719   3.081   2.184   9.311 -0.3496 -1.3460 -0.2921
   35POPC  H16S 4720   3.213   2.114   9.219 -1.0442 -0.9665  0.5842
   35POPC  C217 4721   3.202   2.332   9.207 -0.3150 -0.3053 -0.0054
   35POPC  H17R 4722   3.300   2.381   9.225 -0.6070  0.3342 -0.1312
   35POPC  H17S 4723   3.129   2.405   9.248 -1.0253  0.3499 -2.3404
   35POPC  C218 4724   3.184   2.317   9.056 -0.0826 -0.1394 -0.8780
   35POPC  H18R 4725   3.124   2.227   9.032 -0.9720  0.7996 -2.2314
   35POPC  H18S 4726   3.279   2.290   9.005 -0.3643 -0.9474 -0.9834
   35POPC  H18T 4727   3.161   2.411   9.003 -2.2328 -0.1319  0.0231
   35POPC   C33 4728   3.506   1.835  10.140 -0.3005 -0.2812 -0.4770
   35POPC   H3X 4729   3.610   1.867  10.160  0.1366 -1.2784 -1.0894
   35POPC   H3Y 4730   3.451   1.898  10.213 -0.0924 -0.6660  0.0177
   35POPC   C34 4731   3.478   1.871   9.996  0.5257  0.6772  0.0983
   35POPC   H4X 4732   3.453   1.979   9.998  1.0485  0.7787  1.4248
   35POPC   H4Y 4733   3.385   1.827   9.956  0.4949  0.3785  0.5053
   35POPC   C35 4734   3.589   1.842   9.896  0.4884 -0.2959 -0.9143
   35POPC   H5X 4735   3.606   1.732   9.888 -0.7833 -0.7653  2.2564
   35POPC   H5Y 4736   3.681   1.890   9.934 -1.0059  0.6039  1.6816
   35POPC   C36 4737   3.566   1.901   9.764 -0.1522 -0.4077  0.0400
   35POPC   H6X 4738   3.553   2.011   9.770  1.5946 -0.1101 -1.2474
   35POPC   H6Y 4739   3.473   1.857   9.723 -0.4790  0.0887  0.2456
   35POPC   C37 4740   3.688   1.880   9.664 -0.0299 -0.2304 -0.1042
   35POPC   H7X 4741   3.695   1.773   9.632  2.2173  0.2910 -1.5048
   35POPC   H7Y 4742   3.781   1.896   9.722 -0.2421  1.1272 -0.1149
   35POPC   C38 4743   3.687   1.965   9.537  0.4269  0.3140 -0.2528
   35POPC   H8X 4744   3.791   1.968   9.500  1.0115 -0.8103  1.2522
   35POPC   H8Y 4745   3.658   2.066   9.574  3.8973 -0.1576  4.1738
   35POPC   C39 4746   3.602   1.915   9.419 -0.9571 -0.0455 -0.5593
   35POPC   H9X 4747   3.496   1.930   9.451 -0.4660  1.4564  0.4441
   35POPC   H9Y 4748   3.623   1.811   9.389 -0.2282  0.6948 -2.6552
   35POPC  C310 4749   3.602   2.012   9.298 -0.4524  0.5130  0.0982
   35POPC  H10X 4750   3.702   2.024   9.250 -0.0740 -3.0034 -0.0781
   35POPC  H10Y 4751   3.565   2.111   9.332  0.4917  0.1060  2.4419
   35POPC  C311 4752   3.505   1.955   9.198  0.0416 -0.6951  0.4025
   35POPC  H11X 4753   3.404   1.957   9.245 -0.4557  0.9558 -0.6924
   35POPC  H11Y 4754   3.539   1.853   9.170  0.2321 -1.0109  1.7173
   35POPC  C312 4755   3.496   2.035   9.064  0.0311  0.5176 -0.0392
   35POPC  H12X 4756   3.484   2.143   9.087 -0.8625  0.0757  1.6335
   35POPC  H12Y 4757   3.401   1.996   9.020  1.0172 -1.3346 -0.5441
   35POPC  C313 4758   3.611   2.016   8.967  0.0282 -0.6844  0.2060
   35POPC  H13X 4759   3.637   1.908   8.957 -1.7506 -1.2218  1.2922
   35POPC  H13Y 4760   3.694   2.070   9.018 -0.9840  1.5462 -0.4810
   35POPC  C314 4761   3.577   2.062   8.824  0.4206  0.0367  0.5501
   35POPC  H14X 4762   3.512   2.150   8.840  1.1375  0.8503 -0.9921
   35POPC  H14Y 4763   3.523   1.982   8.769  1.2816  0.3041 -0.7000
   35POPC  C315 4764   3.702   2.101   8.742 -0.0581 -0.8949  0.1857
   35POPC  H15X 4765   3.773   2.139   8.819 -1.3417  0.0265  0.9392
   35POPC  H15Y 4766   3.666   2.176   8.668 -0.6064  0.4225  1.7565
   35POPC  C316 4767   3.767   1.985   8.669  0.1700 -0.3875  0.2985
   35POPC  H16X 4768   3.872   2.011   8.646  0.2465  0.3914  1.4667
   35POPC  H16Y 4769   3.719   1.950   8.575 -2.4142  1.4319  0.8831
   35POPC  H16Z 4770   3.775   1.907   8.748  1.3628  0.9356  1.5061
   36POPC     N 4771   3.800   0.143  11.396 -0.5434 -0.0667  0.2425
   36POPC   C12 4772   3.825   0.223  11.268 -0.1292  0.2005  0.2093
   36POPC  H12A 4773   3.856   0.167  11.181 -2.0758 -1.1525  0.3725
   36POPC  H12B 4774   3.901   0.297  11.289  2.0836 -1.7923 -0.6064
   36POPC   C13 4775   3.917   0.065  11.445  0.3554  0.7729  0.2573
   36POPC  H13A 4776   3.952  -0.005  11.371  1.3916 -0.5346  1.9726
   36POPC  H13B 4777   3.997   0.132  11.473  0.0664  1.4727 -0.5453
   36POPC  H13C 4778   3.892  -0.009  11.519  1.1850 -0.6893 -0.9052
   36POPC   C14 4779   3.770   0.238  11.508  0.2736 -0.0755  0.4218
   36POPC  H14A 4780   3.750   0.194  11.604 -0.1518  0.4872  0.5931
   36POPC  H14B 4781   3.852   0.309  11.512 -0.5261  1.1010 -2.4377
   36POPC  H14C 4782   3.679   0.295  11.495  0.9213  1.2365  1.4949
   36POPC   C15 4783   3.686   0.048  11.381  0.0552  0.1188  0.1901
   36POPC  H15A 4784   3.654   0.017  11.479  1.0424  1.0611  0.8287
   36POPC  H15B 4785   3.719  -0.030  11.316 -3.5263 -1.9459  0.6946
   36POPC  H15C 4786   3.602   0.097  11.333  0.6301 -0.6022 -1.5666
   36POPC   C11 4787   3.693   0.297  11.218 -0.3716  0.0445 -0.6382
   36POPC  H11A 4788   3.715   0.372  11.139  0.1788  0.4689 -0.0830
   36POPC  H11B 4789   3.657   0.352  11.308  0.7098 -0.0868 -0.1252
   36POPC     P 4790   3.600   0.155  11.028  0.0366 -0.2343  0.0430
   36POPC   O13 4791   3.463   0.103  10.995  0.2045 -0.4479 -0.3060
   36POPC   O14 4792   3.721   0.069  11.018 -0.2402 -0.3387  0.1060
   36POPC   O12 4793   3.590   0.207  11.176 -0.4691 -0.2756 -0.1697
   36POPC   O11 4794   3.627   0.282  10.941  0.0042  0.0465 -0.0814
   36POPC    C1 4795   3.553   0.402  10.939  0.4280  0.0800 -0.1822
   36POPC    HA 4796   3.619   0.490  10.955  1.1667 -0.3067 -1.0525
   36POPC    HB 4797   3.471   0.406  11.014 -0.3682  1.5691 -1.1111
   36POPC    C2 4798   3.480   0.421  10.803  0.4361 -0.4311  1.0489
   36POPC    HS 4799   3.445   0.321  10.770 -2.1802  0.9486 -0.5385
   36POPC   O21 4800   3.562   0.482  10.697  0.6484 -0.1626 -0.0774
   36POPC   C21 4801   3.669   0.408  10.662 -0.5341  0.3230 -0.5546
   36POPC   O22 4802   3.690   0.292  10.691 -0.0214  0.4538 -0.4645
   36POPC   C22 4803   3.760   0.471  10.558 -0.4071  0.3570  0.8730
   36POPC   H2R 4804   3.790   0.577  10.574 -0.6510  0.5922 -0.2225
   36POPC   H2S 4805   3.687   0.486  10.476  1.0153 -1.9120 -0.8453
   36POPC    C3 4806   3.357   0.514  10.816 -0.2135  0.2650  0.4874
   36POPC    HX 4807   3.408   0.604  10.856 -1.5874  0.4011  1.9572
   36POPC    HY 4808   3.286   0.463  10.885 -2.5153  2.1341 -0.4316
   36POPC   O31 4809   3.285   0.551  10.695 -0.7264 -0.4216 -0.0091
   36POPC   C31 4810   3.220   0.454  10.628 -0.6657  0.1594 -0.1730
   36POPC   O32 4811   3.217   0.335  10.657 -0.7233  0.0147 -0.3140
   36POPC   C32 4812   3.134   0.517  10.517  0.3969  0.1161  0.4337
   36POPC   H2X 4813   3.077   0.606  10.551  0.3284 -0.5039  1.9626
   36POPC   H2Y 4814   3.064   0.445  10.469  0.9598  0.5952 -1.1553
   36POPC   C23 4815   3.878   0.379  10.535  0.2842  0.2518  0.8780
   36POPC   H3R 4816   3.921   0.344  10.632 -2.6591  2.5326  3.1054
   36POPC   H3S 4817   3.960   0.438  10.489  0.2453  0.3663  0.9552
   36POPC   C24 4818   3.844   0.264  10.436 -0.5081  0.4096  0.5298
   36POPC   H4R 4819   3.760   0.204  10.478 -1.2021  1.3243  0.4659
   36POPC   H4S 4820   3.934   0.198  10.437 -1.3271 -0.7224  1.3147
   36POPC   C25 4821   3.827   0.311  10.291  0.3960  0.1403  0.2511
   36POPC   H5R 4822   3.752   0.391  10.272 -0.1403 -0.8419 -1.9365
   36POPC   H5S 4823   3.775   0.231  10.234 -1.7618  0.4045  1.7595
   36POPC   C26 4824   3.961   0.326  10.221  0.1802 -0.5943 -0.6546
   36POPC   H6R 4825   4.027   0.239  10.241 -0.5086 -0.9762 -0.0146
   36POPC   H6S 4826   4.013   0.407  10.277 -0.2134 -1.5599  1.1605
   36POPC   C27 4827   3.959   0.371  10.070 -0.1923 -0.3688  0.0675
   36POPC   H7R 4828   3.916   0.288  10.009  1.7362 -2.0708  0.9416
   36POPC   H7S 4829   4.065   0.371  10.035 -0.5588  1.6328 -1.0846
   36POPC   C28 4830   3.885   0.493  10.035  0.2024 -0.7882  0.0045
   36POPC   H8R 4831   3.784   0.479  10.079 -0.8587  0.7572 -1.9019
   36POPC   H8S 4832   3.867   0.495   9.926  1.1075  1.2198 -0.1121
   36POPC   C29 4833   3.961   0.621  10.067  0.5757 -0.1189 -0.1500
   36POPC   H91 4834   3.949   0.659  10.169  1.7067  0.0435 -0.0707
   36POPC  C210 4835   4.051   0.674   9.984 -0.2136 -0.2888  0.7493
   36POPC  H101 4836   4.108   0.762  10.018 -0.8706  0.4012  0.0849
   36POPC  C211 4837   4.096   0.626   9.847  0.4380 -0.2685  0.0160
   36POPC  H11R 4838   4.018   0.569   9.791 -1.4134  2.3232 -0.1568
   36POPC  H11S 4839   4.186   0.561   9.857  0.2326 -0.3167  1.5954
   36POPC  C212 4840   4.132   0.749   9.759 -0.4274 -0.1114 -0.2610
   36POPC  H12R 4841   4.220   0.799   9.806  0.1073  0.4316 -1.7839
   36POPC  H12S 4842   4.049   0.822   9.758  0.1162  0.5632  1.5574
   36POPC  C213 4843   4.157   0.706   9.620 -0.3152 -0.3510 -0.3247
   36POPC  H13R 4844   4.072   0.639   9.596 -0.0462 -0.2434 -1.6101
   36POPC  H13S 4845   4.253   0.651   9.614  0.1856  0.6754 -1.9753
   36POPC  C214 4846   4.164   0.832   9.524  0.0954  0.5138 -0.6650
   36POPC  H14R 4847   4.235   0.899   9.578 -2.6836  1.1068  2.3668
   36POPC  H14S 4848   4.066   0.883   9.531  0.3322  0.9890 -0.7984
   36POPC  C215 4849   4.195   0.790   9.379 -0.6613  0.3161  0.2078
   36POPC  H15R 4850   4.111   0.725   9.344 -0.0753 -0.0748 -0.4900
   36POPC  H15S 4851   4.275   0.713   9.380 -0.5800  0.4045  0.8987
   36POPC  C216 4852   4.202   0.920   9.300  0.1914  0.9517  0.4957
   36POPC  H16R 4853   4.283   0.972   9.356  1.1731  0.2346 -0.2262
   36POPC  H16S 4854   4.110   0.981   9.309 -0.6025 -0.1808  0.1680
   36POPC  C217 4855   4.240   0.895   9.157 -0.2869  0.1703 -0.0839
   36POPC  H17R 4856   4.153   0.853   9.103 -1.4594 -0.5337  2.2498
   36POPC  H17S 4857   4.313   0.812   9.162 -0.1018  0.3149 -0.3596
   36POPC  C218 4858   4.302   1.019   9.087 -0.9105  0.1462  0.4832
   36POPC  H18R 4859   4.347   0.979   8.993  0.3518 -0.9533  1.5299
   36POPC  H18S 4860   4.375   1.076   9.149 -2.7283  2.4930  0.5418
   36POPC  H18T 4861   4.218   1.089   9.066 -0.6768  0.8674  1.8918
   36POPC   C33 4862   3.228   0.554  10.403  1.1086 -0.1910 -0.5744
   36POPC   H3X 4863   3.302   0.628  10.439  1.5959 -0.6450 -0.6305
   36POPC   H3Y 4864   3.175   0.601  10.317  0.7154  0.1912 -0.1313
   36POPC   C34 4865   3.302   0.435  10.349 -0.1736  0.2847  0.3952
   36POPC   H4X 4866   3.237   0.350  10.320  0.3709  0.2428 -0.7435
   36POPC   H4Y 4867   3.376   0.390  10.420 -1.6913 -2.5019  0.2698
   36POPC   C35 4868   3.394   0.477  10.229 -0.5309  0.7068  0.0798
   36POPC   H5X 4869   3.469   0.543  10.276  0.6704 -0.5521 -0.0552
   36POPC   H5Y 4870   3.333   0.519  10.146 -0.3261  0.3089 -0.2695
   36POPC   C36 4871   3.472   0.358  10.170  0.0337 -0.3660  0.3388
   36POPC   H6X 4872   3.470   0.276  10.245 -0.2429  0.7721  1.5966
   36POPC   H6Y 4873   3.576   0.383  10.140 -0.1179 -0.0167  0.1054
   36POPC   C37 4874   3.391   0.304  10.052 -0.2431 -0.4870 -0.3424
   36POPC   H7X 4875   3.282   0.317  10.072  0.1306  0.2347  1.2935
   36POPC   H7Y 4876   3.418   0.197  10.041 -2.6635 -0.9882 -1.8776
   36POPC   C38 4877   3.434   0.371   9.914 -0.6001 -0.7928  0.7748
   36POPC   H8X 4878   3.544   0.353   9.918 -0.5508 -0.3860  1.2356
   36POPC   H8Y 4879   3.414   0.480   9.905 -1.6892 -0.9956  0.7860
   36POPC   C39 4880   3.372   0.306   9.797  0.3552  0.2926  0.1383
   36POPC   H9X 4881   3.263   0.297   9.814  0.4021 -0.7678 -0.0939
   36POPC   H9Y 4882   3.401   0.199   9.788 -1.2906 -0.0339 -1.7099
   36POPC  C310 4883   3.394   0.370   9.662 -0.4507 -0.0023  1.2016
   36POPC  H10X 4884   3.502   0.389   9.641 -0.7352 -1.7899 -2.1844
   36POPC  H10Y 4885   3.347   0.470   9.659 -2.2669 -0.8870 -0.9833
   36POPC  C311 4886   3.333   0.277   9.546 -0.0963  0.7284 -0.4346
   36POPC  H11X 4887   3.390   0.182   9.555 -2.2461 -0.6371 -0.7613
   36POPC  H11Y 4888   3.352   0.326   9.448 -3.3647  0.1208 -1.4391
   36POPC  C312 4889   3.185   0.239   9.559  0.2147  0.0963  0.0057
   36POPC  H12X 4890   3.165   0.212   9.665 -1.6605 -0.6140 -0.5174
   36POPC  H12Y 4891   3.160   0.148   9.502  1.4976 -0.2726  0.0108
   36POPC  C313 4892   3.098   0.360   9.510 -0.6239 -0.3937 -0.1185
   36POPC  H13X 4893   3.024   0.324   9.435 -0.0817  2.2604 -2.0349
   36POPC  H13Y 4894   3.149   0.436   9.446  0.0706 -0.6461  0.1294
   36POPC  C314 4895   3.023   0.426   9.624 -0.3057 -0.3348 -0.9775
   36POPC  H14X 4896   3.096   0.490   9.679 -2.1186  0.3879  0.6427
   36POPC  H14Y 4897   2.988   0.348   9.694 -0.4467 -0.7568 -1.5234
   36POPC  C315 4898   2.901   0.515   9.593 -0.2956  0.4457  0.0432
   36POPC  H15X 4899   2.875   0.567   9.687 -0.9898 -1.1781  0.7666
   36POPC  H15Y 4900   2.816   0.450   9.563  0.6813 -1.1705  0.7053
   36POPC  C316 4901   2.913   0.626   9.491 -0.2193  0.2976  0.0165
   36POPC  H16X 4902   2.948   0.585   9.394  1.2202  0.6930  0.3558
   36POPC  H16Y 4903   2.982   0.708   9.523  1.2080 -1.0376  0.4177
   36POPC  H16Z 4904   2.814   0.674   9.475 -1.9542 -3.0050  0.4504
   37POPC     N 4905   1.902   2.766   6.440 -0.0687  1.0530  0.1837
   37POPC   C12 4906   1.988   2.746   6.559 -0.0829 -0.3693 -0.3199
   37POPC  H12A 4907   2.010   2.641   6.574 -1.9000 -0.4480  2.0924
   37POPC  H12B 4908   1.942   2.779   6.650  0.6386 -1.1756  0.3482
   37POPC   C13 4909   1.973   2.734   6.313 -0.8582  0.4658 -0.0028
   37POPC  H13A 4910   2.010   2.634   6.298 -2.9076  0.0839 -3.0882
   37POPC  H13B 4911   1.913   2.749   6.224 -3.0791 -2.3479  0.9232
   37POPC  H13C 4912   2.053   2.806   6.304  0.0935 -0.4126  1.3272
   37POPC   C14 4913   1.793   2.664   6.447 -0.4821 -0.6644  0.4065
   37POPC  H14A 4914   1.821   2.560   6.459  0.1032 -0.2990  2.3610
   37POPC  H14B 4915   1.743   2.685   6.540 -0.2655  0.6472  0.2344
   37POPC  H14C 4916   1.732   2.680   6.359 -0.1317  0.7307  0.4092
   37POPC   C15 4917   1.859   2.913   6.445 -0.1679  0.6646 -0.8599
   37POPC  H15A 4918   1.942   2.976   6.417  1.7077 -2.5060 -2.7784
   37POPC  H15B 4919   1.818   2.933   6.543 -0.9877  1.0647 -1.2827
   37POPC  H15C 4920   1.785   2.926   6.368  0.2217  1.7472 -1.0523
   37POPC   C11 4921   2.129   2.813   6.567 -0.0047  0.0464 -0.0080
   37POPC  H11A 4922   2.116   2.924   6.565  0.8413  0.1994  2.1728
   37POPC  H11B 4923   2.185   2.787   6.475 -0.8395  0.7941 -0.7441
   37POPC     P 4924   2.176   2.836   6.821 -0.1569 -0.3281  0.2209
   37POPC   O13 4925   2.267   2.952   6.819  0.1372 -0.2856  0.1714
   37POPC   O14 4926   2.199   2.725   6.921  0.0948 -0.3073 -0.0790
   37POPC   O12 4927   2.196   2.766   6.682  0.3940  1.1325 -0.7732
   37POPC   O11 4928   2.019   2.880   6.820  0.1850 -0.2541 -0.0420
   37POPC    C1 4929   1.981   3.005   6.867 -0.8525  0.2608 -0.2767
   37POPC    HA 4930   1.882   3.023   6.820 -0.8851 -1.5348 -0.9489
   37POPC    HB 4931   2.049   3.089   6.841 -0.6536  0.7130  1.6756
   37POPC    C2 4932   1.941   3.000   7.015  0.0026  0.6368 -0.3281
   37POPC    HS 4933   1.893   3.094   7.050  2.6478  2.1411 -0.6124
   37POPC   O21 4934   2.058   2.977   7.098  0.2612 -0.1852 -0.1873
   37POPC   C21 4935   2.143   3.075   7.117 -0.2962 -0.2509  0.0391
   37POPC   O22 4936   2.123   3.189   7.082 -0.3384  0.3981  0.8279
   37POPC   C22 4937   2.267   3.012   7.182 -0.2963  0.4370 -0.4240
   37POPC   H2R 4938   2.332   3.094   7.216  0.2843  0.8507 -2.4693
   37POPC   H2S 4939   2.324   2.953   7.106 -0.4237  0.1643 -0.3103
   37POPC    C3 4940   1.846   2.886   7.038 -0.0766  0.2307 -0.1303
   37POPC    HX 4941   1.898   2.789   7.018 -2.3725 -0.5104 -2.7252
   37POPC    HY 4942   1.759   2.899   6.970 -0.1322  0.6466  0.0246
   37POPC   O31 4943   1.805   2.889   7.180 -0.2433  0.2044 -0.1940
   37POPC   C31 4944   1.766   2.769   7.222 -0.3911 -0.5924  0.2211
   37POPC   O32 4945   1.742   2.676   7.145  0.2070 -0.6116 -0.5141
   37POPC   C32 4946   1.744   2.769   7.377  0.0729 -0.2930  0.4065
   37POPC   H2X 4947   1.634   2.758   7.385 -0.1370  0.4522 -1.2527
   37POPC   H2Y 4948   1.767   2.870   7.420  0.6664  0.4806 -1.6942
   37POPC   C23 4949   2.237   2.921   7.308  0.0756 -0.2038  0.2911
   37POPC   H3R 4950   2.190   2.832   7.261  0.5769  0.1374 -0.8630
   37POPC   H3S 4951   2.157   2.965   7.372  0.5757  1.1057  0.0243
   37POPC   C24 4952   2.361   2.890   7.391  0.2691  1.2456  0.2181
   37POPC   H4R 4953   2.441   2.880   7.315 -0.4711  1.8157 -0.6550
   37POPC   H4S 4954   2.353   2.798   7.453 -0.6985  1.8133  0.9639
   37POPC   C25 4955   2.408   2.996   7.499  0.4525  0.1758 -0.5816
   37POPC   H5R 4956   2.339   2.985   7.585 -1.1647  0.0704 -1.8624
   37POPC   H5S 4957   2.393   3.096   7.454 -1.5500  1.2267  2.2809
   37POPC   C26 4958   2.560   2.992   7.552 -0.2728 -0.2744 -0.0596
   37POPC   H6R 4959   2.621   2.971   7.462  0.7252  0.3579  0.4576
   37POPC   H6S 4960   2.577   2.899   7.611 -0.6080 -1.8506 -2.3947
   37POPC   C27 4961   2.622   3.113   7.610 -0.4863  0.7410  0.0002
   37POPC   H7R 4962   2.564   3.143   7.700  1.4452  1.7449  0.9500
   37POPC   H7S 4963   2.605   3.205   7.549 -4.3510 -0.4423 -0.8369
   37POPC   C28 4964   2.773   3.089   7.642  0.4552 -0.0954 -0.7944
   37POPC   H8R 4965   2.773   3.002   7.711  0.8714 -0.1617 -0.8785
   37POPC   H8S 4966   2.799   3.181   7.698 -2.3482  0.5528 -0.4737
   37POPC   C29 4967   2.868   3.078   7.527 -0.7032 -0.2924 -0.0419
   37POPC   H91 4968   2.823   3.114   7.433  1.2219  0.6460 -0.6389
   37POPC  C210 4969   2.994   3.045   7.532 -0.1281 -0.5638  0.0572
   37POPC  H101 4970   3.048   3.043   7.436 -1.3527  0.7701 -0.6914
   37POPC  C211 4971   3.062   3.007   7.658  0.4048 -0.1079 -0.8620
   37POPC  H11R 4972   3.077   2.897   7.648  1.5000 -0.1003  0.5059
   37POPC  H11S 4973   3.000   3.027   7.748  0.0589 -0.3773 -1.0416
   37POPC  C212 4974   3.200   3.070   7.678  0.1023 -0.3086 -0.3602
   37POPC  H12R 4975   3.206   3.179   7.658  0.5860 -0.2901 -0.1380
   37POPC  H12S 4976   3.268   3.018   7.608 -0.2496 -1.6251  0.2658
   37POPC  C213 4977   3.255   3.056   7.825  0.3689 -0.2977  0.3223
   37POPC  H13R 4978   3.240   2.956   7.870  0.0068 -0.8237 -0.9630
   37POPC  H13S 4979   3.190   3.123   7.885  0.1827  0.9366 -1.2248
   37POPC  C214 4980   3.394   3.122   7.839 -0.4309 -0.6155  0.3036
   37POPC  H14R 4981   3.381   3.231   7.825  0.8690 -0.4363  0.4776
   37POPC  H14S 4982   3.460   3.093   7.754 -3.0592 -1.3489 -1.5413
   37POPC  C215 4983   3.455   3.089   7.981 -0.0424 -0.7554  0.0262
   37POPC  H15R 4984   3.480   2.981   7.975  1.4725 -0.4542  0.6100
   37POPC  H15S 4985   3.373   3.112   8.052 -0.7595 -0.4296 -0.8956
   37POPC  C216 4986   3.580   3.167   8.022  0.2417  0.2771  0.3415
   37POPC  H16R 4987   3.653   3.157   7.938 -2.7056  0.6706 -2.3665
   37POPC  H16S 4988   3.630   3.123   8.111  0.7608  0.3692  0.1005
   37POPC  C217 4989   3.561   3.315   8.046  0.4880 -0.7757  0.4088
   37POPC  H17R 4990   3.505   3.358   7.961  0.8294  0.5951  0.8666
   37POPC  H17S 4991   3.662   3.361   8.041  0.5768 -0.9289  0.7507
   37POPC  C218 4992   3.492   3.358   8.176  0.2243 -0.1785  0.5907
   37POPC  H18R 4993   3.392   3.312   8.186  1.0853 -1.9317  1.2447
   37POPC  H18S 4994   3.481   3.469   8.168  1.4941  0.0646  1.9182
   37POPC  H18T 4995   3.564   3.346   8.260  1.6325 -1.0785 -0.7308
   37POPC   C33 4996   1.820   2.652   7.447  0.0854  0.6578  0.2564
   37POPC   H3X 4997   1.923   2.689   7.470  1.2316 -1.8907 -0.5073
   37POPC   H3Y 4998   1.831   2.568   7.375 -2.5813  1.0379 -0.6242
   37POPC   C34 4999   1.750   2.606   7.577 -0.5299 -0.1161  0.1640
   37POPC   H4X 5000   1.648   2.565   7.563 -1.5808  0.7069  4.5098
   37POPC   H4Y 5001   1.736   2.691   7.648 -0.2899  2.3083 -2.5567
   37POPC   C35 5002   1.832   2.496   7.640 -0.1664  0.0492 -0.5872
   37POPC   H5X 5003   1.937   2.532   7.645  0.0044 -0.3360 -1.2812
   37POPC   H5Y 5004   1.835   2.400   7.583 -0.0997 -0.3508  0.0841
   37POPC   C36 5005   1.784   2.446   7.776  0.1694  0.3751  0.2126
   37POPC   H6X 5006   1.680   2.407   7.766  0.5310 -1.1284  2.0019
   37POPC   H6Y 5007   1.784   2.529   7.851 -1.1208 -0.0140  0.6623
   37POPC   C37 5008   1.869   2.327   7.817 -0.6172 -0.0733 -0.1867
   37POPC   H7X 5009   1.909   2.269   7.731 -0.1612 -1.1632  0.7368
   37POPC   H7Y 5010   1.790   2.266   7.866  0.1563  1.2912  2.8500
   37POPC   C38 5011   1.976   2.359   7.928 -0.2840  0.0146  0.3092
   37POPC   H8X 5012   1.917   2.407   8.009 -3.8882 -0.5599 -1.8348
   37POPC   H8Y 5013   2.031   2.445   7.883 -3.2222  0.5312 -2.5300
   37POPC   C39 5014   2.058   2.241   7.978  1.0266  0.4206  0.3542
   37POPC   H9X 5015   2.089   2.194   7.882  1.2254  0.8540  0.2018
   37POPC   H9Y 5016   2.003   2.168   8.041  1.4793  1.3802  1.9199
   37POPC  C310 5017   2.189   2.277   8.064 -0.1479  0.3370 -0.1057
   37POPC  H10X 5018   2.267   2.324   8.000  0.0017  0.5706  0.2465
   37POPC  H10Y 5019   2.232   2.182   8.102 -4.2361 -1.2572  0.7831
   37POPC  C311 5020   2.163   2.385   8.172 -0.1597  0.4007 -1.4086
   37POPC  H11X 5021   2.133   2.321   8.258  2.0388 -1.0218 -1.6635
   37POPC  H11Y 5022   2.081   2.456   8.147 -1.1381  0.2562  1.2383
   37POPC  C312 5023   2.299   2.451   8.213  0.3315 -0.0629  0.5043
   37POPC  H12X 5024   2.265   2.530   8.284 -0.6319  0.7829 -0.8807
   37POPC  H12Y 5025   2.332   2.499   8.119 -1.2271 -0.2935 -0.1842
   37POPC  C313 5026   2.415   2.373   8.268  0.0816 -0.1031 -0.3137
   37POPC  H13X 5027   2.442   2.301   8.188  0.1784 -2.7709  2.0679
   37POPC  H13Y 5028   2.384   2.317   8.359  0.0304 -1.1199 -0.9461
   37POPC  C314 5029   2.534   2.461   8.317 -0.0644 -0.6366  1.0243
   37POPC  H14X 5030   2.536   2.556   8.261 -2.2221 -1.5703 -0.7470
   37POPC  H14Y 5031   2.627   2.407   8.289 -0.9097 -0.5050 -2.2297
   37POPC  C315 5032   2.537   2.501   8.463 -0.2206  0.2002  0.2079
   37POPC  H15X 5033   2.530   2.413   8.531 -0.6486  0.3365  0.3462
   37POPC  H15Y 5034   2.447   2.564   8.479  0.1029  0.7543 -0.1519
   37POPC  C316 5035   2.660   2.586   8.477  0.4971  0.1188 -0.0362
   37POPC  H16X 5036   2.756   2.530   8.481  0.3373 -0.2052 -0.7253
   37POPC  H16Y 5037   2.654   2.643   8.573  0.6808  1.8101 -1.0154
   37POPC  H16Z 5038   2.665   2.669   8.404 -1.1151  1.3213  1.1567
   38POPC     N 5039   3.991   0.511   6.140  0.1573 -0.2034  0.6812
   38POPC   C12 5040   3.974   0.474   6.290  0.0293 -0.2821  0.6315
   38POPC  H12A 5041   4.046   0.529   6.349  1.0465 -0.2559 -0.6147
   38POPC  H12B 5042   4.010   0.372   6.299 -0.2319 -0.4907 -0.6612
   38POPC   C13 5043   3.904   0.443   6.048  0.5094 -0.3945  0.6103
   38POPC  H13A 5044   3.890   0.336   6.054 -3.4067 -0.0529 -1.0231
   38POPC  H13B 5045   3.801   0.474   6.060  0.3813 -0.2242 -0.7924
   38POPC  H13C 5046   3.939   0.463   5.948  1.3442  2.2993  1.3963
   38POPC   C14 5047   3.973   0.656   6.129 -0.4915  0.0189  0.0409
   38POPC  H14A 5048   3.871   0.691   6.133 -0.4411  0.3111 -1.0164
   38POPC  H14B 5049   4.038   0.709   6.196  0.1082 -3.7053  2.5829
   38POPC  H14C 5050   3.994   0.683   6.026  0.6843 -2.2333 -0.3652
   38POPC   C15 5051   4.130   0.483   6.092 -0.0741 -0.3519  0.2676
   38POPC  H15A 5052   4.144   0.378   6.069 -2.3911 -0.8548  1.0694
   38POPC  H15B 5053   4.204   0.516   6.164 -2.1575  0.8724  1.9115
   38POPC  H15C 5054   4.158   0.537   6.003 -0.1183  0.9889  1.0530
   38POPC   C11 5055   3.833   0.500   6.361  0.5135 -0.3580  0.8203
   38POPC  H11A 5056   3.813   0.609   6.353  0.6403 -0.4499 -1.1595
   38POPC  H11B 5057   3.851   0.472   6.467  2.9576 -1.0957  0.2517
   38POPC     P 5058   3.727   0.267   6.321 -0.5500  0.2828 -0.4437
   38POPC   O13 5059   3.713   0.212   6.181  0.0095  0.3209  0.6067
   38POPC   O14 5060   3.628   0.216   6.415  0.2945 -0.3969 -0.4310
   38POPC   O12 5061   3.724   0.425   6.305  0.1754 -0.1161  0.2317
   38POPC   O11 5062   3.866   0.236   6.382 -0.2636 -0.1460  0.3456
   38POPC    C1 5063   3.948   0.132   6.324 -0.2584 -0.1574  0.0343
   38POPC    HA 5064   4.047   0.148   6.371 -0.6621  0.1574  0.7831
   38POPC    HB 5065   3.960   0.134   6.214  0.0311 -2.5335 -0.0042
   38POPC    C2 5066   3.906  -0.014   6.376 -0.0403  0.2851  0.5574
   38POPC    HS 5067   3.809  -0.028   6.325  0.3677  0.2779 -0.2383
   38POPC   O21 5068   3.900  -0.008   6.523 -0.2799  0.0592 -0.0673
   38POPC   C21 5069   3.810  -0.090   6.573  0.9446  0.7002  0.6815
   38POPC   O22 5070   3.736  -0.161   6.507 -0.1123  0.4068 -0.3703
   38POPC   C22 5071   3.816  -0.095   6.725  0.4421 -0.2718 -0.3010
   38POPC   H2R 5072   3.879  -0.017   6.773  0.9931 -0.3109 -0.9514
   38POPC   H2S 5073   3.885  -0.182   6.735  3.3899  2.0137 -0.0882
   38POPC    C3 5074   4.004  -0.134   6.323  0.3365 -0.2111 -0.5849
   38POPC    HX 5075   3.978  -0.133   6.215 -1.4524 -0.9439 -0.1835
   38POPC    HY 5076   3.969  -0.235   6.354  0.9862 -0.2079  0.1564
   38POPC   O31 5077   4.135  -0.107   6.367 -0.3999 -0.5765 -0.4265
   38POPC   C31 5078   4.184  -0.147   6.490  0.4110  0.4634  0.4330
   38POPC   O32 5079   4.123  -0.232   6.558 -0.4152 -0.1030  0.0504
   38POPC   C32 5080   4.304  -0.072   6.520 -0.9954  0.2859  0.4024
   38POPC   H2X 5081   4.290   0.038   6.505 -0.0131  0.3130 -0.3144
   38POPC   H2Y 5082   4.384  -0.111   6.454 -0.6284  2.5572 -0.5696
   38POPC   C23 5083   3.686  -0.121   6.790  0.1190 -0.5330 -0.2752
   38POPC   H3R 5084   3.635  -0.214   6.755 -2.0552  0.8571 -0.8755
   38POPC   H3S 5085   3.609  -0.046   6.764 -0.6536 -1.1595  0.1805
   38POPC   C24 5086   3.681  -0.116   6.948 -0.3448 -0.4333 -0.0494
   38POPC   H4R 5087   3.582  -0.162   6.967 -0.2601 -1.3624 -1.7495
   38POPC   H4S 5088   3.686  -0.012   6.986 -1.5185 -0.8071  1.1270
   38POPC   C25 5089   3.790  -0.204   7.012 -0.2482  0.4088 -0.7778
   38POPC   H5R 5090   3.893  -0.173   6.985 -0.6292  1.4571 -1.0526
   38POPC   H5S 5091   3.780  -0.311   6.983  0.4558  0.3467 -0.7964
   38POPC   C26 5092   3.756  -0.212   7.162  0.1168  0.2883 -0.5948
   38POPC   H6R 5093   3.658  -0.264   7.168 -0.5857  1.7606  0.8835
   38POPC   H6S 5094   3.746  -0.105   7.190 -3.9840 -0.3047  0.5484
   38POPC   C27 5095   3.869  -0.264   7.253 -0.3775 -0.7210 -0.8249
   38POPC   H7R 5096   3.967  -0.220   7.226  0.0066 -1.2478 -0.3066
   38POPC   H7S 5097   3.891  -0.370   7.229 -0.5189 -0.9787  0.1481
   38POPC   C28 5098   3.842  -0.220   7.400 -0.5590  1.0002  1.0036
   38POPC   H8R 5099   3.799  -0.119   7.417 -1.4135  1.1810 -1.9401
   38POPC   H8S 5100   3.938  -0.231   7.456  0.7391 -1.4432 -1.5662
   38POPC   C29 5101   3.751  -0.319   7.456  0.0704  0.9391 -0.0739
   38POPC   H91 5102   3.696  -0.392   7.395 -0.4807  0.2538  1.2296
   38POPC  C210 5103   3.715  -0.321   7.588 -0.2142  0.1501 -0.1955
   38POPC  H101 5104   3.646  -0.395   7.633  0.0337 -0.0691 -0.1760
   38POPC  C211 5105   3.763  -0.212   7.680 -0.2075 -0.5312  0.0685
   38POPC  H11R 5106   3.705  -0.121   7.655 -1.4784 -1.9834 -2.4246
   38POPC  H11S 5107   3.870  -0.191   7.655 -0.4757  1.0140  0.1905
   38POPC  C212 5108   3.747  -0.237   7.828  0.3228 -0.8747 -0.7907
   38POPC  H12R 5109   3.641  -0.265   7.842  0.4804 -2.0033 -1.7476
   38POPC  H12S 5110   3.768  -0.142   7.881 -1.6002 -0.5549 -0.5805
   38POPC  C213 5111   3.855  -0.334   7.891 -0.5587 -0.5145 -0.9343
   38POPC  H13R 5112   3.957  -0.298   7.867 -0.4449 -0.1798  0.0711
   38POPC  H13S 5113   3.860  -0.422   7.823 -1.2796 -0.8970 -0.4928
   38POPC  C214 5114   3.837  -0.366   8.038  0.5598 -0.0635 -0.2491
   38POPC  H14R 5115   3.923  -0.426   8.076  1.4046  1.8099  0.8768
   38POPC  H14S 5116   3.744  -0.424   8.055  1.2612 -0.8791  0.8631
   38POPC  C215 5117   3.835  -0.242   8.122 -0.0098 -0.1980 -0.4257
   38POPC  H15R 5118   3.761  -0.166   8.088  0.9444  0.6666 -0.5760
   38POPC  H15S 5119   3.938  -0.202   8.112  0.0945 -0.2760  0.2587
   38POPC  C216 5120   3.810  -0.270   8.269 -0.4196 -0.5932 -1.0551
   38POPC  H16R 5121   3.835  -0.177   8.324  1.8208 -0.8198 -1.6621
   38POPC  H16S 5122   3.866  -0.353   8.316 -0.9857  0.1520  0.9950
   38POPC  C217 5123   3.661  -0.286   8.300 -0.0379  0.1976  0.1071
   38POPC  H17R 5124   3.633  -0.393   8.286 -1.0046  0.5519 -0.6957
   38POPC  H17S 5125   3.617  -0.218   8.225 -0.5121 -1.2872 -0.9866
   38POPC  C218 5126   3.623  -0.240   8.441 -0.0690  1.1019  0.9719
   38POPC  H18R 5127   3.649  -0.133   8.451  1.1400  0.7687  1.5078
   38POPC  H18S 5128   3.692  -0.298   8.507  0.7597  0.7262 -0.1924
   38POPC  H18T 5129   3.516  -0.250   8.468 -0.4469  1.4012 -0.3782
   38POPC   C33 5130   4.348  -0.083   6.663  0.0622 -0.0500 -0.6369
   38POPC   H3X 5131   4.442  -0.023   6.668 -0.8891  1.5894 -2.0407
   38POPC   H3Y 5132   4.378  -0.187   6.686 -0.9144  0.1039  1.4788
   38POPC   C34 5133   4.247  -0.036   6.765 -0.8188 -1.1624 -0.2681
   38POPC   H4X 5134   4.151  -0.092   6.755  0.0579 -2.5858 -0.8199
   38POPC   H4Y 5135   4.211   0.068   6.748 -2.5748 -1.8688 -1.0039
   38POPC   C35 5136   4.297  -0.058   6.907  0.1071  0.5982  0.1110
   38POPC   H5X 5137   4.400  -0.020   6.920  0.7308 -0.4306 -1.7413
   38POPC   H5Y 5138   4.308  -0.164   6.937 -0.6127 -0.0306 -1.7843
   38POPC   C36 5139   4.219   0.008   7.022  0.6959  0.1051 -0.3675
   38POPC   H6X 5140   4.116  -0.034   7.029  0.9672 -0.5495 -0.3501
   38POPC   H6Y 5141   4.211   0.117   7.001 -0.4548 -0.2597 -1.9073
   38POPC   C37 5142   4.296  -0.012   7.159  0.1505 -0.4754 -0.1643
   38POPC   H7X 5143   4.389   0.049   7.161 -1.7512  2.6794 -2.4074
   38POPC   H7Y 5144   4.293  -0.121   7.177 -1.2175 -0.2646  0.9333
   38POPC   C38 5145   4.216   0.054   7.274 -0.2738 -0.5817 -1.2804
   38POPC   H8X 5146   4.117   0.005   7.286 -0.8821  0.9752  0.1126
   38POPC   H8Y 5147   4.204   0.159   7.240 -1.4772 -0.6929 -1.2264
   38POPC   C39 5148   4.282   0.041   7.405 -0.6932  0.2959 -0.1049
   38POPC   H9X 5149   4.384   0.083   7.398 -0.3975  0.0673  2.2929
   38POPC   H9Y 5150   4.288  -0.065   7.439 -0.4701  0.2196 -0.3885
   38POPC  C310 5151   4.205   0.119   7.510 -0.4945 -0.4013 -0.1826
   38POPC  H10X 5152   4.097   0.096   7.497 -0.0896 -2.2042 -0.5085
   38POPC  H10Y 5153   4.212   0.228   7.488 -1.9424 -0.3649 -0.4785
   38POPC  C311 5154   4.246   0.095   7.657 -0.4880 -0.2139 -0.4902
   38POPC  H11X 5155   4.336   0.156   7.680 -0.3085 -1.4815  2.4261
   38POPC  H11Y 5156   4.277  -0.011   7.675 -3.4113 -0.6106  2.7238
   38POPC  C312 5157   4.129   0.127   7.752  0.6688 -0.1396 -0.2231
   38POPC  H12X 5158   4.042   0.059   7.740  0.4359  0.4441 -2.0474
   38POPC  H12Y 5159   4.102   0.227   7.713  0.5612 -0.2641 -0.4685
   38POPC  C313 5160   4.167   0.140   7.897  0.0706 -0.3273  0.5740
   38POPC  H13X 5161   4.213   0.241   7.910  2.0311 -1.4165  2.5986
   38POPC  H13Y 5162   4.255   0.080   7.930  1.0066 -0.0482 -1.3727
   38POPC  C314 5163   4.057   0.120   7.995  0.0448 -0.2806 -0.1696
   38POPC  H14X 5164   3.995   0.037   7.956 -0.6734 -0.1084  0.5909
   38POPC  H14Y 5165   3.995   0.212   7.991  0.6074  0.0720 -0.9839
   38POPC  C315 5166   4.106   0.105   8.141  0.1339 -0.3460 -0.0477
   38POPC  H15X 5167   4.178   0.188   8.156 -1.0175  0.5169  0.7205
   38POPC  H15Y 5168   4.160   0.009   8.152 -1.3491 -1.0829  1.0283
   38POPC  C316 5169   3.983   0.111   8.236 -0.8116 -0.1214 -0.6876
   38POPC  H16X 5170   3.921   0.026   8.202 -1.7512 -0.3120  1.4436
   38POPC  H16Y 5171   3.930   0.209   8.231  0.4331  0.5321 -1.4233
   38POPC  H16Z 5172   4.015   0.098   8.342  1.1669 -1.6425 -1.4289
   39POPC     N 5173   0.494   3.184   6.145  0.3005 -0.0747 -0.3358
   39POPC   C12 5174   0.514   3.287   6.257  0.1301  0.2733  0.2023
   39POPC  H12A 5175   0.422   3.314   6.307  0.2479  0.0416  0.5475
   39POPC  H12B 5176   0.555   3.377   6.213 -0.1386  0.2468 -0.1046
   39POPC   C13 5177   0.614   3.169   6.066 -0.4102 -0.5455 -0.6144
   39POPC  H13A 5178   0.650   3.269   6.050 -1.0429 -0.1832  0.1576
   39POPC  H13B 5179   0.687   3.124   6.132 -1.2258  1.2372  1.5971
   39POPC  H13C 5180   0.596   3.114   5.975  0.7462 -2.0625  0.0535
   39POPC   C14 5181   0.443   3.058   6.212  0.5294 -0.0136  0.2669
   39POPC  H14A 5182   0.343   3.069   6.251 -1.0038 -3.4295 -2.3861
   39POPC  H14B 5183   0.434   2.979   6.138  0.7206 -0.4695  0.7314
   39POPC  H14C 5184   0.513   3.027   6.288  1.8753 -0.9749 -1.3363
   39POPC   C15 5185   0.374   3.240   6.070 -0.6533  0.6962 -0.3554
   39POPC  H15A 5186   0.293   3.238   6.142 -0.8099 -0.0867 -0.5451
   39POPC  H15B 5187   0.345   3.165   5.998 -0.2969 -1.5118  1.7459
   39POPC  H15C 5188   0.392   3.339   6.029  0.2176  1.1509  1.1004
   39POPC   C11 5189   0.606   3.253   6.376  0.3952 -0.4074  0.0770
   39POPC  H11A 5190   0.580   3.147   6.394 -1.3683 -0.0603 -0.3243
   39POPC  H11B 5191   0.575   3.313   6.465  0.8059 -2.7032  1.7951
   39POPC     P 5192   0.826   3.391   6.365  0.2447  0.0319  0.2699
   39POPC   O13 5193   0.770   3.496   6.280 -0.3341 -0.7194  0.0398
   39POPC   O14 5194   0.964   3.362   6.350 -1.0700 -0.6199  0.4394
   39POPC   O12 5195   0.745   3.262   6.337 -0.4673 -0.0590 -0.3647
   39POPC   O11 5196   0.803   3.437   6.509  0.1999 -0.6662 -0.4805
   39POPC    C1 5197   0.833   3.354   6.620  0.2953  0.4123  0.1564
   39POPC    HA 5198   0.900   3.271   6.591 -0.9687 -0.2329 -1.0008
   39POPC    HB 5199   0.740   3.305   6.656  1.5730  0.2286  3.2880
   39POPC    C2 5200   0.881   3.449   6.735  0.8777  0.0613  0.2238
   39POPC    HS 5201   0.892   3.372   6.814  3.3926 -0.1344 -0.2993
   39POPC   O21 5202   0.775   3.549   6.769 -0.5869 -0.0346  0.0714
   39POPC   C21 5203   0.771   3.579   6.899 -0.5627  0.5710  0.4236
   39POPC   O22 5204   0.831   3.515   6.986  0.2684 -0.1574  0.1873
   39POPC   C22 5205   0.681   3.710   6.923  0.0874 -0.1381  0.4035
   39POPC   H2R 5206   0.669   3.758   6.823 -1.5755 -0.9754  0.1883
   39POPC   H2S 5207   0.740   3.769   6.996 -0.7732  0.2006  0.8343
   39POPC    C3 5208   1.015   3.523   6.691  0.1314 -0.2040 -0.0971
   39POPC    HX 5209   0.988   3.586   6.603 -3.4327 -0.4798  0.7144
   39POPC    HY 5210   1.088   3.450   6.652  1.8924  1.7663 -0.5853
   39POPC   O31 5211   1.074   3.605   6.794 -0.2091  0.3811  0.7543
   39POPC   C31 5212   1.154   3.547   6.879 -0.7763 -0.2862  0.2961
   39POPC   O32 5213   1.185   3.426   6.876  0.4041  0.2111 -0.2967
   39POPC   C32 5214   1.204   3.648   6.981 -0.3806  0.5109 -0.0415
   39POPC   H2X 5215   1.278   3.706   6.921 -0.0288  1.1726  1.0193
   39POPC   H2Y 5216   1.126   3.719   7.017 -2.6955 -1.7020 -0.5874
   39POPC   C23 5217   0.542   3.667   6.976  0.2818  0.2365 -0.3725
   39POPC   H3R 5218   0.549   3.636   7.083  0.8612  1.7646  0.0502
   39POPC   H3S 5219   0.504   3.578   6.922 -0.1714  0.2964 -0.1479
   39POPC   C24 5220   0.445   3.778   6.963  0.2043 -0.2194 -1.0971
   39POPC   H4R 5221   0.425   3.809   6.858 -3.0513  1.5128 -0.0494
   39POPC   H4S 5222   0.485   3.855   7.032 -1.9964 -1.1994  1.3660
   39POPC   C25 5223   0.303   3.734   7.018 -0.8176 -0.2322 -0.8795
   39POPC   H5R 5224   0.309   3.728   7.129  0.1980 -0.7316 -0.9536
   39POPC   H5S 5225   0.277   3.637   6.973 -0.6219 -1.6537  1.9624
   39POPC   C26 5226   0.203   3.836   6.971 -0.2786 -0.3628  0.5154
   39POPC   H6R 5227   0.204   3.845   6.860 -1.6187 -0.7698  0.4681
   39POPC   H6S 5228   0.241   3.935   7.004 -1.6441  0.9586 -1.8047
   39POPC   C27 5229   0.060   3.821   7.016 -0.0100  0.6106  0.7738
   39POPC   H7R 5230   0.012   3.746   6.950  0.3716  1.1812 -0.1738
   39POPC   H7S 5231   0.003   3.915   7.000 -0.7901 -0.2468 -1.7377
   39POPC   C28 5232   0.048   3.767   7.159  0.8516 -0.1044 -0.6153
   39POPC   H8R 5233   0.098   3.668   7.158  1.6839  0.2830  0.5770
   39POPC   H8S 5234  -0.056   3.758   7.196  1.2250  0.3378  0.5714
   39POPC   C29 5235   0.109   3.867   7.259  0.0861 -0.1317 -0.0426
   39POPC   H91 5236   0.134   3.968   7.223  1.9082  0.0403  1.5775
   39POPC  C210 5237   0.144   3.832   7.382  0.0542  0.5377  0.7559
   39POPC  H101 5238   0.193   3.901   7.453  2.1947 -0.3345  0.1663
   39POPC  C211 5239   0.137   3.693   7.445 -0.2990  0.2975 -0.0537
   39POPC  H11R 5240   0.119   3.608   7.376 -1.7984  0.1475  0.5013
   39POPC  H11S 5241   0.065   3.700   7.529 -1.2258 -0.9631 -0.7157
   39POPC  C212 5242   0.271   3.644   7.511 -0.6117 -0.1230  0.7091
   39POPC  H12R 5243   0.257   3.543   7.555 -2.9846 -0.3770 -0.4998
   39POPC  H12S 5244   0.288   3.713   7.596  1.9245 -1.5101  1.3632
   39POPC  C213 5245   0.394   3.651   7.415 -0.1655 -0.3560  0.2299
   39POPC  H13R 5246   0.394   3.750   7.364 -0.3667  0.8334  2.4933
   39POPC  H13S 5247   0.389   3.571   7.338  1.0415  0.9158 -1.2260
   39POPC  C214 5248   0.525   3.641   7.493 -0.3078 -0.5144 -0.7138
   39POPC  H14R 5249   0.536   3.551   7.557 -0.6366  2.0415  3.0483
   39POPC  H14S 5250   0.540   3.725   7.564 -1.2274 -1.0763  0.1503
   39POPC  C215 5251   0.645   3.632   7.389 -0.0588  0.7124 -0.1162
   39POPC  H15R 5252   0.649   3.724   7.328 -1.9292  1.8527  1.4275
   39POPC  H15S 5253   0.658   3.545   7.321 -0.3524  0.8237 -0.3077
   39POPC  C216 5254   0.786   3.631   7.460  0.8084 -0.6147  0.0639
   39POPC  H16R 5255   0.800   3.534   7.511  0.5982 -0.4802  0.3840
   39POPC  H16S 5256   0.776   3.713   7.534 -1.8192 -1.3643  0.5970
   39POPC  C217 5257   0.907   3.656   7.367 -0.1855 -0.3166 -0.5300
   39POPC  H17R 5258   0.900   3.585   7.282 -0.7283 -0.8561 -0.0361
   39POPC  H17S 5259   0.999   3.630   7.423 -1.0746 -0.2835  0.9776
   39POPC  C218 5260   0.917   3.797   7.310  0.7626  0.7068 -0.6279
   39POPC  H18R 5261   0.948   3.871   7.386  1.4484  0.9751 -1.1617
   39POPC  H18S 5262   0.818   3.822   7.265 -0.4930 -0.1722  1.5447
   39POPC  H18T 5263   0.995   3.801   7.231  0.3006 -0.1769 -1.1465
   39POPC   C33 5264   1.264   3.586   7.105 -0.2981 -0.4827 -0.0092
   39POPC   H3X 5265   1.350   3.525   7.072 -0.6190 -0.1439 -1.5069
   39POPC   H3Y 5266   1.193   3.508   7.140 -0.1954 -0.1135  1.0394
   39POPC   C34 5267   1.300   3.679   7.216  0.4667 -0.3034 -0.3947
   39POPC   H4X 5268   1.209   3.738   7.241  0.3367 -0.8898  0.5432
   39POPC   H4Y 5269   1.372   3.756   7.181  1.2816 -0.2584  1.3475
   39POPC   C35 5270   1.347   3.614   7.345  0.5313 -0.0390  0.0819
   39POPC   H5X 5271   1.444   3.562   7.329  0.8483 -0.1691  2.3359
   39POPC   H5Y 5272   1.280   3.532   7.379  1.5728 -1.3979 -1.1144
   39POPC   C36 5273   1.354   3.719   7.460  0.2547  0.6532 -0.4136
   39POPC   H6X 5274   1.251   3.746   7.494  0.0270 -0.2359 -0.3980
   39POPC   H6Y 5275   1.404   3.809   7.418  1.7253  0.1391  0.2184
   39POPC   C37 5276   1.429   3.658   7.573 -0.0406 -0.0411 -0.1637
   39POPC   H7X 5277   1.497   3.581   7.529  0.8899 -0.8915  2.6979
   39POPC   H7Y 5278   1.351   3.600   7.627  0.6087  0.4952  1.3403
   39POPC   C38 5279   1.505   3.768   7.644  0.1389  0.4492  0.0268
   39POPC   H8X 5280   1.431   3.848   7.664 -0.0530  1.0979 -3.1003
   39POPC   H8Y 5281   1.588   3.810   7.583  0.9387  0.4332  1.0753
   39POPC   C39 5282   1.575   3.717   7.771 -0.4574 -0.7124 -0.4218
   39POPC   H9X 5283   1.497   3.661   7.826  2.1898 -1.2573  2.9660
   39POPC   H9Y 5284   1.614   3.802   7.831 -1.7960  0.1614 -0.7603
   39POPC  C310 5285   1.692   3.619   7.749 -0.2056  0.2237  0.5251
   39POPC  H10X 5286   1.765   3.671   7.683 -0.0069 -1.8895 -0.9879
   39POPC  H10Y 5287   1.643   3.530   7.703 -2.6121 -0.1104  3.5683
   39POPC  C311 5288   1.758   3.574   7.885 -0.9651  0.5123  0.5115
   39POPC  H11X 5289   1.674   3.559   7.957 -0.1714  0.3056  1.4036
   39POPC  H11Y 5290   1.823   3.656   7.923  0.1154  0.7968 -1.9130
   39POPC  C312 5291   1.845   3.451   7.865  0.5819 -1.0413  0.3103
   39POPC  H12X 5292   1.910   3.478   7.779 -1.5305 -0.7847 -1.2490
   39POPC  H12Y 5293   1.794   3.358   7.833 -2.3868  1.5360 -2.9755
   39POPC  C313 5294   1.931   3.420   7.989  0.7206 -0.1302  0.8249
   39POPC  H13X 5295   1.933   3.519   8.039 -1.5449  0.7022 -0.6834
   39POPC  H13Y 5296   2.034   3.397   7.953 -0.0172 -0.1748 -1.3781
   39POPC  C314 5297   1.870   3.309   8.071 -0.4860  0.0252 -0.3267
   39POPC  H14X 5298   1.865   3.208   8.025 -0.7885 -0.5880  1.0161
   39POPC  H14Y 5299   1.765   3.329   8.098 -0.6593 -0.7354 -0.4130
   39POPC  C315 5300   1.954   3.284   8.194  0.2263  0.2329 -0.1521
   39POPC  H15X 5301   1.966   3.379   8.251  1.4434  2.3361 -3.6872
   39POPC  H15Y 5302   2.057   3.255   8.166 -0.0534  0.8526 -1.8793
   39POPC  C316 5303   1.885   3.184   8.291 -0.6325 -0.1506  0.2567
   39POPC  H16X 5304   1.843   3.095   8.240  1.1695  0.2450 -1.9929
   39POPC  H16Y 5305   1.807   3.236   8.351 -0.7931  2.4375 -2.1272
   39POPC  H16Z 5306   1.968   3.158   8.359 -0.6379 -1.9002 -0.3772
   40POPC     N 5307   0.220   1.086   6.272 -0.3297  0.2789  0.3672
   40POPC   C12 5308   0.110   1.161   6.350 -0.2882  0.4226  1.0907
   40POPC  H12A 5309   0.036   1.194   6.279  0.1207  0.1095  0.5132
   40POPC  H12B 5310   0.149   1.253   6.391  0.0387  1.5352 -1.5797
   40POPC   C13 5311   0.172   0.961   6.206  0.2355 -0.0963  0.1117
   40POPC  H13A 5312   0.136   0.883   6.270 -1.3355  0.1023 -0.5142
   40POPC  H13B 5313   0.084   0.990   6.150 -0.5626 -0.1184  1.3507
   40POPC  H13C 5314   0.243   0.916   6.137 -1.4104 -2.2380 -0.2410
   40POPC   C14 5315   0.256   1.180   6.159 -0.4836  0.3979 -0.0904
   40POPC  H14A 5316   0.172   1.237   6.122  0.4062  0.4979 -2.0135
   40POPC  H14B 5317   0.327   1.257   6.187  0.5854  0.1011 -1.9111
   40POPC  H14C 5318   0.296   1.126   6.075  0.0017  0.2850  0.2090
   40POPC   C15 5319   0.341   1.063   6.361  0.4657  0.5180 -0.1562
   40POPC  H15A 5320   0.374   1.160   6.394 -0.8194  1.0866 -0.5182
   40POPC  H15B 5321   0.424   1.017   6.310 -0.2457 -1.3454  0.3184
   40POPC  H15C 5322   0.312   1.001   6.445 -1.1389  1.0455 -0.3229
   40POPC   C11 5323   0.039   1.099   6.471 -0.1367 -0.1956  0.0301
   40POPC  H11A 5324  -0.045   1.159   6.512 -0.4711 -0.4130 -0.3343
   40POPC  H11B 5325   0.114   1.092   6.553  0.2792  0.2516 -0.3077
   40POPC     P 5326  -0.144   0.935   6.355 -0.2143 -0.1162 -0.1576
   40POPC   O13 5327  -0.128   0.810   6.274 -0.3279  0.1298 -0.0351
   40POPC   O14 5328  -0.189   1.055   6.281  0.1505  0.4074 -0.0480
   40POPC   O12 5329  -0.008   0.970   6.435  0.1181 -1.0212 -0.9553
   40POPC   O11 5330  -0.241   0.911   6.480 -0.1291  0.1124  0.2606
   40POPC    C1 5331  -0.383   0.892   6.466  0.1948  0.1181 -0.0295
   40POPC    HA 5332  -0.393   0.814   6.388  0.9509  0.2036 -0.2140
   40POPC    HB 5333  -0.422   0.990   6.431  1.2595  0.9542  1.0919
   40POPC    C2 5334  -0.439   0.835   6.600  1.2113 -0.6849  0.2658
   40POPC    HS 5335  -0.550   0.824   6.598  1.1517  0.1421 -3.6629
   40POPC   O21 5336  -0.394   0.910   6.709 -0.0148  0.5804  0.2561
   40POPC   C21 5337  -0.401   1.042   6.716  0.3846  0.2120  0.0980
   40POPC   O22 5338  -0.470   1.110   6.643  0.3422 -0.2258 -0.1036
   40POPC   C22 5339  -0.292   1.092   6.813  0.4841  0.1864 -0.4529
   40POPC   H2R 5340  -0.209   1.138   6.755  1.0052 -1.1099 -0.7351
   40POPC   H2S 5341  -0.259   1.001   6.868  0.1229  0.8204  0.8370
   40POPC    C3 5342  -0.388   0.691   6.616  0.4034  0.1331  0.7526
   40POPC    HX 5343  -0.280   0.685   6.594 -0.5624 -2.9196 -3.8382
   40POPC    HY 5344  -0.442   0.637   6.535 -0.1641  0.3912  0.9514
   40POPC   O31 5345  -0.412   0.619   6.743  0.0864 -0.2773 -0.3789
   40POPC   C31 5346  -0.527   0.571   6.759  0.5587 -0.2891  0.7911
   40POPC   O32 5347  -0.621   0.564   6.677  0.2777 -0.4144  0.2658
   40POPC   C32 5348  -0.537   0.524   6.901  0.4023  0.4277  0.3684
   40POPC   H2X 5349  -0.511   0.612   6.963 -0.0302  1.7214 -1.2287
   40POPC   H2Y 5350  -0.463   0.444   6.919  0.2245  0.3007  0.5307
   40POPC   C23 5351  -0.354   1.199   6.915 -0.9830 -0.3032  0.9705
   40POPC   H3R 5352  -0.399   1.283   6.857  0.4575 -0.6100 -0.6389
   40POPC   H3S 5353  -0.273   1.248   6.972  0.4586 -0.9177 -0.5068
   40POPC   C24 5354  -0.445   1.139   7.024  0.2610 -0.1314 -0.5980
   40POPC   H4R 5355  -0.543   1.102   6.989 -0.0251 -2.3410  2.4033
   40POPC   H4S 5356  -0.473   1.225   7.089 -0.8686 -2.2165  1.7134
   40POPC   C25 5357  -0.383   1.037   7.116 -0.3316  0.4193 -0.2581
   40POPC   H5R 5358  -0.290   1.072   7.165 -1.1559  0.6050  1.1779
   40POPC   H5S 5359  -0.356   0.956   7.045  1.0804 -2.7039  3.6446
   40POPC   C26 5360  -0.482   1.012   7.234 -0.4756 -0.6808  0.2158
   40POPC   H6R 5361  -0.510   1.109   7.282 -0.9375 -0.4199 -0.5865
   40POPC   H6S 5362  -0.418   0.971   7.315  0.3564  0.2125  0.0201
   40POPC   C27 5363  -0.603   0.927   7.209  0.6456  0.3471 -0.7508
   40POPC   H7R 5364  -0.565   0.832   7.165  3.4162  0.6622  0.8358
   40POPC   H7S 5365  -0.667   0.984   7.138  0.7051 -0.1040 -1.1685
   40POPC   C28 5366  -0.684   0.884   7.340 -0.5602  0.2795  0.5772
   40POPC   H8R 5367  -0.771   0.820   7.314 -1.0851  1.0880  0.3285
   40POPC   H8S 5368  -0.744   0.965   7.385 -0.7292  1.0323 -0.9621
   40POPC   C29 5369  -0.595   0.817   7.441  0.1234 -0.1385 -0.1784
   40POPC   H91 5370  -0.531   0.734   7.407 -2.0792 -1.4999 -1.0585
   40POPC  C210 5371  -0.595   0.854   7.573 -0.2123  0.7201  0.0295
   40POPC  H101 5372  -0.541   0.791   7.646 -0.4293 -0.0763 -0.5008
   40POPC  C211 5373  -0.679   0.966   7.636 -0.5232  0.3365  0.0733
   40POPC  H11R 5374  -0.781   0.967   7.590 -0.6775 -0.9901  0.3625
   40POPC  H11S 5375  -0.634   1.067   7.630 -0.0044  0.1086  0.1521
   40POPC  C212 5376  -0.705   0.936   7.793 -0.0971  0.0970 -0.4486
   40POPC  H12R 5377  -0.603   0.920   7.834  0.4197  1.5286 -1.1380
   40POPC  H12S 5378  -0.761   0.841   7.788  1.0573 -0.6374  0.2689
   40POPC  C213 5379  -0.775   1.045   7.869  0.4222 -0.1973  0.6633
   40POPC  H13R 5380  -0.860   1.084   7.809  1.1333  2.2740  1.1662
   40POPC  H13S 5381  -0.699   1.126   7.879 -0.8292  0.8182  2.2560
   40POPC  C214 5382  -0.819   0.986   8.005 -0.4596  0.1044  0.9805
   40POPC  H14R 5383  -0.726   0.944   8.048 -0.7204 -1.7874 -0.2306
   40POPC  H14S 5384  -0.894   0.907   7.985 -1.1862  1.1990 -0.8734
   40POPC  C215 5385  -0.865   1.095   8.100  0.3365 -0.4707  0.3142
   40POPC  H15R 5386  -0.959   1.141   8.061  0.7344  0.1263  0.0488
   40POPC  H15S 5387  -0.782   1.169   8.095 -0.3375  0.3580  1.2301
   40POPC  C216 5388  -0.890   1.032   8.238 -0.5842  0.9599  0.0593
   40POPC  H16R 5389  -0.957   1.099   8.296 -0.5135  0.4461  0.7373
   40POPC  H16S 5390  -0.795   1.016   8.294 -0.9075 -1.9751 -0.1656
   40POPC  C217 5391  -0.976   0.906   8.246  0.5252 -0.3593  0.0232
   40POPC  H17R 5392  -0.939   0.815   8.196  1.9382 -0.3962  1.1060
   40POPC  H17S 5393  -1.079   0.938   8.218  1.0713  0.5765 -0.9564
   40POPC  C218 5394  -1.008   0.869   8.387 -0.3793  0.1178  0.0633
   40POPC  H18R 5395  -1.076   0.948   8.426  0.7989  1.0740  0.1710
   40POPC  H18S 5396  -0.916   0.849   8.446 -0.2274  1.0137  0.1374
   40POPC  H18T 5397  -1.064   0.773   8.398  1.0194 -0.5147  1.9249
   40POPC   C33 5398  -0.681   0.456   6.924 -0.6718 -0.0352  0.4355
   40POPC   H3X 5399  -0.697   0.372   6.853 -2.0245 -0.0610  0.7526
   40POPC   H3Y 5400  -0.755   0.536   6.903 -1.3351 -1.2939 -2.2648
   40POPC   C34 5401  -0.696   0.417   7.067  0.1513  0.6185  0.1983
   40POPC   H4X 5402  -0.713   0.511   7.124  1.1146 -0.2223  1.9019
   40POPC   H4Y 5403  -0.611   0.356   7.105  0.7874  1.7831  0.6799
   40POPC   C35 5404  -0.817   0.325   7.079  0.1247 -0.5957  0.4022
   40POPC   H5X 5405  -0.811   0.238   7.011 -1.2450 -1.6894  1.6589
   40POPC   H5Y 5406  -0.912   0.381   7.059 -0.0738 -1.5131 -1.2525
   40POPC   C36 5407  -0.827   0.267   7.224  0.3105  0.7987 -0.2200
   40POPC   H6X 5408  -0.727   0.221   7.237 -1.1515 -2.0453  1.4839
   40POPC   H6Y 5409  -0.907   0.191   7.214  0.2797  0.9114 -0.8560
   40POPC   C37 5410  -0.874   0.367   7.329 -0.0524 -0.7119 -0.1114
   40POPC   H7X 5411  -0.964   0.427   7.303  0.9715 -0.1042 -2.3437
   40POPC   H7Y 5412  -0.792   0.440   7.348 -1.3780  0.5941  0.7312
   40POPC   C38 5413  -0.902   0.289   7.456 -0.2619 -0.4599  0.6023
   40POPC   H8X 5414  -0.814   0.224   7.475 -0.1359 -0.8825 -1.2901
   40POPC   H8Y 5415  -0.985   0.216   7.443 -1.0127  0.0870  2.2098
   40POPC   C39 5416  -0.937   0.379   7.569  0.0156 -0.1775  0.2785
   40POPC   H9X 5417  -1.022   0.445   7.541  0.1832 -0.0903 -0.0267
   40POPC   H9Y 5418  -0.854   0.452   7.585  1.0631 -1.3191  0.0671
   40POPC  C310 5419  -0.977   0.301   7.696 -0.0934  0.4065 -0.1025
   40POPC  H10X 5420  -0.891   0.234   7.718  0.2304  1.0402  0.5614
   40POPC  H10Y 5421  -1.067   0.236   7.690  0.2185 -0.0745  0.3686
   40POPC  C311 5422  -0.989   0.405   7.812  0.1598  0.2355  0.4388
   40POPC  H11X 5423  -1.069   0.476   7.784 -0.6085  0.4762  3.1596
   40POPC  H11Y 5424  -0.895   0.464   7.820 -0.3070  1.1798 -0.8581
   40POPC  C312 5425  -1.040   0.355   7.946 -0.1279  0.3663 -0.3509
   40POPC  H12X 5426  -0.950   0.301   7.983  0.7606  0.2145 -2.6398
   40POPC  H12Y 5427  -1.125   0.284   7.943  0.4705 -0.5556  2.6999
   40POPC  C313 5428  -1.068   0.479   8.035 -0.0903  0.1098  0.7308
   40POPC  H13X 5429  -1.162   0.531   8.007 -0.2620 -0.9641 -0.7905
   40POPC  H13Y 5430  -0.990   0.556   8.021 -1.0386  1.0198  0.3588
   40POPC  C314 5431  -1.094   0.450   8.182  0.2375 -0.7193  0.0076
   40POPC  H14X 5432  -1.188   0.391   8.181  0.3722 -0.9609  1.0388
   40POPC  H14Y 5433  -1.118   0.543   8.238 -0.0026 -0.7140 -0.1040
   40POPC  C315 5434  -0.983   0.363   8.251  0.0731  0.0491 -0.8376
   40POPC  H15X 5435  -0.897   0.432   8.255 -1.6770  2.2309  0.2115
   40POPC  H15Y 5436  -0.955   0.271   8.195  0.3711  0.0986 -0.7700
   40POPC  C316 5437  -1.023   0.319   8.395  1.1699  0.3317  0.0143
   40POPC  H16X 5438  -1.061   0.411   8.446 -0.9914 -1.2401  1.3084
   40POPC  H16Y 5439  -0.941   0.270   8.451  0.0533 -1.0720  0.4360
   40POPC  H16Z 5440  -1.108   0.248   8.404  1.8098 -0.3389  0.8140
   41CHL1    C3 5441   5.355   4.466   9.981  0.8031  0.1367  0.5165
   41CHL1    H3 5442   5.458   4.506   9.969  0.7969  0.1033  0.3569
   41CHL1    O3 5443   5.332   4.410  10.111  0.3153  0.2354  0.4022
   41CHL1   H3' 5444   5.238   4.414  10.128  0.2864 -0.7706  0.4708
   41CHL1    C4 5445   5.260   4.581   9.954  0.1875  0.0089 -0.0496
   41CHL1   H4A 5446   5.161   4.558   9.999  0.9451  0.4819  1.9149
   41CHL1   H4B 5447   5.285   4.666  10.021  0.9271 -0.3955  0.1848
   41CHL1    C5 5448   5.263   4.625   9.808  0.5400 -0.3287  0.0739
   41CHL1    C6 5449   5.286   4.750   9.776 -0.3039 -0.0401  0.5338
   41CHL1    H6 5450   5.310   4.826   9.852 -2.3753  1.3056 -0.1201
   41CHL1    C7 5451   5.264   4.802   9.636 -0.0141  0.2696 -0.6535
   41CHL1   H7A 5452   5.202   4.895   9.635 -0.7560 -0.1752  1.1492
   41CHL1   H7B 5453   5.362   4.825   9.589  1.8852 -3.8375  1.1025
   41CHL1    C8 5454   5.197   4.702   9.533 -0.1296  0.2516 -0.0392
   41CHL1    H8 5455   5.088   4.709   9.551  0.2162  0.8291  1.9533
   41CHL1   C14 5456   5.228   4.742   9.391 -0.0646 -0.4596  0.5806
   41CHL1   H14 5457   5.338   4.727   9.378 -0.4985 -1.3800 -2.4008
   41CHL1   C15 5458   5.182   4.886   9.365  0.3965 -0.9974  0.1261
   41CHL1  H15A 5459   5.080   4.898   9.407 -0.1173 -0.4558 -1.2276
   41CHL1  H15B 5460   5.243   4.971   9.401 -0.2805 -0.8333  0.8921
   41CHL1   C16 5461   5.172   4.891   9.211 -0.2506 -0.1719 -0.2290
   41CHL1  H16A 5462   5.064   4.898   9.185  0.1878  0.1900 -1.9790
   41CHL1  H16B 5463   5.228   4.978   9.172 -0.0412  0.1719  0.8334
   41CHL1   C17 5464   5.211   4.747   9.163  0.7226  0.1520 -0.1703
   41CHL1   H17 5465   5.321   4.732   9.160  0.7948  0.2947  1.1933
   41CHL1   C13 5466   5.169   4.650   9.279  0.3545 -0.1088  0.0701
   41CHL1   C18 5467   5.015   4.638   9.283  0.4460 -0.6069 -0.8889
   41CHL1  H18A 5468   4.976   4.586   9.193  0.9605 -1.0376 -0.8684
   41CHL1  H18B 5469   4.984   4.587   9.376  1.5000  0.7759  0.2407
   41CHL1  H18C 5470   4.964   4.737   9.282  1.6647  0.0311 -1.4341
   41CHL1   C12 5471   5.233   4.510   9.303  0.8300  0.4627 -0.3663
   41CHL1  H12A 5472   5.200   4.436   9.226 -2.1380 -1.0757  2.3026
   41CHL1  H12B 5473   5.341   4.532   9.288  1.1569 -0.6097  0.3775
   41CHL1   C11 5474   5.209   4.463   9.442  0.1221  0.1079 -0.8933
   41CHL1  H11A 5475   5.103   4.433   9.448 -0.3968  1.9813 -0.3305
   41CHL1  H11B 5476   5.268   4.369   9.447  0.1932 -0.1102 -4.4058
   41CHL1    C9 5477   5.254   4.558   9.554 -0.4562  0.0899  0.4402
   41CHL1    H9 5478   5.363   4.569   9.539 -0.3296  0.0795  1.3052
   41CHL1   C10 5479   5.243   4.507   9.708 -0.4843  0.0584 -0.3306
   41CHL1   C19 5480   5.096   4.461   9.720  0.0994  0.8883 -0.3809
   41CHL1  H19A 5481   5.087   4.359   9.677 -0.0526  1.6768 -2.2723
   41CHL1  H19B 5482   5.072   4.450   9.828  1.0336 -0.3259 -0.2915
   41CHL1  H19C 5483   5.019   4.526   9.672  1.9483  2.9135 -0.6797
   41CHL1    C1 5484   5.351   4.405   9.731 -0.1397  0.0580 -0.0475
   41CHL1   H1A 5485   5.329   4.319   9.665 -1.2589 -0.5996  1.1646
   41CHL1   H1B 5486   5.450   4.451   9.712 -0.0988 -0.3511 -0.8166
   41CHL1    C2 5487   5.352   4.353   9.872  0.2248  0.2542  0.3327
   41CHL1   H2A 5488   5.431   4.280   9.899  1.2093  1.4767  0.7986
   41CHL1   H2B 5489   5.258   4.297   9.893  0.8636 -0.2415  1.9987
   41CHL1   C20 5490   5.155   4.712   9.019 -0.1095  0.3812 -0.3570
   41CHL1   H20 5491   5.045   4.721   9.025 -0.1023  0.9381 -0.9147
   41CHL1   C21 5492   5.201   4.568   8.972 -0.6439 -0.7833 -0.6301
   41CHL1  H21A 5493   5.166   4.560   8.867  4.4777 -0.8906 -2.4819
   41CHL1  H21B 5494   5.146   4.490   9.029  1.7745 -2.8418 -1.0377
   41CHL1  H21C 5495   5.311   4.555   8.967 -0.6552 -1.4787  0.6640
   41CHL1   C22 5496   5.195   4.816   8.912  0.4959  0.6782 -0.0705
   41CHL1  H22A 5497   5.183   4.918   8.955  1.1387 -0.2762  2.4614
   41CHL1  H22B 5498   5.303   4.803   8.888  0.6388  3.1172 -0.8624
   41CHL1   C23 5499   5.119   4.808   8.783  0.8670 -0.0263 -0.0614
   41CHL1  H23A 5500   5.132   4.704   8.745  0.8474 -0.5460  1.3273
   41CHL1  H23B 5501   5.008   4.816   8.790  0.9496 -0.2816  1.6945
   41CHL1   C24 5502   5.153   4.928   8.687 -1.1281  0.0593  0.3042
   41CHL1  H24A 5503   5.092   4.908   8.596  0.8350  2.6754 -1.6730
   41CHL1  H24B 5504   5.124   5.026   8.732  0.3776 -0.1338  1.7301
   41CHL1   C25 5505   5.298   4.949   8.645 -0.1411 -0.3182  0.3206
   41CHL1   H25 5506   5.353   4.977   8.738  3.8243 -0.2338 -1.9401
   41CHL1   C26 5507   5.383   4.821   8.601  0.4648  0.6976 -0.2183
   41CHL1  H26A 5508   5.351   4.772   8.507 -2.1420  0.3404  0.8209
   41CHL1  H26B 5509   5.485   4.862   8.585  0.4489  0.3489 -1.2121
   41CHL1  H26C 5510   5.378   4.736   8.673 -0.6060 -0.0748 -1.1760
   41CHL1   C27 5511   5.303   5.054   8.532  0.2988  0.0610 -0.6859
   41CHL1  H27A 5512   5.408   5.068   8.498  0.0676  0.0103 -1.4139
   41CHL1  H27B 5513   5.251   5.032   8.436  1.6084  2.8578 -2.1034
   41CHL1  H27C 5514   5.254   5.145   8.573  2.3108  0.1848  1.5689
   42CHL1    C3 5515   5.648   3.928   9.688  0.3571  0.4223  0.2348
   42CHL1    H3 5516   5.754   3.958   9.673 -0.2452  1.6797 -1.6306
   42CHL1    O3 5517   5.630   3.887   9.824 -0.2340 -0.1206  0.3661
   42CHL1   H3' 5518   5.543   3.847   9.830  0.0030 -0.8253 -0.7413
   42CHL1    C4 5519   5.555   4.042   9.656  0.4726  0.8980  0.0442
   42CHL1   H4A 5520   5.463   3.999   9.700  1.5005  1.1973  2.5626
   42CHL1   H4B 5521   5.584   4.128   9.720 -0.6822  1.5439 -0.2998
   42CHL1    C5 5522   5.549   4.071   9.505 -0.5212  1.0885 -0.0693
   42CHL1    C6 5523   5.568   4.198   9.462  0.5197 -0.5510 -0.1859
   42CHL1    H6 5524   5.582   4.276   9.538  1.3138 -0.8873  0.0182
   42CHL1    C7 5525   5.541   4.245   9.330  0.0851  0.1543  0.4456
   42CHL1   H7A 5526   5.470   4.331   9.335  1.3276  1.3164 -1.2450
   42CHL1   H7B 5527   5.625   4.298   9.281 -1.3198  0.4281 -1.7491
   42CHL1    C8 5528   5.474   4.134   9.238  0.5305  0.2872  1.4505
   42CHL1    H8 5529   5.365   4.133   9.260 -0.0522  2.3538 -1.0265
   42CHL1   C14 5530   5.486   4.171   9.090 -0.3651 -0.5131  0.7028
   42CHL1   H14 5531   5.593   4.173   9.061 -0.6789  0.7364 -0.4382
   42CHL1   C15 5532   5.429   4.304   9.044  0.2602 -0.6045 -0.5894
   42CHL1  H15A 5533   5.333   4.311   9.100  2.7955  0.7729  3.8616
   42CHL1  H15B 5534   5.492   4.393   9.062 -1.7731  0.4786  1.5255
   42CHL1   C16 5535   5.412   4.287   8.891 -0.2541 -0.5697 -0.2745
   42CHL1  H16A 5536   5.310   4.316   8.861  0.3232  3.7157  1.5703
   42CHL1  H16B 5537   5.484   4.354   8.839  0.6421 -0.5513  0.9576
   42CHL1   C17 5538   5.452   4.140   8.854 -0.4575  0.5971 -0.8851
   42CHL1   H17 5539   5.561   4.136   8.833 -0.9930  0.2415 -3.8769
   42CHL1   C13 5540   5.429   4.068   8.989  0.0370 -0.5329 -0.7416
   42CHL1   C18 5541   5.278   4.059   9.007 -0.1595 -0.0786 -0.6090
   42CHL1  H18A 5542   5.230   4.155   8.978  0.6689  0.9373  1.3307
   42CHL1  H18B 5543   5.236   3.974   8.949  2.6397 -0.4170 -2.2661
   42CHL1  H18C 5544   5.250   4.039   9.112  1.5017  1.0300  0.0653
   42CHL1   C12 5545   5.489   3.929   9.010  0.4156 -0.7638  0.3826
   42CHL1  H12A 5546   5.448   3.856   8.937 -0.4762  0.1946 -0.0922
   42CHL1  H12B 5547   5.589   3.960   8.974  0.2396  0.7780  1.1690
   42CHL1   C11 5548   5.490   3.890   9.158  0.2623  0.5350  0.2422
   42CHL1  H11A 5549   5.387   3.859   9.185  1.0903 -1.5344  1.0991
   42CHL1  H11B 5550   5.555   3.800   9.166  2.6399  2.0249 -1.5452
   42CHL1    C9 5551   5.534   3.997   9.266  0.5496 -0.3163  0.5727
   42CHL1    H9 5552   5.644   4.011   9.261  0.6454 -0.8621  1.1236
   42CHL1   C10 5553   5.520   3.950   9.416 -0.0279 -0.3293  0.4673
   42CHL1   C19 5554   5.372   3.902   9.433  0.3330  0.4981 -0.8683
   42CHL1  H19A 5555   5.295   3.973   9.394 -0.2759  1.2082  1.5282
   42CHL1  H19B 5556   5.369   3.806   9.378 -0.1990  1.5308 -2.6957
   42CHL1  H19C 5557   5.331   3.884   9.535  0.7684  0.1691 -0.7553
   42CHL1    C1 5558   5.621   3.840   9.449  0.5292  0.7943 -0.2350
   42CHL1   H1A 5559   5.609   3.747   9.390  1.1116  1.4627 -1.4309
   42CHL1   H1B 5560   5.724   3.879   9.434  1.2891 -1.9838 -2.6738
   42CHL1    C2 5561   5.619   3.802   9.594 -0.2490 -0.6619 -0.3268
   42CHL1   H2A 5562   5.710   3.748   9.629 -1.1447 -0.5053  2.4075
   42CHL1   H2B 5563   5.518   3.760   9.614  0.1554 -0.5313  2.2421
   42CHL1   C20 5564   5.375   4.081   8.732  0.0608  1.1145 -0.6224
   42CHL1   H20 5565   5.268   4.069   8.757  0.3216 -0.0364 -0.0465
   42CHL1   C21 5566   5.435   3.949   8.687 -0.2531  0.0041  0.4031
   42CHL1  H21A 5567   5.388   3.925   8.589 -1.1969  1.1874  0.5549
   42CHL1  H21B 5568   5.410   3.860   8.749 -2.6387  0.4336  0.1097
   42CHL1  H21C 5569   5.543   3.966   8.669  0.1730 -1.9099  1.0159
   42CHL1   C22 5570   5.379   4.175   8.610  0.2376 -0.0519 -0.0083
   42CHL1  H22A 5571   5.325   4.131   8.524 -0.4771  3.7466 -1.6253
   42CHL1  H22B 5572   5.322   4.266   8.640  2.1606  0.8751  0.9250
   42CHL1   C23 5573   5.515   4.214   8.553  0.3065 -0.5352  0.5604
   42CHL1  H23A 5574   5.580   4.249   8.636 -0.2256  0.2710  0.6435
   42CHL1  H23B 5575   5.564   4.118   8.524  1.5457  0.3645 -0.3623
   42CHL1   C24 5576   5.516   4.311   8.431 -0.4216 -0.4434 -0.1885
   42CHL1  H24A 5577   5.435   4.273   8.364 -2.2392  2.3273  0.3709
   42CHL1  H24B 5578   5.478   4.405   8.475  3.2717  0.6020  0.8556
   42CHL1   C25 5579   5.654   4.322   8.364 -0.4954  0.7290  0.4423
   42CHL1   H25 5580   5.701   4.223   8.344  0.8170  1.4296 -0.0473
   42CHL1   C26 5581   5.652   4.390   8.227  0.6697  0.0893  0.3985
   42CHL1  H26A 5582   5.582   4.344   8.154  2.1049 -0.4096 -0.6841
   42CHL1  H26B 5583   5.624   4.498   8.227 -0.5381 -0.2188 -0.7311
   42CHL1  H26C 5584   5.752   4.378   8.180  1.0538 -0.0380  1.2356
   42CHL1   C27 5585   5.753   4.389   8.455 -1.0585 -0.4396  0.1789
   42CHL1  H27A 5586   5.856   4.400   8.412 -1.6228  0.1476 -1.0611
   42CHL1  H27B 5587   5.723   4.489   8.492 -0.3408  0.0586 -0.5518
   42CHL1  H27C 5588   5.760   4.324   8.545 -1.0424 -2.0226 -0.9455
   43CHL1    C3 5589   5.936   4.480   9.860 -0.2398  0.9313  0.3566
   43CHL1    H3 5590   6.034   4.465   9.810 -0.2256 -1.2156  0.9794
   43CHL1    O3 5591   5.936   4.427   9.991  0.2100  0.2435  0.2683
   43CHL1   H3' 5592   5.987   4.493  10.038 -1.1210  1.2714  0.3204
   43CHL1    C4 5593   5.920   4.635   9.866  0.1551 -0.1823  0.6533
   43CHL1   H4A 5594   5.822   4.658   9.911  0.0391  0.8529 -0.1028
   43CHL1   H4B 5595   6.003   4.684   9.922  2.3650 -0.5740 -2.1173
   43CHL1    C5 5596   5.912   4.706   9.736  0.0887 -0.4744  0.4318
   43CHL1    C6 5597   5.998   4.807   9.697  0.5817  0.1878 -0.0477
   43CHL1    H6 5598   6.078   4.838   9.766  0.3445  3.3802 -1.1078
   43CHL1    C7 5599   5.989   4.884   9.564  0.1430  0.0447  0.5297
   43CHL1   H7A 5600   5.981   4.993   9.586 -2.9761  0.2332 -1.2688
   43CHL1   H7B 5601   6.078   4.858   9.502 -0.7470  1.4969 -1.4168
   43CHL1    C8 5602   5.854   4.853   9.493 -0.3638 -0.0789 -0.0030
   43CHL1    H8 5603   5.769   4.896   9.548  0.6380  1.6023  0.2628
   43CHL1   C14 5604   5.863   4.894   9.342  0.1699 -0.3461 -0.8230
   43CHL1   H14 5605   5.941   4.825   9.305  0.6646 -1.4149  2.0943
   43CHL1   C15 5606   5.908   5.037   9.321  0.3213  0.6866  0.1281
   43CHL1  H15A 5607   5.846   5.106   9.381 -0.8996 -0.4024  0.1472
   43CHL1  H15B 5608   6.018   5.046   9.338  0.1677  1.4117  0.7409
   43CHL1   C16 5609   5.887   5.050   9.167  0.4423 -0.6766  0.0020
   43CHL1  H16A 5610   5.826   5.143   9.161  0.5172 -0.6092  0.2875
   43CHL1  H16B 5611   5.978   5.080   9.112 -0.3208  1.3392 -0.1849
   43CHL1   C17 5612   5.806   4.928   9.116  0.3315 -0.4969 -0.1052
   43CHL1   H17 5613   5.885   4.856   9.086  2.5258  1.1273  1.6559
   43CHL1   C13 5614   5.745   4.874   9.249 -0.6494 -0.1098 -0.5426
   43CHL1   C18 5615   5.616   4.952   9.288  0.5245 -0.5119 -0.5675
   43CHL1  H18A 5616   5.581   4.931   9.391  0.4035 -0.8480 -0.6770
   43CHL1  H18B 5617   5.627   5.062   9.276  0.4581 -0.6525 -1.9919
   43CHL1  H18C 5618   5.534   4.928   9.217 -1.2135  1.1186  0.8373
   43CHL1   C12 5619   5.719   4.724   9.257 -0.5549 -0.3426  0.1342
   43CHL1  H12A 5620   5.623   4.694   9.209 -1.4377  2.8220 -0.2174
   43CHL1  H12B 5621   5.802   4.675   9.204  2.2315  1.0764  3.0091
   43CHL1   C11 5622   5.703   4.675   9.404  0.3834 -0.0900 -1.1766
   43CHL1  H11A 5623   5.608   4.715   9.446  2.0731  1.6721  1.0887
   43CHL1  H11B 5624   5.683   4.566   9.408  0.8341 -0.2802 -3.5374
   43CHL1    C9 5625   5.821   4.700   9.498 -0.9827  0.1033  0.2877
   43CHL1    H9 5626   5.911   4.645   9.464 -0.9691 -0.7938  1.7560
   43CHL1   C10 5627   5.801   4.640   9.641 -0.2374 -0.7559  0.1046
   43CHL1   C19 5628   5.661   4.673   9.694  0.4601 -0.5892  0.6420
   43CHL1  H19A 5629   5.583   4.638   9.623  1.2272  1.0793 -1.0893
   43CHL1  H19B 5630   5.644   4.626   9.792  2.6359  0.8565  1.7727
   43CHL1  H19C 5631   5.633   4.781   9.698  0.6632 -0.4571 -0.9417
   43CHL1    C1 5632   5.811   4.487   9.646 -1.0065 -0.1335 -0.2491
   43CHL1   H1A 5633   5.723   4.442   9.595 -1.0672 -0.9902  0.6128
   43CHL1   H1B 5634   5.898   4.464   9.580 -0.5610  1.4608 -0.2255
   43CHL1    C2 5635   5.822   4.422   9.780  0.2437  0.9958 -0.7094
   43CHL1   H2A 5636   5.836   4.312   9.774 -0.1953  0.9427 -0.7994
   43CHL1   H2B 5637   5.738   4.443   9.850  0.0167 -0.1430 -0.6343
   43CHL1   C20 5638   5.713   4.959   8.995  0.0232 -0.0397  0.0231
   43CHL1   H20 5639   5.650   5.046   9.023 -0.1890  0.1425 -0.9690
   43CHL1   C21 5640   5.630   4.837   8.962  0.3981  0.3441 -1.0478
   43CHL1  H21A 5641   5.690   4.763   8.906  1.6794 -0.5800  1.4808
   43CHL1  H21B 5642   5.549   4.861   8.890 -1.1451 -3.1295 -0.5358
   43CHL1  H21C 5643   5.579   4.798   9.053 -0.4036  0.1811 -1.5569
   43CHL1   C22 5644   5.797   5.013   8.872 -0.1565 -0.0539  0.1148
   43CHL1  H22A 5645   5.854   5.104   8.904 -1.3082  1.3114 -1.6319
   43CHL1  H22B 5646   5.868   4.934   8.840 -0.6390 -1.0779  1.5313
   43CHL1   C23 5647   5.730   5.043   8.738 -0.5075  0.0142  0.3813
   43CHL1  H23A 5648   5.680   4.947   8.714  0.3269 -0.2179 -0.4470
   43CHL1  H23B 5649   5.652   5.121   8.749 -3.1019 -2.3242 -0.8758
   43CHL1   C24 5650   5.814   5.103   8.632  0.1305 -0.5039  0.0589
   43CHL1  H24A 5651   5.822   5.210   8.662 -1.4749 -0.0953 -0.8930
   43CHL1  H24B 5652   5.915   5.058   8.631  0.6915  0.7084 -2.0493
   43CHL1   C25 5653   5.760   5.109   8.485  0.1968 -0.0213 -0.3138
   43CHL1   H25 5654   5.725   5.006   8.465 -1.6619  0.4028  0.6403
   43CHL1   C26 5655   5.643   5.213   8.472  0.5336  0.1458 -0.0653
   43CHL1  H26A 5656   5.673   5.320   8.470  0.6867  0.1008 -2.8949
   43CHL1  H26B 5657   5.583   5.196   8.380 -0.2125 -3.3696  0.9864
   43CHL1  H26C 5658   5.570   5.191   8.552  0.7999 -1.2316 -0.1726
   43CHL1   C27 5659   5.864   5.135   8.376 -0.4145  0.0423  0.4718
   43CHL1  H27A 5660   5.822   5.149   8.274  1.0348 -3.6806 -0.7196
   43CHL1  H27B 5661   5.922   5.226   8.402  1.3247 -1.3374  1.5216
   43CHL1  H27C 5662   5.937   5.054   8.357  1.6584  1.9940 -0.0971
   44CHL1    C3 5663   6.467   5.031   9.855 -0.1132  0.4592 -0.4178
   44CHL1    H3 5664   6.539   4.957   9.814 -0.3788  1.3248 -2.5167
   44CHL1    O3 5665   6.451   5.014   9.994  0.0133 -0.3851  0.2532
   44CHL1   H3' 5666   6.419   5.098  10.027  0.3218 -0.6517  1.2585
   44CHL1    C4 5667   6.516   5.171   9.824 -0.6122 -0.9424  0.5446
   44CHL1   H4A 5668   6.450   5.247   9.871  0.7204  0.4381  0.2292
   44CHL1   H4B 5669   6.618   5.180   9.868 -0.3893  1.0145 -0.3143
   44CHL1    C5 5670   6.520   5.203   9.674 -0.6059 -0.4531  0.2457
   44CHL1    C6 5671   6.627   5.245   9.606 -0.0851 -0.2052 -0.8044
   44CHL1    H6 5672   6.715   5.258   9.671 -0.6993  2.3543 -0.3996
   44CHL1    C7 5673   6.639   5.282   9.462  0.0893  0.1844 -0.0177
   44CHL1   H7A 5674   6.686   5.381   9.445 -0.2098  0.6545  1.7738
   44CHL1   H7B 5675   6.702   5.206   9.411 -1.3908 -1.5690  0.7091
   44CHL1    C8 5676   6.501   5.290   9.389 -0.8199 -0.1531 -0.3143
   44CHL1    H8 5677   6.460   5.387   9.424 -0.5190 -0.2121  0.2058
   44CHL1   C14 5678   6.521   5.289   9.236  0.1498 -0.1868  0.0154
   44CHL1   H14 5679   6.573   5.195   9.208  0.1238 -0.2346  0.1274
   44CHL1   C15 5680   6.615   5.394   9.174 -0.7183 -0.3489  0.3292
   44CHL1  H15A 5681   6.581   5.487   9.226 -2.4756 -1.4954  1.2609
   44CHL1  H15B 5682   6.725   5.380   9.185 -0.7065 -1.4313 -1.0544
   44CHL1   C16 5683   6.573   5.405   9.024  0.1007  0.3259  0.5202
   44CHL1  H16A 5684   6.534   5.507   9.004 -1.6053 -0.3967  0.0438
   44CHL1  H16B 5685   6.658   5.393   8.954 -1.9517 -0.8433 -1.8734
   44CHL1   C17 5686   6.453   5.296   9.013 -0.5252 -0.1399  0.0152
   44CHL1   H17 5687   6.503   5.198   8.997 -2.0125 -1.0055  0.6417
   44CHL1   C13 5688   6.392   5.283   9.153  0.3132 -0.0929  0.0742
   44CHL1   C18 5689   6.302   5.406   9.169  0.4729 -0.3027  0.4045
   44CHL1  H18A 5690   6.360   5.501   9.168 -1.5044  0.9246 -0.0551
   44CHL1  H18B 5691   6.221   5.406   9.094  0.2307 -0.3677  0.6658
   44CHL1  H18C 5692   6.245   5.410   9.265  0.3605  1.6669  0.2711
   44CHL1   C12 5693   6.314   5.155   9.197 -0.6988 -0.2239 -0.6011
   44CHL1  H12A 5694   6.214   5.148   9.150 -1.1502 -1.8213  0.5509
   44CHL1  H12B 5695   6.375   5.065   9.172  0.6638  1.0589 -1.9999
   44CHL1   C11 5696   6.296   5.142   9.351 -0.3206  0.3298  0.0283
   44CHL1  H11A 5697   6.216   5.217   9.373  0.9222  1.6794  0.0090
   44CHL1  H11B 5698   6.253   5.041   9.368 -2.7415  1.2620 -0.2832
   44CHL1    C9 5699   6.418   5.168   9.438  0.3521 -0.7344 -0.7834
   44CHL1    H9 5700   6.487   5.084   9.415  0.7550 -0.1242 -1.8504
   44CHL1   C10 5701   6.392   5.167   9.590  0.0535 -0.6867  0.6046
   44CHL1   C19 5702   6.290   5.273   9.629  0.5395  0.1979  0.0452
   44CHL1  H19A 5703   6.308   5.378   9.600  1.5107  0.0949  0.2711
   44CHL1  H19B 5704   6.196   5.241   9.578  1.8030 -0.9866 -1.5948
   44CHL1  H19C 5705   6.265   5.270   9.737 -1.3115 -0.1487 -0.3694
   44CHL1    C1 5706   6.336   5.031   9.633 -0.3151 -0.1855  0.1610
   44CHL1   H1A 5707   6.233   5.011   9.597  0.0341  1.9669 -2.1226
   44CHL1   H1B 5708   6.403   4.954   9.588 -1.0409 -0.5393 -0.3278
   44CHL1    C2 5709   6.335   5.003   9.785 -0.0810 -0.6104 -0.7172
   44CHL1   H2A 5710   6.298   4.901   9.810 -2.0518  0.3728  0.4907
   44CHL1   H2B 5711   6.256   5.067   9.831 -1.0173 -1.2327 -1.4531
   44CHL1   C20 5712   6.371   5.322   8.889  0.5797  0.2886  0.7451
   44CHL1   H20 5713   6.328   5.424   8.901  1.5997  0.9076 -0.6351
   44CHL1   C21 5714   6.251   5.225   8.886 -0.1063 -0.0204 -1.0461
   44CHL1  H21A 5715   6.286   5.120   8.895  0.8563  0.2033 -2.0538
   44CHL1  H21B 5716   6.194   5.239   8.791 -1.4064  0.6243 -0.1907
   44CHL1  H21C 5717   6.190   5.259   8.972  0.7981  0.1058 -0.4555
   44CHL1   C22 5718   6.454   5.320   8.760 -0.2004  0.0094 -0.0717
   44CHL1  H22A 5719   6.390   5.344   8.672  0.3320  1.2784 -0.1142
   44CHL1  H22B 5720   6.518   5.410   8.753  3.3280 -2.4685 -0.6630
   44CHL1   C23 5721   6.545   5.202   8.744 -0.6890 -0.3274 -0.2808
   44CHL1  H23A 5722   6.624   5.191   8.821 -1.3496  0.8714  0.5800
   44CHL1  H23B 5723   6.487   5.109   8.759  0.1915 -0.9140 -0.4858
   44CHL1   C24 5724   6.595   5.190   8.605 -0.0462  0.2070 -0.4965
   44CHL1  H24A 5725   6.510   5.201   8.534 -0.8323 -0.4831  0.3286
   44CHL1  H24B 5726   6.675   5.264   8.581  0.2082  0.5261  1.2438
   44CHL1   C25 5727   6.643   5.042   8.585  0.0954  0.5543  0.4019
   44CHL1   H25 5728   6.559   4.983   8.630  0.4030  1.0457  1.6578
   44CHL1   C26 5729   6.648   5.012   8.431 -0.2708  0.5101 -0.8523
   44CHL1  H26A 5730   6.552   5.046   8.388 -0.0214  1.5870 -0.5831
   44CHL1  H26B 5731   6.729   5.071   8.382  0.2603  0.5671  0.0758
   44CHL1  H26C 5732   6.667   4.904   8.413  1.8474  0.7157 -0.0023
   44CHL1   C27 5733   6.767   4.987   8.653  0.1751  0.2612 -0.5395
   44CHL1  H27A 5734   6.855   5.010   8.589  1.4717 -1.5203  0.5687
   44CHL1  H27B 5735   6.789   5.026   8.755  0.5615  0.2903 -0.6356
   44CHL1  H27C 5736   6.756   4.878   8.668 -1.7328  0.7619  2.0040
   45CHL1    C3 5737   3.088   3.313  10.290  0.5503  0.0396 -0.6512
   45CHL1    H3 5738   3.072   3.205  10.308  1.3606  0.1685  0.9381
   45CHL1    O3 5739   3.102   3.375  10.415  0.2138 -0.5091 -0.0764
   45CHL1   H3' 5740   3.196   3.363  10.424 -0.0558 -2.5581  0.3649
   45CHL1    C4 5741   3.224   3.336  10.207  0.1218  1.4122  0.2769
   45CHL1   H4A 5742   3.241   3.445  10.200 -0.7569  1.4023 -2.4579
   45CHL1   H4B 5743   3.315   3.303  10.262 -0.0234 -1.4550 -1.0685
   45CHL1    C5 5744   3.213   3.256  10.078  0.3752 -0.2607  0.0535
   45CHL1    C6 5745   3.311   3.160  10.049  0.6380 -0.0594 -0.2674
   45CHL1    H6 5746   3.400   3.151  10.113 -0.2144 -2.1070  0.6605
   45CHL1    C7 5747   3.305   3.080   9.925 -0.1320  0.5206  0.1952
   45CHL1   H7A 5748   3.401   3.081   9.869 -1.4192  0.8014 -2.0701
   45CHL1   H7B 5749   3.299   2.976   9.963  1.8335  0.5827  0.6979
   45CHL1    C8 5750   3.180   3.108   9.825  1.0530  0.4823  0.4070
   45CHL1    H8 5751   3.151   3.002   9.808 -0.9762  0.7799  1.7949
   45CHL1   C14 5752   3.222   3.157   9.692  0.3328 -0.3810 -0.1469
   45CHL1   H14 5753   3.258   3.260   9.712  3.1749 -1.6218  1.3596
   45CHL1   C15 5754   3.328   3.061   9.634  0.2879 -0.0065 -0.0632
   45CHL1  H15A 5755   3.432   3.091   9.661 -0.1833 -1.5961  3.8035
   45CHL1  H15B 5756   3.302   2.955   9.656 -0.0798 -0.1296 -1.0598
   45CHL1   C16 5757   3.307   3.061   9.482 -0.4867 -0.1261 -0.0782
   45CHL1  H16A 5758   3.363   3.147   9.440  0.5013 -0.9805 -0.5439
   45CHL1  H16B 5759   3.341   2.966   9.435  1.3303  0.5535 -0.2054
   45CHL1   C17 5760   3.158   3.075   9.474 -0.2100  0.0293 -0.0283
   45CHL1   H17 5761   3.119   2.974   9.497  0.1740  0.0557  0.7692
   45CHL1   C13 5762   3.107   3.166   9.589 -0.6251  0.3703  0.2175
   45CHL1   C18 5763   3.104   3.315   9.539  0.1995 -0.0909 -0.5011
   45CHL1  H18A 5764   3.189   3.334   9.469  0.9370  1.0963  0.6854
   45CHL1  H18B 5765   3.009   3.339   9.488  1.4398  0.2516 -2.7149
   45CHL1  H18C 5766   3.120   3.388   9.620  0.8524  1.3755 -1.9277
   45CHL1   C12 5767   2.973   3.121   9.648  0.9924 -0.1675  0.4706
   45CHL1  H12A 5768   2.891   3.160   9.584  1.2058  2.6768  1.8463
   45CHL1  H12B 5769   2.978   3.010   9.656  2.0734 -0.0419  1.8059
   45CHL1   C11 5770   2.952   3.189   9.782  0.3948 -0.1792 -0.4248
   45CHL1  H11A 5771   2.928   3.296   9.769  0.1749 -0.3625 -1.5916
   45CHL1  H11B 5772   2.852   3.153   9.815  1.3710 -2.6002  0.0347
   45CHL1    C9 5773   3.058   3.163   9.887 -0.4719  0.1073 -0.4633
   45CHL1    H9 5774   3.015   3.081   9.948 -0.7241 -0.3294 -1.2204
   45CHL1   C10 5775   3.086   3.275   9.993 -1.0011 -0.3011  0.7541
   45CHL1   C19 5776   3.104   3.409   9.919 -0.3938 -0.7749  0.4427
   45CHL1  H19A 5777   3.185   3.405   9.844  0.3268  0.2134  1.1570
   45CHL1  H19B 5778   3.011   3.441   9.867 -0.6304 -0.4605  1.0527
   45CHL1  H19C 5779   3.129   3.497   9.982 -0.3248 -0.9888  0.7143
   45CHL1    C1 5780   2.959   3.281  10.083  0.1502  0.2414 -0.2804
   45CHL1   H1A 5781   2.874   3.329  10.030 -1.8928 -0.6962  2.0121
   45CHL1   H1B 5782   2.931   3.176  10.106 -1.3362  0.6957  0.0856
   45CHL1    C2 5783   2.960   3.363  10.213  0.5969 -0.2057 -0.0501
   45CHL1   H2A 5784   2.866   3.345  10.269 -0.1151  0.2207 -1.1102
   45CHL1   H2B 5785   2.973   3.469  10.184 -0.0483  0.2113  1.1686
   45CHL1   C20 5786   3.104   3.102   9.333 -0.0183  0.3201 -0.5123
   45CHL1   H20 5787   3.141   3.204   9.309  1.9413 -0.1255  0.4968
   45CHL1   C21 5788   2.951   3.098   9.325  0.6804 -0.2352 -0.8195
   45CHL1  H21A 5789   2.908   3.015   9.384  0.5230  0.6872  0.3736
   45CHL1  H21B 5790   2.914   3.093   9.220 -1.3044  0.5141 -0.1671
   45CHL1  H21C 5791   2.912   3.197   9.356 -1.4391 -1.5647  0.8671
   45CHL1   C22 5792   3.154   3.017   9.221 -0.5981 -0.5375  0.0033
   45CHL1  H22A 5793   3.260   2.989   9.233 -1.6727 -3.6351  3.1715
   45CHL1  H22B 5794   3.119   2.911   9.220  2.6361 -1.6595 -1.8940
   45CHL1   C23 5795   3.142   3.083   9.076  0.5669  0.5880 -0.1775
   45CHL1  H23A 5796   3.032   3.086   9.059  0.2875 -0.8871  1.2438
   45CHL1  H23B 5797   3.176   3.187   9.092  1.5246  0.3522 -0.6206
   45CHL1   C24 5798   3.214   3.005   8.972  0.0972  0.1105 -0.0495
   45CHL1  H24A 5799   3.320   2.986   8.998 -0.1336 -0.7295  0.2858
   45CHL1  H24B 5800   3.166   2.905   8.964 -1.2822  0.8867 -1.9899
   45CHL1   C25 5801   3.208   3.062   8.829  1.0069  0.3303 -0.4124
   45CHL1   H25 5802   3.248   2.986   8.759  2.0339  0.7034 -0.2377
   45CHL1   C26 5803   3.063   3.087   8.785 -0.3221 -0.0590 -0.8389
   45CHL1  H26A 5804   3.063   3.136   8.686 -1.4458  0.5087 -0.5599
   45CHL1  H26B 5805   3.006   2.992   8.788  0.0665 -0.2554  0.8913
   45CHL1  H26C 5806   3.008   3.160   8.848  0.8284 -1.6596  2.1552
   45CHL1   C27 5807   3.290   3.185   8.821  0.4727 -0.1832 -0.2060
   45CHL1  H27A 5808   3.232   3.277   8.842  1.5877 -0.2957  3.8354
   45CHL1  H27B 5809   3.368   3.190   8.900  0.7033 -1.5132 -0.3390
   45CHL1  H27C 5810   3.336   3.172   8.721 -0.8358 -0.2994 -0.7996
   46CHL1    C3 5811   5.401   0.446  10.177  0.0914  1.1990  0.2788
   46CHL1    H3 5812   5.408   0.335  10.176 -1.2197  1.1024 -1.8450
   46CHL1    O3 5813   5.413   0.489  10.313 -0.1365 -0.0492  0.2733
   46CHL1   H3' 5814   5.426   0.584  10.318 -1.8788  0.1152  2.3139
   46CHL1    C4 5815   5.510   0.497  10.087  0.1418 -0.0532 -0.5527
   46CHL1   H4A 5816   5.516   0.607  10.095 -0.0097 -0.0317 -0.7287
   46CHL1   H4B 5817   5.606   0.452  10.122  1.6731  2.5736 -1.2942
   46CHL1    C5 5818   5.491   0.472   9.942 -0.3417 -0.0902 -0.2604
   46CHL1    C6 5819   5.587   0.422   9.866  0.1827 -0.5166 -0.3598
   46CHL1    H6 5820   5.684   0.401   9.913  0.2953  1.9825  0.6218
   46CHL1    C7 5821   5.576   0.410   9.716  0.5240  0.2467  0.0283
   46CHL1   H7A 5822   5.661   0.449   9.655  1.1271  1.0879  1.3961
   46CHL1   H7B 5823   5.572   0.300   9.702 -0.8296  0.3001 -0.0752
   46CHL1    C8 5824   5.458   0.476   9.646 -1.5334 -0.7113 -0.7766
   46CHL1    H8 5825   5.469   0.586   9.642 -1.7346 -0.4401  3.3533
   46CHL1   C14 5826   5.427   0.406   9.509 -0.0953 -0.2777 -0.0970
   46CHL1   H14 5827   5.399   0.306   9.548  0.1654  0.5763  2.3204
   46CHL1   C15 5828   5.535   0.387   9.402  0.4539 -0.2150 -0.2615
   46CHL1  H15A 5829   5.593   0.480   9.383  3.9065 -1.9176  1.5038
   46CHL1  H15B 5830   5.613   0.309   9.414  0.8571  0.2693  0.2481
   46CHL1   C16 5831   5.456   0.363   9.267 -0.2407  0.5509  0.2424
   46CHL1  H16A 5832   5.485   0.442   9.194  0.8449 -0.3866 -0.3516
   46CHL1  H16B 5833   5.480   0.261   9.230  0.8791  1.0686 -0.4964
   46CHL1   C17 5834   5.307   0.362   9.303  0.0650  0.1951  0.8535
   46CHL1   H17 5835   5.292   0.257   9.335  1.2407 -0.7730 -1.6156
   46CHL1   C13 5836   5.305   0.453   9.427  0.0340  0.2455 -0.0022
   46CHL1   C18 5837   5.329   0.605   9.389  0.5098 -0.2226  0.0942
   46CHL1  H18A 5838   5.418   0.620   9.323  1.8102 -1.4657  1.5393
   46CHL1  H18B 5839   5.238   0.651   9.344  0.9897  1.3214  0.6531
   46CHL1  H18C 5840   5.356   0.657   9.483 -1.0402  0.8983 -0.0694
   46CHL1   C12 5841   5.183   0.443   9.522  0.4362  0.2266 -0.7214
   46CHL1  H12A 5842   5.095   0.493   9.476  0.0231 -1.4572 -1.7898
   46CHL1  H12B 5843   5.168   0.337   9.550  0.7431  0.6874  1.3368
   46CHL1   C11 5844   5.206   0.507   9.664  0.0985 -0.8346 -0.5008
   46CHL1  H11A 5845   5.217   0.617   9.655  0.4957 -0.8846 -0.6675
   46CHL1  H11B 5846   5.116   0.491   9.726 -0.3034  1.0443 -0.5595
   46CHL1    C9 5847   5.331   0.456   9.736  0.5238 -0.6833  0.0885
   46CHL1    H9 5848   5.324   0.346   9.747 -1.4112 -0.7008 -1.0521
   46CHL1   C10 5849   5.352   0.509   9.880  0.2177 -0.6909  0.3504
   46CHL1   C19 5850   5.335   0.665   9.881  0.8512  0.0659 -0.0889
   46CHL1  H19A 5851   5.229   0.697   9.869  0.8265 -0.3532 -1.0450
   46CHL1  H19B 5852   5.364   0.703   9.981 -1.7716 -0.4831  0.9263
   46CHL1  H19C 5853   5.401   0.714   9.808 -1.2109 -0.5147 -2.4067
   46CHL1    C1 5854   5.243   0.445   9.975 -0.7371 -0.5021 -1.4897
   46CHL1   H1A 5855   5.145   0.492   9.953 -0.0035  0.4213 -2.8741
   46CHL1   H1B 5856   5.265   0.335   9.975  1.6687 -0.0664  0.4095
   46CHL1    C2 5857   5.266   0.487  10.122 -0.7922  0.2203  0.0237
   46CHL1   H2A 5858   5.199   0.433  10.192 -0.9769 -0.4253 -0.6546
   46CHL1   H2B 5859   5.252   0.597  10.137 -0.2491  0.1983  0.7236
   46CHL1   C20 5860   5.212   0.390   9.195 -0.4142  0.3185 -0.1662
   46CHL1   H20 5861   5.225   0.499   9.179  0.2979  0.1751 -0.5822
   46CHL1   C21 5862   5.066   0.342   9.223  0.4164  0.0526  0.1347
   46CHL1  H21A 5863   5.010   0.390   9.139 -0.5612  1.6502  1.6760
   46CHL1  H21B 5864   5.029   0.381   9.320  0.2682 -1.3383  0.6512
   46CHL1  H21C 5865   5.069   0.231   9.221  0.6636  0.0580  0.1910
   46CHL1   C22 5866   5.247   0.308   9.066 -0.0731 -0.2783  0.6637
   46CHL1  H22A 5867   5.348   0.344   9.037 -0.8933  0.6804 -1.0450
   46CHL1  H22B 5868   5.236   0.201   9.094  1.6506 -0.2727  1.4309
   46CHL1   C23 5869   5.158   0.326   8.935  0.5448 -0.2530 -0.8922
   46CHL1  H23A 5870   5.064   0.267   8.950  1.1725 -1.3650 -1.2697
   46CHL1  H23B 5871   5.126   0.431   8.917 -0.6471 -0.0978  1.7875
   46CHL1   C24 5872   5.231   0.292   8.801  0.3909  0.6960  0.2261
   46CHL1  H24A 5873   5.151   0.309   8.726 -0.5951  1.5397  1.4519
   46CHL1  H24B 5874   5.297   0.379   8.780 -1.9305  2.2039 -1.1400
   46CHL1   C25 5875   5.300   0.153   8.790  0.6937  0.4864  0.3526
   46CHL1   H25 5876   5.364   0.129   8.877 -1.2830 -4.1102  0.6465
   46CHL1   C26 5877   5.185   0.046   8.778  0.1324 -1.2877  0.1894
   46CHL1  H26A 5878   5.224  -0.047   8.730  0.5740 -0.9560 -0.0898
   46CHL1  H26B 5879   5.144   0.003   8.872 -1.5363  1.1133  0.5992
   46CHL1  H26C 5880   5.104   0.092   8.716  0.0284 -2.1752 -0.3451
   46CHL1   C27 5881   5.385   0.160   8.661 -0.5012 -0.3392 -0.2649
   46CHL1  H27A 5882   5.456   0.075   8.665 -0.9299 -0.6352  1.8817
   46CHL1  H27B 5883   5.316   0.147   8.574  1.7957  2.1362 -2.5063
   46CHL1  H27C 5884   5.446   0.251   8.647 -0.3823 -0.4573 -0.5310
   47CHL1    C3 5885   6.507   4.487   9.889  0.9823  0.2753  0.4626
   47CHL1    H3 5886   6.614   4.466   9.865  1.3074  2.2578  0.0757
   47CHL1    O3 5887   6.477   4.474  10.023 -0.4605  0.5662 -0.3031
   47CHL1   H3' 5888   6.507   4.388  10.054  0.8941  0.5141 -1.7286
   47CHL1    C4 5889   6.494   4.629   9.841  0.1202 -0.5287  0.6122
   47CHL1   H4A 5890   6.393   4.670   9.863 -0.6694 -1.5546 -0.9853
   47CHL1   H4B 5891   6.569   4.682   9.903 -2.0761  4.1860 -0.4947
   47CHL1    C5 5892   6.517   4.643   9.691  0.3174  0.2055 -0.3775
   47CHL1    C6 5893   6.610   4.729   9.633  0.0441  0.2550  0.0765
   47CHL1    H6 5894   6.667   4.790   9.705  3.5485 -2.4637 -0.2331
   47CHL1    C7 5895   6.633   4.758   9.487  0.0744  0.0543  0.0959
   47CHL1   H7A 5896   6.643   4.863   9.451  0.8975  0.1628  0.6319
   47CHL1   H7B 5897   6.728   4.706   9.462 -0.3310 -0.2940 -0.7601
   47CHL1    C8 5898   6.522   4.691   9.404  0.1414 -0.0922 -0.0498
   47CHL1    H8 5899   6.430   4.753   9.406 -2.4321 -3.6983 -1.6429
   47CHL1   C14 5900   6.564   4.684   9.258  0.3894 -0.0261  0.0302
   47CHL1   H14 5901   6.651   4.615   9.250  2.4474  2.6847 -1.9273
   47CHL1   C15 5902   6.636   4.797   9.180 -0.0004 -0.7000 -0.2009
   47CHL1  H15A 5903   6.571   4.887   9.186  1.0243  0.0117  0.5095
   47CHL1  H15B 5904   6.739   4.830   9.206  0.7456 -2.2371 -1.1749
   47CHL1   C16 5905   6.633   4.756   9.029  0.1330 -0.2520 -0.0515
   47CHL1  H16A 5906   6.603   4.853   8.984  0.2471  1.2646  2.9433
   47CHL1  H16B 5907   6.732   4.730   8.985 -0.1820  0.1473 -0.9856
   47CHL1   C17 5908   6.537   4.631   9.023  0.0343  0.1535  0.5199
   47CHL1   H17 5909   6.601   4.540   9.034 -1.8714 -1.1327  1.2391
   47CHL1   C13 5910   6.459   4.630   9.160  0.5352 -0.0589 -0.3494
   47CHL1   C18 5911   6.343   4.731   9.152  0.1671  0.0974 -0.0640
   47CHL1  H18A 5912   6.384   4.833   9.135 -1.9271  0.8144 -0.9494
   47CHL1  H18B 5913   6.269   4.720   9.071  0.1297  0.2917 -0.0589
   47CHL1  H18C 5914   6.286   4.732   9.248  0.7705 -2.0416  0.3296
   47CHL1   C12 5915   6.420   4.488   9.202  0.1056  0.1085 -0.0675
   47CHL1  H12A 5916   6.341   4.443   9.137 -0.8838 -0.0414  1.2116
   47CHL1  H12B 5917   6.508   4.422   9.193  1.2922  1.6858 -0.3042
   47CHL1   C11 5918   6.377   4.489   9.351  0.0932 -0.2488  1.0104
   47CHL1  H11A 5919   6.278   4.539   9.360 -1.0847 -1.9633 -1.9441
   47CHL1  H11B 5920   6.359   4.385   9.387 -2.1703 -0.6000 -1.0133
   47CHL1    C9 5921   6.474   4.550   9.456 -0.7119  0.4200 -0.6722
   47CHL1    H9 5922   6.569   4.492   9.450 -0.9842 -0.1734  0.5977
   47CHL1   C10 5923   6.430   4.548   9.603 -0.2343  0.4373 -1.0530
   47CHL1   C19 5924   6.278   4.591   9.610 -0.1888  0.0035 -0.5330
   47CHL1  H19A 5925   6.220   4.525   9.543  0.1208  0.2913 -1.0876
   47CHL1  H19B 5926   6.245   4.578   9.715 -0.8886 -3.4497 -1.1125
   47CHL1  H19C 5927   6.274   4.692   9.565  0.4585  0.0666 -0.4558
   47CHL1    C1 5928   6.446   4.410   9.658 -0.0308  0.0462  1.1275
   47CHL1   H1A 5929   6.370   4.346   9.608  1.1250 -0.9393  0.5975
   47CHL1   H1B 5930   6.550   4.376   9.636  0.1907  0.8960  0.8477
   47CHL1    C2 5931   6.415   4.396   9.808  0.1999  0.2798 -0.6268
   47CHL1   H2A 5932   6.419   4.290   9.839 -0.1441  0.0694 -1.2875
   47CHL1   H2B 5933   6.310   4.420   9.838 -0.1203 -0.9421 -0.7440
   47CHL1   C20 5934   6.465   4.640   8.888 -0.4646 -0.0642 -0.1369
   47CHL1   H20 5935   6.418   4.740   8.878  2.1183  1.1192 -1.1627
   47CHL1   C21 5936   6.358   4.527   8.872 -0.0553 -0.1684 -0.2415
   47CHL1  H21A 5937   6.316   4.534   8.769  1.0310 -1.1388 -0.7726
   47CHL1  H21B 5938   6.283   4.558   8.948  0.6840  0.5844  0.1859
   47CHL1  H21C 5939   6.385   4.423   8.901  0.9534  0.3816  0.8500
   47CHL1   C22 5940   6.565   4.631   8.766  0.1890 -0.1694 -0.4229
   47CHL1  H22A 5941   6.514   4.643   8.668 -1.5266 -0.7078  0.3864
   47CHL1  H22B 5942   6.634   4.719   8.767  2.0872 -1.6410  0.1743
   47CHL1   C23 5943   6.636   4.495   8.758  0.0528 -0.0153 -0.6655
   47CHL1  H23A 5944   6.667   4.471   8.862 -1.0348  0.2898 -0.2732
   47CHL1  H23B 5945   6.563   4.424   8.713  0.3325 -1.2482  0.8084
   47CHL1   C24 5946   6.767   4.496   8.686 -0.2770  0.0873  0.1882
   47CHL1  H24A 5947   6.760   4.519   8.577  0.3611 -1.2170 -0.1372
   47CHL1  H24B 5948   6.826   4.581   8.725  2.6598 -2.4064  1.3877
   47CHL1   C25 5949   6.857   4.371   8.711 -0.1970 -0.6494  1.0529
   47CHL1   H25 5950   6.864   4.370   8.822  1.8783 -2.7503  0.9460
   47CHL1   C26 5951   6.787   4.241   8.666 -0.5191 -0.7174 -0.3701
   47CHL1  H26A 5952   6.853   4.153   8.680  0.4807 -0.2000 -1.7177
   47CHL1  H26B 5953   6.767   4.238   8.557 -1.8696 -0.3968 -0.1375
   47CHL1  H26C 5954   6.690   4.222   8.716 -0.3197 -0.5446  0.0848
   47CHL1   C27 5955   7.002   4.391   8.650  0.4696  0.2069  0.2062
   47CHL1  H27A 5956   7.052   4.485   8.680 -2.1997  1.5472  0.5350
   47CHL1  H27B 5957   7.058   4.299   8.676 -0.5950 -1.1781 -2.1717
   47CHL1  H27C 5958   6.987   4.392   8.539  2.3402  0.5100 -0.0586
   48CHL1    C3 5959   0.649   5.492  10.088  0.5236 -1.6421  0.2214
   48CHL1    H3 5960   0.556   5.540  10.051  1.0118 -0.1931  0.8270
   48CHL1    O3 5961   0.628   5.481  10.233 -0.0515  0.1611  0.6075
   48CHL1   H3' 5962   0.694   5.416  10.258  1.0097  1.1169  0.3161
   48CHL1    C4 5963   0.650   5.354  10.022 -0.7983  0.5181  0.3019
   48CHL1   H4A 5964   0.738   5.293  10.050 -1.1771 -0.5200 -0.7043
   48CHL1   H4B 5965   0.565   5.290  10.052 -2.0285  1.2616 -1.5130
   48CHL1    C5 5966   0.649   5.371   9.865 -0.0138 -0.0217 -0.2311
   48CHL1    C6 5967   0.567   5.303   9.790  1.0884  0.2076  0.6348
   48CHL1    H6 5968   0.504   5.226   9.838  0.5626 -1.5242 -2.6503
   48CHL1    C7 5969   0.566   5.316   9.640  0.4708 -0.6421  0.2144
   48CHL1   H7A 5970   0.555   5.221   9.583  0.0363 -0.3166 -0.2529
   48CHL1   H7B 5971   0.487   5.389   9.612  1.0955 -1.1541 -3.1150
   48CHL1    C8 5972   0.682   5.399   9.572  0.0947 -0.5220 -0.3103
   48CHL1    H8 5973   0.765   5.327   9.557 -0.8357 -1.0869 -3.0872
   48CHL1   C14 5974   0.648   5.452   9.436  0.2433  0.5344  0.2917
   48CHL1   H14 5975   0.567   5.527   9.451 -1.6893 -1.6155  0.9345
   48CHL1   C15 5976   0.576   5.352   9.342 -0.4682  0.1077  0.6360
   48CHL1  H15A 5977   0.631   5.258   9.323 -1.4349 -0.6872  1.7371
   48CHL1  H15B 5978   0.471   5.323   9.365  0.9312 -4.1976  1.9838
   48CHL1   C16 5979   0.593   5.427   9.212  0.3495 -0.2635 -0.6528
   48CHL1  H16A 5980   0.643   5.362   9.137  1.6122  0.6538 -0.6180
   48CHL1  H16B 5981   0.494   5.451   9.168  0.1290 -0.0866 -0.0630
   48CHL1   C17 5982   0.693   5.547   9.233  0.6570  0.0588 -0.7096
   48CHL1   H17 5983   0.630   5.636   9.254  0.3840 -0.4519  0.6919
   48CHL1   C13 5984   0.768   5.522   9.362 -0.0847 -0.3362 -0.9011
   48CHL1   C18 5985   0.886   5.427   9.339 -0.1010  0.5337  0.0979
   48CHL1  H18A 5986   0.974   5.476   9.294 -1.8914  2.1459 -1.7410
   48CHL1  H18B 5987   0.914   5.376   9.434 -1.4427 -1.5062 -0.5684
   48CHL1  H18C 5988   0.858   5.343   9.271 -1.5334  0.4240  0.8019
   48CHL1   C12 5989   0.806   5.645   9.448  0.7187 -0.1397 -0.2124
   48CHL1  H12A 5990   0.892   5.706   9.412  0.9610  0.3481  1.1418
   48CHL1  H12B 5991   0.711   5.701   9.461  1.3742  1.1267 -0.7778
   48CHL1   C11 5992   0.843   5.597   9.600 -0.7028  0.4630  0.6092
   48CHL1  H11A 5993   0.939   5.541   9.591 -0.4576  0.8038  1.1240
   48CHL1  H11B 5994   0.843   5.694   9.653 -0.6515  1.8620 -1.8353
   48CHL1    C9 5995   0.726   5.514   9.669  0.3839 -0.3207  0.5929
   48CHL1    H9 5996   0.643   5.587   9.676  1.6719  1.0191  2.3022
   48CHL1   C10 5997   0.755   5.474   9.814 -0.7408  0.5437 -0.2530
   48CHL1   C19 5998   0.892   5.409   9.822  0.0775  0.7379  0.2826
   48CHL1  H19A 5999   0.907   5.362   9.921  1.4828 -1.0641 -0.7514
   48CHL1  H19B 6000   0.913   5.327   9.750  2.8484  0.7591  1.0070
   48CHL1  H19C 6001   0.964   5.494   9.817  0.2774  0.5197 -0.7878
   48CHL1    C1 6002   0.765   5.604   9.911  0.1292  0.2340  0.6106
   48CHL1   H1A 6003   0.861   5.654   9.887 -0.8624  0.4839 -3.2000
   48CHL1   H1B 6004   0.686   5.674   9.876  0.1920 -0.9304 -2.0270
   48CHL1    C2 6005   0.768   5.574  10.061 -0.0689 -0.5753  0.1724
   48CHL1   H2A 6006   0.759   5.666  10.123  1.8416 -0.8118  0.8398
   48CHL1   H2B 6007   0.860   5.514  10.079 -0.4635 -1.3811 -0.4882
   48CHL1   C20 6008   0.768   5.588   9.107  0.2091 -0.5545 -0.3607
   48CHL1   H20 6009   0.829   5.497   9.088 -1.5756 -1.6862 -0.8206
   48CHL1   C21 6010   0.853   5.709   9.118 -0.0085 -0.0217 -0.1527
   48CHL1  H21A 6011   0.918   5.729   9.030 -0.6327 -0.8534 -0.8088
   48CHL1  H21B 6012   0.926   5.696   9.201 -1.1812  0.4164  0.9687
   48CHL1  H21C 6013   0.794   5.796   9.156 -1.1633 -1.2332  0.8722
   48CHL1   C22 6014   0.667   5.618   8.980 -0.2555  1.3084  0.0559
   48CHL1  H22A 6015   0.568   5.568   8.991 -0.1409  0.2983 -2.9258
   48CHL1  H22B 6016   0.657   5.728   8.984 -1.3190  1.2304 -0.5242
   48CHL1   C23 6017   0.738   5.561   8.847  0.4920  0.0363 -0.4113
   48CHL1  H23A 6018   0.833   5.618   8.848 -0.5007  1.7434 -0.8063
   48CHL1  H23B 6019   0.760   5.452   8.844  1.6945  0.2856 -0.9765
   48CHL1   C24 6020   0.668   5.625   8.725 -0.1960 -0.1965  1.3242
   48CHL1  H24A 6021   0.558   5.625   8.741 -0.2741  4.3457  1.2145
   48CHL1  H24B 6022   0.690   5.733   8.718  0.2473 -0.3567 -0.0591
   48CHL1   C25 6023   0.692   5.550   8.598  0.2670  0.1807 -0.0536
   48CHL1   H25 6024   0.665   5.444   8.615  1.3856  0.0393  0.9138
   48CHL1   C26 6025   0.605   5.613   8.491 -0.4982 -0.0922 -0.5714
   48CHL1  H26A 6026   0.633   5.569   8.393 -0.4246  0.3462 -0.7487
   48CHL1  H26B 6027   0.497   5.593   8.505 -0.5322  0.6474  0.2937
   48CHL1  H26C 6028   0.625   5.721   8.474 -0.8955 -0.0239 -0.6079
   48CHL1   C27 6029   0.839   5.549   8.556  0.3440 -0.0785  0.1279
   48CHL1  H27A 6030   0.853   5.499   8.458  0.9050 -3.1390  1.6882
   48CHL1  H27B 6031   0.890   5.648   8.562  0.8695 -0.4245  1.6348
   48CHL1  H27C 6032   0.885   5.482   8.632 -2.6278 -0.3231  1.7770
   49CHL1    C3 6033   4.536   6.791  10.270 -0.9381  0.0849 -0.3522
   49CHL1    H3 6034   4.635   6.759  10.309 -0.6963  1.2290 -0.0098
   49CHL1    O3 6035   4.434   6.809  10.367  0.3442  0.5225  0.7343
   49CHL1   H3' 6036   4.455   6.739  10.430 -1.9289 -0.8141  0.0727
   49CHL1    C4 6037   4.567   6.924  10.196 -0.0451 -0.5008 -0.5943
   49CHL1   H4A 6038   4.469   6.970  10.170  0.2923  1.0219  0.7481
   49CHL1   H4B 6039   4.618   6.994  10.267 -0.0736 -1.0996  0.0221
   49CHL1    C5 6040   4.662   6.908  10.082 -0.3186  0.5126 -0.2504
   49CHL1    C6 6041   4.777   6.981  10.067 -0.1540  0.6492  0.0091
   49CHL1    H6 6042   4.796   7.055  10.146 -0.2409  1.9489 -1.1725
   49CHL1    C7 6043   4.869   6.970   9.948 -0.3227  0.5650  0.0765
   49CHL1   H7A 6044   4.900   7.070   9.910  0.5382  0.4912  0.5766
   49CHL1   H7B 6045   4.962   6.917   9.979  0.1110  1.4685  0.3100
   49CHL1    C8 6046   4.804   6.897   9.823  0.7550  0.2625  0.0307
   49CHL1    H8 6047   4.727   6.964   9.780 -1.0943 -1.1123  1.1004
   49CHL1   C14 6048   4.910   6.862   9.723 -0.6534 -0.0697  1.4719
   49CHL1   H14 6049   4.982   6.791   9.769 -0.9064 -3.5718 -3.1512
   49CHL1   C15 6050   5.006   6.969   9.661 -0.6802 -0.4292  0.4108
   49CHL1  H15A 6051   4.961   7.068   9.641 -0.0781 -0.3120 -0.4159
   49CHL1  H15B 6052   5.092   6.986   9.729 -0.5591  1.5576 -0.2041
   49CHL1   C16 6053   5.063   6.905   9.529 -0.2408 -0.4269  0.3229
   49CHL1  H16A 6054   5.027   6.972   9.449  2.3213 -0.2064 -0.6964
   49CHL1  H16B 6055   5.172   6.883   9.533 -0.0735  0.4217  0.7322
   49CHL1   C17 6056   4.987   6.772   9.518  0.0293  0.1629 -0.2143
   49CHL1   H17 6057   5.043   6.694   9.574  2.0644  0.6164 -1.5555
   49CHL1   C13 6058   4.855   6.789   9.604  0.3927 -0.4135  0.3041
   49CHL1   C18 6059   4.755   6.874   9.537  1.0364  0.3066 -0.2123
   49CHL1  H18A 6060   4.710   6.814   9.455  1.3674  0.6609 -0.6611
   49CHL1  H18B 6061   4.668   6.904   9.599  1.1426 -0.0394  0.1076
   49CHL1  H18C 6062   4.802   6.964   9.490 -3.3100  2.0247 -1.4971
   49CHL1   C12 6063   4.789   6.657   9.653 -0.7537 -0.5432  0.3074
   49CHL1  H12A 6064   4.759   6.600   9.563 -1.9348 -0.3287  0.5628
   49CHL1  H12B 6065   4.848   6.583   9.712 -0.3722  1.1643  2.1130
   49CHL1   C11 6066   4.677   6.686   9.747 -0.4638  0.3717  0.4915
   49CHL1  H11A 6067   4.591   6.733   9.695 -1.0334 -0.7733  0.3574
   49CHL1  H11B 6068   4.641   6.587   9.782  0.7340 -0.9590 -1.8647
   49CHL1    C9 6069   4.722   6.771   9.870  0.0842  0.0313  0.4628
   49CHL1    H9 6070   4.798   6.701   9.912  1.4007 -0.2731 -2.3630
   49CHL1   C10 6071   4.614   6.798   9.977  1.0423  0.3828 -0.1423
   49CHL1   C19 6072   4.490   6.846   9.904  0.3552 -1.4997  0.3551
   49CHL1  H19A 6073   4.429   6.766   9.857 -0.3524 -0.5710 -0.3114
   49CHL1  H19B 6074   4.428   6.904   9.976  1.0818 -1.1323  0.6945
   49CHL1  H19C 6075   4.524   6.925   9.834 -0.0818 -2.2771 -0.7329
   49CHL1    C1 6076   4.573   6.668  10.052 -0.8532  0.1203 -0.5636
   49CHL1   H1A 6077   4.532   6.586   9.989 -1.9309 -0.4088  0.8168
   49CHL1   H1B 6078   4.668   6.619  10.083 -0.9042 -1.2272 -2.4765
   49CHL1    C2 6079   4.480   6.688  10.172  0.2821  0.4458  0.0784
   49CHL1   H2A 6080   4.481   6.590  10.224  0.3046  0.2775 -0.2401
   49CHL1   H2B 6081   4.378   6.714  10.136 -0.9324 -0.2665  2.9125
   49CHL1   C20 6082   4.973   6.711   9.375  0.2984  0.0681 -0.2959
   49CHL1   H20 6083   4.916   6.618   9.391  2.0511 -0.9318  0.2519
   49CHL1   C21 6084   5.111   6.654   9.328  0.2354  0.0860 -0.6551
   49CHL1  H21A 6085   5.110   6.598   9.232 -1.9036 -1.7523  0.3877
   49CHL1  H21B 6086   5.151   6.591   9.409 -1.6192  1.0685  1.0671
   49CHL1  H21C 6087   5.180   6.740   9.317  0.3183  0.1827  0.6575
   49CHL1   C22 6088   4.905   6.793   9.259  0.6356 -0.0224 -0.2880
   49CHL1  H22A 6089   4.808   6.837   9.292 -0.3415 -2.7157  0.5302
   49CHL1  H22B 6090   4.978   6.868   9.221  0.4064  0.2365 -0.2209
   49CHL1   C23 6091   4.854   6.705   9.140 -0.2455  0.0960 -0.4130
   49CHL1  H23A 6092   4.933   6.649   9.084 -1.8364 -2.3531 -0.2899
   49CHL1  H23B 6093   4.783   6.633   9.185  0.6006  0.1726  1.0750
   49CHL1   C24 6094   4.759   6.788   9.057 -0.0021  0.2624  0.2057
   49CHL1  H24A 6095   4.652   6.758   9.055  0.0217  0.1381  0.6815
   49CHL1  H24B 6096   4.757   6.889   9.104  0.2592  0.7307 -0.7951
   49CHL1   C25 6097   4.812   6.790   8.916  0.2478 -0.1311  0.0871
   49CHL1   H25 6098   4.918   6.824   8.917  1.3680 -3.5302  1.5684
   49CHL1   C26 6099   4.789   6.658   8.842 -0.4543 -0.3465  0.7945
   49CHL1  H26A 6100   4.686   6.616   8.842 -1.9379  3.1050 -0.4959
   49CHL1  H26B 6101   4.819   6.676   8.736 -3.1859  0.9841  0.1883
   49CHL1  H26C 6102   4.850   6.584   8.899  0.7780  0.7460  0.9194
   49CHL1   C27 6103   4.744   6.907   8.835 -0.3716  0.2585  0.1066
   49CHL1  H27A 6104   4.791   6.932   8.738 -2.6442  2.7201 -0.4026
   49CHL1  H27B 6105   4.636   6.881   8.834  0.1140 -1.8685 -0.1969
   49CHL1  H27C 6106   4.749   7.000   8.895 -0.8594  0.9969 -0.9860
   50CHL1    C3 6107   1.978   2.710  10.092  0.3197 -0.0818 -0.3082
   50CHL1    H3 6108   2.084   2.735  10.114  0.4600  0.0532 -1.1088
   50CHL1    O3 6109   1.927   2.688  10.219 -0.2280 -0.7130 -0.8852
   50CHL1   H3' 6110   1.832   2.676  10.207 -0.0911  0.4403 -3.6430
   50CHL1    C4 6111   1.919   2.831  10.023  0.2584 -0.4015  0.9171
   50CHL1   H4A 6112   1.809   2.817  10.022  0.2329 -0.3246 -2.6233
   50CHL1   H4B 6113   1.950   2.918  10.085  2.2120 -0.8250  0.5602
   50CHL1    C5 6114   1.973   2.845   9.880 -0.6321  0.3018 -0.0277
   50CHL1    C6 6115   2.028   2.959   9.835  0.0183  0.5350  0.4884
   50CHL1    H6 6116   2.013   3.056   9.884  0.3137  0.0404  1.5583
   50CHL1    C7 6117   2.072   2.982   9.691  0.0621  0.5131  0.0131
   50CHL1   H7A 6118   2.033   3.077   9.649 -1.8029  0.1240  0.8084
   50CHL1   H7B 6119   2.183   2.975   9.684  0.1506  0.3717  1.3953
   50CHL1    C8 6120   2.008   2.873   9.598 -0.0613 -0.9354  0.2965
   50CHL1    H8 6121   1.902   2.895   9.575 -0.0185 -1.8708 -0.8690
   50CHL1   C14 6122   2.082   2.884   9.466  0.1798  0.2280  0.1662
   50CHL1   H14 6123   2.188   2.858   9.489  0.3569 -0.2837 -1.1436
   50CHL1   C15 6124   2.087   3.021   9.404  0.6576 -0.9542  1.0701
   50CHL1  H15A 6125   1.980   3.052   9.398  1.0266  0.3132  1.0778
   50CHL1  H15B 6126   2.158   3.091   9.453  1.2682 -0.8722  0.0875
   50CHL1   C16 6127   2.127   2.991   9.254 -0.7861  0.3229 -0.5727
   50CHL1  H16A 6128   2.065   3.055   9.188  1.2069  0.3062 -2.4787
   50CHL1  H16B 6129   2.236   3.013   9.250 -1.0877  1.6027 -2.1912
   50CHL1   C17 6130   2.118   2.838   9.237  0.4889  0.2342  0.0985
   50CHL1   H17 6131   2.219   2.791   9.247  0.8503  0.3180 -2.7479
   50CHL1   C13 6132   2.034   2.793   9.361 -0.4252 -0.4560 -0.7563
   50CHL1   C18 6133   1.889   2.812   9.319  0.1442  0.2380  0.4729
   50CHL1  H18A 6134   1.870   2.727   9.251  1.1411  1.1380 -0.9820
   50CHL1  H18B 6135   1.821   2.794   9.405  0.2885 -1.8164  0.1778
   50CHL1  H18C 6136   1.874   2.909   9.268 -1.0696  1.0307  2.2738
   50CHL1   C12 6137   2.062   2.650   9.416  0.8217 -0.3447  0.1525
   50CHL1  H12A 6138   2.029   2.567   9.351 -1.3113  1.1151 -0.6946
   50CHL1  H12B 6139   2.172   2.640   9.423  1.0833  0.8304 -1.7845
   50CHL1   C11 6140   1.999   2.625   9.552 -1.0585 -0.1133  0.4281
   50CHL1  H11A 6141   1.890   2.613   9.531 -1.1119  1.5506 -0.3182
   50CHL1  H11B 6142   2.028   2.525   9.591  1.1143 -0.0774 -1.0279
   50CHL1    C9 6143   2.025   2.736   9.662  0.4607 -0.2705  0.6973
   50CHL1    H9 6144   2.132   2.719   9.683  0.3363 -1.2944  0.5109
   50CHL1   C10 6145   1.958   2.714   9.790  0.2332 -0.0362 -0.3575
   50CHL1   C19 6146   1.804   2.693   9.771  0.6353 -0.4138 -0.3813
   50CHL1  H19A 6147   1.777   2.593   9.731 -0.6461  0.0361 -0.6657
   50CHL1  H19B 6148   1.744   2.702   9.864  0.7064  0.2207 -0.3979
   50CHL1  H19C 6149   1.773   2.769   9.697 -2.9014  0.5594  1.9377
   50CHL1    C1 6150   2.023   2.598   9.871  0.5807  0.1628 -0.1206
   50CHL1   H1A 6151   1.987   2.503   9.825  1.4268  0.0803 -0.6122
   50CHL1   H1B 6152   2.133   2.609   9.873  0.5860  0.2344 -0.9249
   50CHL1    C2 6153   1.975   2.582  10.019 -0.4942  0.0326  0.9854
   50CHL1   H2A 6154   2.045   2.514  10.071 -2.4134 -0.0853  3.5222
   50CHL1   H2B 6155   1.874   2.534  10.016 -0.3076 -0.2420 -1.8891
   50CHL1   C20 6156   2.074   2.800   9.095 -0.4687 -0.0817 -0.5142
   50CHL1   H20 6157   1.974   2.843   9.073 -0.7493 -1.6616 -2.4698
   50CHL1   C21 6158   2.072   2.653   9.087  0.0130  0.6100 -0.5638
   50CHL1  H21A 6159   2.170   2.606   9.109 -0.6261 -0.6455 -0.3260
   50CHL1  H21B 6160   2.050   2.623   8.982 -1.0661  3.0857 -1.0839
   50CHL1  H21C 6161   2.000   2.597   9.150  1.8987 -1.4863 -0.2234
   50CHL1   C22 6162   2.170   2.864   8.985 -0.2624 -0.4980 -1.0222
   50CHL1  H22A 6163   2.194   2.968   9.016 -2.4003 -0.3138  0.0853
   50CHL1  H22B 6164   2.264   2.805   8.983 -0.5739 -1.0148 -0.4224
   50CHL1   C23 6165   2.117   2.871   8.837  0.1703  0.0277 -0.2184
   50CHL1  H23A 6166   2.110   2.765   8.803  0.4562  0.9071 -3.1438
   50CHL1  H23B 6167   2.012   2.907   8.850  1.0521  1.9196  2.1300
   50CHL1   C24 6168   2.209   2.949   8.745  0.3825  0.3199 -0.1047
   50CHL1  H24A 6169   2.146   2.969   8.655  3.2355 -1.6456 -2.6310
   50CHL1  H24B 6170   2.226   3.042   8.803 -1.6077 -0.4372  1.7613
   50CHL1   C25 6171   2.340   2.879   8.706 -1.0131 -0.3565  0.2371
   50CHL1   H25 6172   2.383   2.853   8.804  0.8658  1.8632  0.0403
   50CHL1   C26 6173   2.325   2.746   8.635 -0.3555 -0.8446  0.5599
   50CHL1  H26A 6174   2.432   2.723   8.615 -0.1303  1.7816 -1.5099
   50CHL1  H26B 6175   2.267   2.676   8.699 -3.6641  1.1595 -0.1593
   50CHL1  H26C 6176   2.263   2.746   8.543  0.9092  1.0904 -0.3180
   50CHL1   C27 6177   2.420   2.978   8.619 -0.4577 -0.4722  0.5426
   50CHL1  H27A 6178   2.416   3.081   8.663 -0.0271 -1.6243  3.3811
   50CHL1  H27B 6179   2.523   2.939   8.607  0.8275  3.3670 -1.9152
   50CHL1  H27C 6180   2.374   2.991   8.519 -1.1542  2.9037  1.2358
   51CHL1    C3 6181   2.937   5.048  10.360 -0.1184  0.5386  0.0570
   51CHL1    H3 6182   2.838   5.090  10.333  0.9671  1.0282 -3.4303
   51CHL1    O3 6183   2.964   5.018  10.490  0.2080  0.2573 -0.4537
   51CHL1   H3' 6184   3.059   5.022  10.504  0.1793 -1.1415  0.2513
   51CHL1    C4 6185   2.972   4.921  10.278 -0.2968 -0.2645 -0.4518
   51CHL1   H4A 6186   3.075   4.887  10.304  0.8164  2.7123 -0.7297
   51CHL1   H4B 6187   2.905   4.838  10.310 -1.1648 -0.1532 -1.9210
   51CHL1    C5 6188   2.956   4.958  10.131  0.0430  0.7229 -0.1537
   51CHL1    C6 6189   2.866   4.894  10.055  0.4160  0.8242  0.0677
   51CHL1    H6 6190   2.798   4.821  10.102  1.5551 -0.6228 -0.4933
   51CHL1    C7 6191   2.854   4.910   9.909 -0.1232  0.3894 -0.3244
   51CHL1   H7A 6192   2.831   4.810   9.865  0.2696 -1.5073  3.5479
   51CHL1   H7B 6193   2.768   4.976   9.888 -0.4210  0.5324  1.3083
   51CHL1    C8 6194   2.974   4.979   9.839 -0.0568 -0.2815  0.3472
   51CHL1    H8 6195   3.052   4.900   9.843  1.2708  0.9042 -1.2358
   51CHL1   C14 6196   2.942   5.032   9.698  0.5275  0.0983  0.3407
   51CHL1   H14 6197   2.853   5.098   9.712  0.3291  0.0326 -0.5577
   51CHL1   C15 6198   2.890   4.928   9.596  0.5486  0.9882 -0.0758
   51CHL1  H15A 6199   2.952   4.836   9.599  0.7116  1.1098  0.2982
   51CHL1  H15B 6200   2.788   4.903   9.632  0.8344 -1.6492 -0.9274
   51CHL1   C16 6201   2.910   4.999   9.461 -0.5785  0.1080 -0.7187
   51CHL1  H16A 6202   2.968   4.946   9.383  0.4218  0.9243 -0.5354
   51CHL1  H16B 6203   2.805   5.016   9.427 -1.3916 -1.6145  0.8197
   51CHL1   C17 6204   2.985   5.136   9.495 -0.8016  0.1831 -0.1432
   51CHL1   H17 6205   2.914   5.217   9.519  1.2572  2.0579 -0.2651
   51CHL1   C13 6206   3.054   5.113   9.626  0.8097  0.1493  0.7863
   51CHL1   C18 6207   3.177   5.026   9.607 -0.3397 -0.1795 -0.6951
   51CHL1  H18A 6208   3.223   4.993   9.703  0.2617  0.3955 -0.7820
   51CHL1  H18B 6209   3.163   4.934   9.546  0.4572 -0.0107 -1.1302
   51CHL1  H18C 6210   3.266   5.075   9.562 -0.4134  1.6092  1.0238
   51CHL1   C12 6211   3.099   5.227   9.722 -0.3715 -0.0881 -0.1138
   51CHL1  H12A 6212   3.192   5.275   9.685 -2.7509  2.9366 -2.4345
   51CHL1  H12B 6213   3.016   5.301   9.724  0.9611  1.4204  2.0215
   51CHL1   C11 6214   3.130   5.185   9.864  0.5884  0.7139 -0.5203
   51CHL1  H11A 6215   3.223   5.124   9.858 -0.4989 -1.4230  2.8447
   51CHL1  H11B 6216   3.161   5.270   9.928 -0.4040  0.2798  0.5584
   51CHL1    C9 6217   3.015   5.095   9.925  0.1942  0.3831 -0.8812
   51CHL1    H9 6218   2.931   5.168   9.920  2.4957  3.2019  0.0320
   51CHL1   C10 6219   3.045   5.063  10.074  0.1181  0.8820  1.1540
   51CHL1   C19 6220   3.193   5.014  10.083  0.2310 -0.5432  0.2626
   51CHL1  H19A 6221   3.266   5.092  10.054  0.7741 -0.7057  1.1538
   51CHL1  H19B 6222   3.218   4.980  10.186 -0.2277 -2.0393 -0.1005
   51CHL1  H19C 6223   3.201   4.920  10.024 -0.3704 -0.3024 -0.2024
   51CHL1    C1 6224   3.034   5.188  10.166  0.1561 -0.7045  0.0806
   51CHL1   H1A 6225   3.124   5.250  10.146 -0.1256 -0.0068  0.9182
   51CHL1   H1B 6226   2.944   5.244  10.133  0.4669 -0.2132  0.0590
   51CHL1    C2 6227   3.039   5.159  10.317 -0.6765 -0.0408  0.9269
   51CHL1   H2A 6228   3.007   5.252  10.369  0.8366 -0.2261  2.2163
   51CHL1   H2B 6229   3.143   5.144  10.354 -0.4042  2.1097  1.1149
   51CHL1   C20 6230   3.073   5.191   9.380  0.2224  0.4340 -0.1800
   51CHL1   H20 6231   3.152   5.114   9.370  2.2089  2.6090 -1.7275
   51CHL1   C21 6232   3.121   5.334   9.408 -0.2015  0.5011  0.2092
   51CHL1  H21A 6233   3.193   5.342   9.492  0.4064  0.7524 -0.3280
   51CHL1  H21B 6234   3.047   5.414   9.426  0.7508  1.2592  0.8301
   51CHL1  H21C 6235   3.175   5.365   9.316 -0.4702 -0.3045 -0.2241
   51CHL1   C22 6236   3.000   5.180   9.241  0.1532  0.0863  0.3853
   51CHL1  H22A 6237   2.988   5.071   9.222  0.3726  0.1689 -0.2692
   51CHL1  H22B 6238   2.899   5.226   9.237  0.4987  0.7603 -4.5684
   51CHL1   C23 6239   3.082   5.221   9.118 -0.1035  0.3423 -0.0653
   51CHL1  H23A 6240   3.085   5.332   9.114 -1.0233  0.3473 -0.7632
   51CHL1  H23B 6241   3.185   5.182   9.120 -0.7983 -1.6365 -1.4033
   51CHL1   C24 6242   3.018   5.174   8.982 -0.0513 -0.0524 -0.0111
   51CHL1  H24A 6243   3.016   5.065   8.966  1.7067 -0.2950  1.2445
   51CHL1  H24B 6244   2.912   5.207   8.979 -0.0551 -0.2167 -2.2087
   51CHL1   C25 6245   3.063   5.252   8.861  0.0149  0.9443 -0.3112
   51CHL1   H25 6246   3.059   5.361   8.882  1.4712  1.5515 -2.9692
   51CHL1   C26 6247   3.207   5.216   8.824 -0.2469  0.2532  0.1218
   51CHL1  H26A 6248   3.201   5.113   8.784 -1.3427  0.5970 -0.6492
   51CHL1  H26B 6249   3.248   5.284   8.746  0.4890  0.0672  0.3432
   51CHL1  H26C 6250   3.274   5.232   8.911  1.0971  0.2472 -0.8977
   51CHL1   C27 6251   2.974   5.220   8.743  0.5251  1.1529  0.0249
   51CHL1  H27A 6252   3.005   5.283   8.657 -0.3034  2.2107  0.4818
   51CHL1  H27B 6253   2.977   5.114   8.709  0.5674  0.7253  1.3344
   51CHL1  H27C 6254   2.870   5.247   8.772  0.4380  0.3858  0.4241
   52CHL1    C3 6255   0.094   4.159   9.979 -0.5994  0.3972 -0.8010
   52CHL1    H3 6256   0.196   4.167   9.937 -0.1639  0.5840  0.2730
   52CHL1    O3 6257   0.093   4.175  10.118 -0.0142  0.6677  0.2343
   52CHL1   H3' 6258   0.015   4.127  10.147  0.5919 -0.5295 -0.0835
   52CHL1    C4 6259   0.009   4.266   9.912 -0.2256 -0.0264 -0.7470
   52CHL1   H4A 6260  -0.090   4.274   9.962 -1.0024 -0.6499 -2.1631
   52CHL1   H4B 6261   0.054   4.366   9.936 -1.3853 -0.1946  2.3346
   52CHL1    C5 6262  -0.013   4.233   9.772  0.2171 -0.3501 -0.5103
   52CHL1    C6 6263   0.036   4.316   9.683  0.0721 -0.1812  0.0662
   52CHL1    H6 6264   0.095   4.402   9.718 -0.3581 -1.8536  5.3576
   52CHL1    C7 6265   0.016   4.293   9.539  0.5474  0.1091 -0.2918
   52CHL1   H7A 6266  -0.009   4.393   9.499  2.8321  0.4885 -0.8448
   52CHL1   H7B 6267   0.112   4.274   9.486  1.8184  3.0219  0.8713
   52CHL1    C8 6268  -0.090   4.188   9.503  0.2774 -0.3764 -0.3010
   52CHL1    H8 6269  -0.189   4.238   9.504  1.6335  2.4860 -1.1170
   52CHL1   C14 6270  -0.072   4.152   9.356  0.2612 -0.1619 -0.4814
   52CHL1   H14 6271   0.022   4.094   9.345  1.4869  1.4713  1.1072
   52CHL1   C15 6272  -0.065   4.264   9.256  0.2097 -0.0475 -0.1865
   52CHL1  H15A 6273  -0.143   4.337   9.287 -0.9949 -1.5033  0.2790
   52CHL1  H15B 6274   0.036   4.310   9.255 -0.1112  0.6569 -1.5399
   52CHL1   C16 6275  -0.105   4.192   9.123 -0.0740 -0.3496 -0.4659
   52CHL1  H16A 6276  -0.175   4.262   9.072 -1.0082  0.2089  1.5511
   52CHL1  H16B 6277  -0.009   4.176   9.069 -0.2841  1.4792 -1.4274
   52CHL1   C17 6278  -0.161   4.054   9.167  0.3486 -0.1395  0.2553
   52CHL1   H17 6279  -0.066   3.998   9.156  1.0075  0.8156  0.9457
   52CHL1   C13 6280  -0.189   4.060   9.313 -0.4319 -0.2913  0.6728
   52CHL1   C18 6281  -0.335   4.118   9.329 -0.1918 -0.0430  0.2850
   52CHL1  H18A 6282  -0.355   4.216   9.280 -1.0149 -1.3318 -2.0498
   52CHL1  H18B 6283  -0.415   4.045   9.303  1.4949 -1.2953 -1.4739
   52CHL1  H18C 6284  -0.352   4.132   9.438 -1.7119 -0.6844  0.1449
   52CHL1   C12 6285  -0.177   3.929   9.396 -0.2598  0.2248 -0.4025
   52CHL1  H12A 6286  -0.237   3.846   9.353  0.3687  0.0113 -0.8680
   52CHL1  H12B 6287  -0.079   3.881   9.376  0.4662  2.2436 -1.8561
   52CHL1   C11 6288  -0.175   3.945   9.546  0.4696  0.8106 -0.0051
   52CHL1  H11A 6289  -0.279   3.954   9.585 -0.5904 -1.5104 -2.1486
   52CHL1  H11B 6290  -0.132   3.857   9.599 -0.3226  0.7687  0.5719
   52CHL1    C9 6291  -0.085   4.070   9.588 -0.6636 -0.6204  0.5038
   52CHL1    H9 6292   0.017   4.036   9.557 -0.8131  0.2465 -0.9639
   52CHL1   C10 6293  -0.081   4.098   9.734 -0.4740  0.0796 -0.0154
   52CHL1   C19 6294  -0.221   4.092   9.793  0.2761  0.0565  0.4243
   52CHL1  H19A 6295  -0.253   3.985   9.790  1.9578 -0.4798  0.7318
   52CHL1  H19B 6296  -0.227   4.114   9.902  1.2157  1.4625  0.1998
   52CHL1  H19C 6297  -0.290   4.143   9.723  0.9797 -1.0383 -1.0959
   52CHL1    C1 6298   0.010   3.992   9.810  0.0056 -0.0152 -0.1113
   52CHL1   H1A 6299  -0.046   3.896   9.801 -1.5668  0.9756 -1.1394
   52CHL1   H1B 6300   0.111   3.981   9.764 -0.7086 -1.2228 -1.4203
   52CHL1    C2 6301   0.030   4.025   9.958  0.3466  0.6869  0.1206
   52CHL1   H2A 6302   0.091   3.950  10.013 -1.2587 -0.2330  0.6856
   52CHL1   H2B 6303  -0.066   4.022  10.015  0.4616 -0.7126  0.2616
   52CHL1   C20 6304  -0.250   3.982   9.056 -0.1055 -0.0027 -0.4131
   52CHL1   H20 6305  -0.288   3.890   9.104  2.0500  0.0625  1.5070
   52CHL1   C21 6306  -0.159   3.929   8.937  0.0045  0.2223 -0.2777
   52CHL1  H21A 6307  -0.146   4.010   8.862 -1.5389  0.2203 -0.5549
   52CHL1  H21B 6308  -0.208   3.838   8.895  0.0793 -0.2557  0.6480
   52CHL1  H21C 6309  -0.059   3.887   8.963 -0.8614 -0.8520  1.4231
   52CHL1   C22 6310  -0.382   4.048   9.013 -0.3716  0.0837 -0.5426
   52CHL1  H22A 6311  -0.458   4.034   9.093  1.2011 -0.3237  0.9019
   52CHL1  H22B 6312  -0.364   4.157   9.000  0.8889 -0.1027 -0.4098
   52CHL1   C23 6313  -0.444   4.012   8.877  0.4879 -0.4893 -0.4798
   52CHL1  H23A 6314  -0.378   4.044   8.793  0.1264  1.5825  0.0147
   52CHL1  H23B 6315  -0.441   3.901   8.879  1.1043 -0.4965 -1.4055
   52CHL1   C24 6316  -0.591   4.055   8.865 -0.4988 -0.0809  0.4186
   52CHL1  H24A 6317  -0.646   3.994   8.940  0.3719 -0.4158  0.8065
   52CHL1  H24B 6318  -0.602   4.163   8.888 -2.5173  0.1899 -1.6792
   52CHL1   C25 6319  -0.645   4.019   8.722 -0.5157  0.7562 -0.0828
   52CHL1   H25 6320  -0.567   4.054   8.652 -0.1563 -0.0752 -0.1056
   52CHL1   C26 6321  -0.660   3.865   8.713 -0.2958  0.1308  0.4401
   52CHL1  H26A 6322  -0.558   3.823   8.722  0.3311  1.3088 -1.0054
   52CHL1  H26B 6323  -0.726   3.817   8.789 -1.2918 -1.2756 -1.2651
   52CHL1  H26C 6324  -0.693   3.833   8.612 -0.4866  0.0227  0.5369
   52CHL1   C27 6325  -0.783   4.089   8.697 -0.0515  0.3335  0.2252
   52CHL1  H27A 6326  -0.755   4.196   8.689  0.8656 -0.0388 -1.9293
   52CHL1  H27B 6327  -0.831   4.052   8.603  0.0206 -1.2187  0.7906
   52CHL1  H27C 6328  -0.845   4.067   8.787  0.0704 -1.5301 -0.1293
   53CHL1    C3 6329   0.614   3.458  10.156  0.1580 -0.4392  0.1420
   53CHL1    H3 6330   0.504   3.455  10.148 -0.0036  0.1100  1.8898
   53CHL1    O3 6331   0.667   3.442  10.289 -0.7709 -0.2624 -0.2817
   53CHL1   H3' 6332   0.761   3.456  10.280 -0.7308  0.6039  1.2335
   53CHL1    C4 6333   0.672   3.338  10.063 -0.2921 -0.1986 -0.0387
   53CHL1   H4A 6334   0.777   3.327  10.097 -0.5822  0.3167  1.0544
   53CHL1   H4B 6335   0.625   3.243  10.096 -0.5568 -1.2643 -3.3060
   53CHL1    C5 6336   0.676   3.343   9.912 -0.0282 -0.5687 -0.2418
   53CHL1    C6 6337   0.634   3.237   9.838  0.4194 -0.0663 -0.7420
   53CHL1    H6 6338   0.628   3.140   9.889 -0.7989 -0.9327 -2.5264
   53CHL1    C7 6339   0.612   3.242   9.695 -0.0838 -0.0406  0.4319
   53CHL1   H7A 6340   0.659   3.155   9.644  2.4322  0.4746  1.7338
   53CHL1   H7B 6341   0.504   3.253   9.673  0.2653  0.9878 -0.7928
   53CHL1    C8 6342   0.679   3.364   9.628 -0.0554 -0.1913 -0.3950
   53CHL1    H8 6343   0.785   3.333   9.616  0.4692  1.0925  0.7636
   53CHL1   C14 6344   0.635   3.387   9.487  0.6073 -0.1236  0.1210
   53CHL1   H14 6345   0.527   3.413   9.492  1.3669  3.5723 -0.9672
   53CHL1   C15 6346   0.641   3.264   9.388  0.1531 -0.3140 -0.0273
   53CHL1  H15A 6347   0.734   3.204   9.395  0.5909  0.5562  2.0718
   53CHL1  H15B 6348   0.561   3.189   9.409  0.2241  0.3993  3.1672
   53CHL1   C16 6349   0.619   3.322   9.249 -0.3195 -0.3770 -0.0599
   53CHL1  H16A 6350   0.696   3.290   9.175  0.9937  0.1659  1.0329
   53CHL1  H16B 6351   0.521   3.289   9.212 -0.8737  0.0310  1.0046
   53CHL1   C17 6352   0.636   3.478   9.266  0.1072  0.8552 -0.4112
   53CHL1   H17 6353   0.529   3.508   9.269  0.2382  1.4041 -1.0649
   53CHL1   C13 6354   0.702   3.496   9.407  0.0418 -0.6710  0.0764
   53CHL1   C18 6355   0.851   3.461   9.392 -0.6280  0.5893 -0.8094
   53CHL1  H18A 6356   0.865   3.356   9.357  0.0663  0.6348 -0.6755
   53CHL1  H18B 6357   0.903   3.522   9.314 -0.1638 -1.8886 -2.5114
   53CHL1  H18C 6358   0.895   3.473   9.493 -1.8226  0.0274 -0.2094
   53CHL1   C12 6359   0.680   3.628   9.485  0.1537 -0.1979  0.0942
   53CHL1  H12A 6360   0.736   3.710   9.435 -1.8745 -0.7447 -3.2076
   53CHL1  H12B 6361   0.577   3.666   9.499  0.3419  0.0592  0.8097
   53CHL1   C11 6362   0.732   3.617   9.633 -0.2242 -0.4310  0.3750
   53CHL1  H11A 6363   0.843   3.624   9.635 -0.2685  0.0161  1.3182
   53CHL1  H11B 6364   0.702   3.713   9.679 -0.1793 -0.3460  0.2267
   53CHL1    C9 6365   0.669   3.497   9.708 -0.3220  1.0729 -0.3341
   53CHL1    H9 6366   0.561   3.516   9.722 -0.0861  2.0495  0.2514
   53CHL1   C10 6367   0.715   3.486   9.849  0.7079  0.0722  0.7684
   53CHL1   C19 6368   0.871   3.507   9.864  0.6920  0.3204  0.3901
   53CHL1  H19A 6369   0.903   3.492   9.970 -1.6421 -0.8430  0.9636
   53CHL1  H19B 6370   0.934   3.446   9.796 -0.3800 -0.8485  0.4401
   53CHL1  H19C 6371   0.906   3.610   9.839 -0.5634  0.4948 -0.6915
   53CHL1    C1 6372   0.653   3.603   9.935 -0.1378  0.0627 -0.3002
   53CHL1   H1A 6373   0.689   3.703   9.905  3.5201 -1.1854 -0.2351
   53CHL1   H1B 6374   0.542   3.608   9.924 -0.3635 -1.2501  1.2064
   53CHL1    C2 6375   0.664   3.584  10.092 -0.0736  0.0818 -0.8025
   53CHL1   H2A 6376   0.616   3.670  10.144  2.5215  0.6548  0.6978
   53CHL1   H2B 6377   0.770   3.588  10.124 -0.3901 -2.5262  0.7113
   53CHL1   C20 6378   0.707   3.545   9.147 -0.2404  0.7931 -0.7732
   53CHL1   H20 6379   0.803   3.489   9.141  0.8422  2.6287 -1.1171
   53CHL1   C21 6380   0.731   3.699   9.163 -0.1085  0.1860 -0.2334
   53CHL1  H21A 6381   0.790   3.728   9.252 -0.8492  2.5104 -0.4689
   53CHL1  H21B 6382   0.634   3.753   9.170 -0.1627  0.2208 -1.1773
   53CHL1  H21C 6383   0.781   3.729   9.068  2.8556 -2.0505  0.5497
   53CHL1   C22 6384   0.636   3.528   9.018 -0.8769 -0.1494  0.2555
   53CHL1  H22A 6385   0.563   3.444   9.021 -0.0485 -0.9416 -1.1291
   53CHL1  H22B 6386   0.567   3.614   9.006  1.1274  1.2490 -1.5395
   53CHL1   C23 6387   0.727   3.516   8.893  0.1483  0.3003 -0.5035
   53CHL1  H23A 6388   0.794   3.605   8.885 -0.8904  1.4214  2.5288
   53CHL1  H23B 6389   0.793   3.428   8.909  1.0888  1.2933  1.1828
   53CHL1   C24 6390   0.635   3.510   8.775  0.0498  0.2588  0.3828
   53CHL1  H24A 6391   0.561   3.429   8.793  2.4707 -2.3193 -0.9772
   53CHL1  H24B 6392   0.574   3.603   8.767 -0.7862 -0.5075 -3.2669
   53CHL1   C25 6393   0.691   3.470   8.639  0.0479  0.0021  0.6577
   53CHL1   H25 6394   0.757   3.382   8.655  1.1226  0.8310  0.7881
   53CHL1   C26 6395   0.577   3.427   8.545  0.3040 -0.0946 -0.1490
   53CHL1  H26A 6396   0.510   3.515   8.546 -0.8293 -0.9527  0.1906
   53CHL1  H26B 6397   0.597   3.408   8.437  0.2655 -2.0363  0.1691
   53CHL1  H26C 6398   0.523   3.341   8.590  1.5167  0.3482  2.2297
   53CHL1   C27 6399   0.777   3.587   8.579 -0.2673  0.3536  1.0223
   53CHL1  H27A 6400   0.827   3.564   8.483  2.1006 -1.8088  2.7335
   53CHL1  H27B 6401   0.700   3.662   8.550 -1.6387 -0.9903  1.1137
   53CHL1  H27C 6402   0.848   3.618   8.659  2.4938  2.7183 -2.2112
   54CHL1    C3 6403   0.906   4.769  10.263  0.5366  0.1734  0.0396
   54CHL1    H3 6404   0.895   4.660  10.243 -2.4650  0.7260 -1.6935
   54CHL1    O3 6405   0.927   4.780  10.406 -0.7206  0.2077  0.2908
   54CHL1   H3' 6406   0.915   4.874  10.422  1.4944  0.1153  2.9480
   54CHL1    C4 6407   1.027   4.827  10.194  0.9943 -0.4369 -0.5443
   54CHL1   H4A 6408   1.041   4.934  10.220 -1.7747 -0.7099  2.4097
   54CHL1   H4B 6409   1.112   4.764  10.228 -0.7926 -2.5294  0.1671
   54CHL1    C5 6410   1.014   4.832  10.038 -0.1343  0.1518 -0.0862
   54CHL1    C6 6411   1.108   4.779   9.957 -0.1935 -0.3578 -0.1071
   54CHL1    H6 6412   1.194   4.733  10.006 -0.9370 -0.7887  0.7959
   54CHL1    C7 6413   1.096   4.783   9.807  0.2900 -0.2428 -0.0900
   54CHL1   H7A 6414   1.196   4.816   9.771  0.0988  2.4073  1.6648
   54CHL1   H7B 6415   1.068   4.677   9.786  1.7101 -1.0828  1.9998
   54CHL1    C8 6416   0.979   4.878   9.759  0.3803 -0.0517  0.0994
   54CHL1    H8 6417   1.015   4.983   9.763  1.2827 -0.0588 -4.6396
   54CHL1   C14 6418   0.949   4.837   9.615 -0.2233  0.7909 -0.4229
   54CHL1   H14 6419   0.899   4.738   9.625 -0.1172  0.3954 -3.2423
   54CHL1   C15 6420   1.066   4.813   9.525 -0.0421  0.6252 -0.0477
   54CHL1  H15A 6421   1.136   4.900   9.517  1.9953 -1.1088 -1.6634
   54CHL1  H15B 6422   1.128   4.725   9.551 -0.2719 -0.0917 -1.9014
   54CHL1   C16 6423   0.988   4.802   9.384 -0.3041  0.4417  0.5662
   54CHL1  H16A 6424   1.047   4.878   9.328 -1.8981  1.0068 -0.3668
   54CHL1  H16B 6425   0.997   4.701   9.340  0.8232  1.3879 -1.4331
   54CHL1   C17 6426   0.842   4.844   9.402 -0.2381 -0.4459  0.3057
   54CHL1   H17 6427   0.769   4.761   9.405  0.9104 -1.4665  1.0652
   54CHL1   C13 6428   0.843   4.917   9.542  0.2809 -0.2531 -0.4567
   54CHL1   C18 6429   0.888   5.069   9.542  0.4717  0.8387  0.1095
   54CHL1  H18A 6430   0.899   5.124   9.637 -1.8973  1.8746 -0.1856
   54CHL1  H18B 6431   0.978   5.069   9.476 -0.2771 -0.7465 -0.9736
   54CHL1  H18C 6432   0.816   5.134   9.488 -1.3357  1.7264  3.4654
   54CHL1   C12 6433   0.711   4.911   9.618  0.5280  0.3546  0.2838
   54CHL1  H12A 6434   0.648   5.000   9.599 -0.1084  0.1993  1.6856
   54CHL1  H12B 6435   0.651   4.822   9.593 -0.1024  0.8443  0.0503
   54CHL1   C11 6436   0.733   4.919   9.775 -0.2132  0.4912 -0.2867
   54CHL1  H11A 6437   0.724   5.028   9.795 -0.1856  0.4723 -0.1665
   54CHL1  H11B 6438   0.646   4.868   9.822  1.1933 -2.7898 -1.1657
   54CHL1    C9 6439   0.855   4.849   9.843 -0.1594 -1.2846 -0.1856
   54CHL1    H9 6440   0.835   4.740   9.843 -2.2996 -0.9361 -2.2426
   54CHL1   C10 6441   0.875   4.886   9.994  0.1777  0.7666 -0.7454
   54CHL1   C19 6442   0.879   5.036  10.016  0.6113  0.1938  0.3828
   54CHL1  H19A 6443   0.936   5.091   9.938  2.4554 -0.9702  0.8757
   54CHL1  H19B 6444   0.776   5.078  10.016  0.7025  0.4222  0.6881
   54CHL1  H19C 6445   0.927   5.064  10.112  2.2655 -1.0212 -0.0623
   54CHL1    C1 6446   0.755   4.821  10.068 -0.0640 -0.3269  0.4442
   54CHL1   H1A 6447   0.659   4.866  10.036  0.0408 -0.9075 -0.7201
   54CHL1   H1B 6448   0.756   4.713  10.042 -1.2124 -0.7984  2.3081
   54CHL1    C2 6449   0.776   4.841  10.221  1.0312  0.2299 -0.1013
   54CHL1   H2A 6450   0.698   4.801  10.289  0.1736 -1.8416 -2.2680
   54CHL1   H2B 6451   0.774   4.952  10.233 -0.8493 -0.0446  2.6847
   54CHL1   C20 6452   0.781   4.919   9.276  0.1301  0.1526  0.3039
   54CHL1   H20 6453   0.836   5.014   9.266 -1.5189  0.9509 -1.3974
   54CHL1   C21 6454   0.631   4.946   9.273 -0.4500  0.0705 -0.1995
   54CHL1  H21A 6455   0.595   4.995   9.179 -0.3284  0.1433 -0.2079
   54CHL1  H21B 6456   0.601   5.005   9.362 -0.5085 -3.0245  1.9088
   54CHL1  H21C 6457   0.575   4.849   9.273  1.1677 -0.8717  0.5980
   54CHL1   C22 6458   0.818   4.833   9.148  0.5417  0.0690  0.7061
   54CHL1  H22A 6459   0.929   4.830   9.150  0.5667 -0.4281 -0.8106
   54CHL1  H22B 6460   0.782   4.729   9.162 -0.9645  0.3341 -1.0060
   54CHL1   C23 6461   0.787   4.883   9.009  0.1299 -0.0212 -0.1031
   54CHL1  H23A 6462   0.678   4.882   8.988  0.0568  1.3870  0.1790
   54CHL1  H23B 6463   0.797   4.993   9.015 -1.7053  0.0522  2.2296
   54CHL1   C24 6464   0.886   4.817   8.913  0.6645  0.2542 -0.9194
   54CHL1  H24A 6465   0.989   4.838   8.949  0.4827 -2.9844  1.7064
   54CHL1  H24B 6466   0.869   4.708   8.916 -1.7591  0.6238  1.3568
   54CHL1   C25 6467   0.880   4.874   8.770  0.3814  0.5352  1.0143
   54CHL1   H25 6468   0.959   4.824   8.709  1.2252  1.9634  0.8975
   54CHL1   C26 6469   0.749   4.825   8.701 -0.0866 -0.5090  0.8383
   54CHL1  H26A 6470   0.740   4.843   8.592 -0.4529 -0.3164  0.8980
   54CHL1  H26B 6471   0.743   4.719   8.733 -1.1005 -0.9915 -0.8657
   54CHL1  H26C 6472   0.665   4.880   8.749 -0.6284 -0.4070 -0.2236
   54CHL1   C27 6473   0.886   5.027   8.756 -0.4032  0.1577 -0.0217
   54CHL1  H27A 6474   0.979   5.078   8.790 -0.6929  0.3287  0.5077
   54CHL1  H27B 6475   0.885   5.046   8.646  2.7078 -0.5608 -0.2162
   54CHL1  H27C 6476   0.790   5.076   8.781 -1.1513 -1.0942 -0.4391
   55CHL1    C3 6477   1.323   2.362  10.216 -0.5606 -0.3445 -0.9390
   55CHL1    H3 6478   1.430   2.345  10.192 -0.7658 -0.5115 -1.7743
   55CHL1    O3 6479   1.299   2.367  10.357  0.0978  0.0174 -0.7154
   55CHL1   H3' 6480   1.203   2.375  10.365  0.2290  2.6113 -1.3377
   55CHL1    C4 6481   1.272   2.488  10.139 -0.2123 -0.6329 -0.4196
   55CHL1   H4A 6482   1.163   2.482  10.154  0.1238 -1.4493  1.9413
   55CHL1   H4B 6483   1.305   2.577  10.197  0.7588 -2.3232  1.7068
   55CHL1    C5 6484   1.297   2.494   9.990 -0.2177  0.3080 -0.3423
   55CHL1    C6 6485   1.378   2.584   9.933 -0.6858 -0.2281 -0.2733
   55CHL1    H6 6486   1.418   2.661  10.000 -0.4689 -0.8326  0.2925
   55CHL1    C7 6487   1.427   2.584   9.790  0.1737 -0.3500  0.3877
   55CHL1   H7A 6488   1.413   2.682   9.740  2.2207 -0.5225 -0.5487
   55CHL1   H7B 6489   1.538   2.576   9.790  0.1445 -0.9401  2.2009
   55CHL1    C8 6490   1.363   2.483   9.703 -0.7992  0.4192  0.1069
   55CHL1    H8 6491   1.266   2.522   9.666 -1.3970  0.5239  1.7100
   55CHL1   C14 6492   1.457   2.447   9.589 -0.2927 -0.1335 -0.1187
   55CHL1   H14 6493   1.549   2.408   9.637  0.4480 -0.0085 -1.4157
   55CHL1   C15 6494   1.511   2.555   9.501 -0.3090 -0.1626 -0.4485
   55CHL1  H15A 6495   1.429   2.627   9.481  0.4135  1.1139  1.0647
   55CHL1  H15B 6496   1.596   2.608   9.550 -1.4843  0.9979  0.4098
   55CHL1   C16 6497   1.560   2.483   9.372 -1.2057  0.7508  1.0716
   55CHL1  H16A 6498   1.509   2.542   9.293  0.8503  2.0627  0.6928
   55CHL1  H16B 6499   1.670   2.478   9.356 -1.3809  0.0104  0.0533
   55CHL1   C17 6500   1.511   2.332   9.389  0.1121  0.4990  0.1914
   55CHL1   H17 6501   1.592   2.288   9.450 -0.3313 -2.2579 -1.1427
   55CHL1   C13 6502   1.400   2.347   9.487  0.0298 -0.3190  0.8776
   55CHL1   C18 6503   1.274   2.403   9.417  0.2006 -0.1906  0.2190
   55CHL1  H18A 6504   1.223   2.316   9.370  0.3126  0.0322 -0.3157
   55CHL1  H18B 6505   1.204   2.453   9.488 -1.2795 -0.2558 -1.1897
   55CHL1  H18C 6506   1.305   2.483   9.347 -0.3847  0.4682  0.7026
   55CHL1   C12 6507   1.370   2.225   9.567  0.0142  0.5540  1.1922
   55CHL1  H12A 6508   1.337   2.144   9.499 -1.2341  0.8221  1.4817
   55CHL1  H12B 6509   1.461   2.196   9.624  1.6107 -0.6764 -1.8712
   55CHL1   C11 6510   1.283   2.247   9.683 -0.4205  0.0893 -0.1869
   55CHL1  H11A 6511   1.182   2.283   9.656 -0.4695  0.7283  0.8525
   55CHL1  H11B 6512   1.276   2.149   9.735 -0.0555  0.3420  0.3465
   55CHL1    C9 6513   1.336   2.359   9.779 -0.0374  0.1475  0.2502
   55CHL1    H9 6514   1.436   2.324   9.810 -0.1503  0.2493  0.7337
   55CHL1   C10 6515   1.255   2.364   9.912 -0.2841  0.3206  0.5792
   55CHL1   C19 6516   1.108   2.385   9.889  0.1587 -0.2643  0.3062
   55CHL1  H19A 6517   1.042   2.404   9.976 -0.0421  3.8313 -0.6553
   55CHL1  H19B 6518   1.099   2.471   9.820 -0.8476  2.8637  4.2053
   55CHL1  H19C 6519   1.058   2.305   9.830  0.6506 -0.1314 -0.3072
   55CHL1    C1 6520   1.281   2.234  10.007  0.2005 -0.1797  1.0474
   55CHL1   H1A 6521   1.208   2.159   9.969 -2.7655  3.0371  0.1403
   55CHL1   H1B 6522   1.387   2.203   9.992 -0.1148 -0.5721 -0.4512
   55CHL1    C2 6523   1.251   2.243  10.156  0.1325 -0.0749 -0.0068
   55CHL1   H2A 6524   1.294   2.156  10.210 -0.8649  1.0252  2.6350
   55CHL1   H2B 6525   1.141   2.257  10.168  0.3068  2.0508 -0.6099
   55CHL1   C20 6526   1.485   2.242   9.265 -0.0351  0.1512  1.0853
   55CHL1   H20 6527   1.391   2.185   9.284  0.0984 -0.7017 -0.7052
   55CHL1   C21 6528   1.604   2.131   9.261 -0.3476  0.1807 -0.6045
   55CHL1  H21A 6529   1.703   2.175   9.240  0.4478 -2.8621 -3.5278
   55CHL1  H21B 6530   1.589   2.057   9.180  0.0329  1.1440 -1.5527
   55CHL1  H21C 6531   1.609   2.077   9.358 -1.6177  3.4025  1.3438
   55CHL1   C22 6532   1.490   2.316   9.132  0.3879 -0.4980 -0.1488
   55CHL1  H22A 6533   1.426   2.406   9.132  0.2445 -0.6003 -1.2345
   55CHL1  H22B 6534   1.594   2.353   9.125 -0.3097  1.0484 -3.3888
   55CHL1   C23 6535   1.442   2.231   9.014  0.8569  0.3430  1.0854
   55CHL1  H23A 6536   1.508   2.142   9.005  0.5805 -0.0431  2.7885
   55CHL1  H23B 6537   1.343   2.184   9.029 -0.3087  2.2679 -0.3024
   55CHL1   C24 6538   1.446   2.305   8.881 -0.0848  0.8089 -0.2799
   55CHL1  H24A 6539   1.386   2.399   8.888  0.3454  1.0450  0.2662
   55CHL1  H24B 6540   1.551   2.334   8.860 -0.2753  2.0645  0.4167
   55CHL1   C25 6541   1.386   2.234   8.752  0.4383  0.0867 -0.3168
   55CHL1   H25 6542   1.288   2.189   8.778  0.9927 -2.2443 -2.0599
   55CHL1   C26 6543   1.358   2.325   8.636 -0.0364 -0.2224 -0.3999
   55CHL1  H26A 6544   1.444   2.392   8.611 -0.7003  1.5899  2.0009
   55CHL1  H26B 6545   1.336   2.262   8.547  2.9050 -0.2688 -1.1584
   55CHL1  H26C 6546   1.276   2.400   8.645 -1.1906 -1.5859  0.6389
   55CHL1   C27 6547   1.479   2.125   8.704  0.5282  0.1741  0.0219
   55CHL1  H27A 6548   1.575   2.175   8.678  1.3942 -1.1467  0.5903
   55CHL1  H27B 6549   1.490   2.052   8.787 -0.6681  0.3421  0.3268
   55CHL1  H27C 6550   1.435   2.081   8.612 -1.1652  1.1648  0.3479
   56CHL1    C3 6551   6.094   0.307  10.043  0.7032 -0.0548  0.3816
   56CHL1    H3 6552   6.175   0.377  10.011  0.2444  0.7435  0.9508
   56CHL1    O3 6553   6.089   0.325  10.182 -0.4211  0.4530 -0.1604
   56CHL1   H3' 6554   6.011   0.287  10.223 -1.1193 -0.2815 -2.1133
   56CHL1    C4 6555   5.953   0.346   9.985 -0.2217 -0.1077 -0.3726
   56CHL1   H4A 6556   5.882   0.274  10.032 -1.1058  0.2233 -1.1826
   56CHL1   H4B 6557   5.927   0.448  10.019 -0.7337  0.1655 -1.5435
   56CHL1    C5 6558   5.972   0.337   9.832  0.4439  1.0071 -0.2228
   56CHL1    C6 6559   5.968   0.446   9.750 -0.5438 -0.0936 -0.4838
   56CHL1    H6 6560   5.953   0.540   9.804  0.1217  0.1777 -0.7664
   56CHL1    C7 6561   5.971   0.441   9.605  0.0206  0.0057 -0.0914
   56CHL1   H7A 6562   5.893   0.502   9.556  0.4675  1.3587  0.8684
   56CHL1   H7B 6563   6.066   0.489   9.572  0.8200 -1.7786 -0.4498
   56CHL1    C8 6564   5.961   0.303   9.550 -0.1889 -0.0415  0.1380
   56CHL1    H8 6565   5.855   0.270   9.544 -0.2740 -0.2911  2.5860
   56CHL1   C14 6566   6.018   0.294   9.409 -0.4841  0.1714  0.4626
   56CHL1   H14 6567   6.117   0.344   9.412 -1.0558  1.3006  0.6580
   56CHL1   C15 6568   5.947   0.379   9.300 -0.4705  0.8447 -0.1413
   56CHL1  H15A 6569   5.839   0.354   9.305 -0.2963  0.1515  0.3786
   56CHL1  H15B 6570   5.957   0.489   9.295 -0.9202  0.8682 -0.4606
   56CHL1   C16 6571   6.005   0.319   9.164 -0.7575  0.1099 -1.1095
   56CHL1  H16A 6572   5.910   0.294   9.113 -0.1725  0.9629 -2.6334
   56CHL1  H16B 6573   6.069   0.396   9.116  0.4230  0.3194  0.7256
   56CHL1   C17 6574   6.092   0.196   9.207 -0.2070  0.5479  0.5679
   56CHL1   H17 6575   6.195   0.234   9.223 -0.0466  0.0701  0.6783
   56CHL1   C13 6576   6.037   0.157   9.347 -0.0623 -0.2537  0.0818
   56CHL1   C18 6577   5.900   0.088   9.330 -0.6704  0.2757 -0.2668
   56CHL1  H18A 6578   5.839   0.092   9.422  0.1718  0.3634  0.2859
   56CHL1  H18B 6579   5.830   0.142   9.262 -0.8825  0.6347  0.2321
   56CHL1  H18C 6580   5.913  -0.018   9.300  3.0304 -0.1379  2.6026
   56CHL1   C12 6581   6.129   0.082   9.436  0.0586 -0.2842  0.7050
   56CHL1  H12A 6582   6.151  -0.025   9.416 -0.3174 -1.1421  4.4571
   56CHL1  H12B 6583   6.225   0.138   9.441  0.0262 -0.1351 -0.3274
   56CHL1   C11 6584   6.066   0.062   9.571  0.2504  0.0396 -1.2354
   56CHL1  H11A 6585   5.963   0.023   9.574 -0.3614  1.6259 -1.2490
   56CHL1  H11B 6586   6.145   0.001   9.621 -0.4228  0.6107  0.5755
   56CHL1    C9 6587   6.051   0.198   9.634 -0.1006  0.4265 -0.8324
   56CHL1    H9 6588   6.154   0.239   9.644 -1.1240  2.5848  1.4579
   56CHL1   C10 6589   6.005   0.197   9.783 -0.8540  0.5711  0.1470
   56CHL1   C19 6590   5.885   0.099   9.798 -0.1785 -0.1405  0.1767
   56CHL1  H19A 6591   5.844   0.108   9.901 -1.2024 -1.8682 -0.0534
   56CHL1  H19B 6592   5.810   0.125   9.720  2.1908  2.1398 -1.4386
   56CHL1  H19C 6593   5.923  -0.004   9.779  0.0628 -0.5831  2.7976
   56CHL1    C1 6594   6.133   0.141   9.858 -0.5962 -0.4309  0.2402
   56CHL1   H1A 6595   6.137   0.032   9.841 -0.8686 -0.0671 -2.3033
   56CHL1   H1B 6596   6.223   0.190   9.816 -0.9928  1.5375  1.6090
   56CHL1    C2 6597   6.126   0.165  10.009  0.3282  0.6989 -0.0494
   56CHL1   H2A 6598   6.225   0.142  10.055  0.0722 -1.3910 -0.5107
   56CHL1   H2B 6599   6.053   0.100  10.063  0.1609  1.1496  0.2704
   56CHL1   C20 6600   6.100   0.090   9.097 -0.2291 -0.1324  1.2433
   56CHL1   H20 6601   5.995   0.053   9.090 -0.6438  1.3749 -1.6840
   56CHL1   C21 6602   6.197  -0.023   9.126  0.0092  0.1162 -0.3746
   56CHL1  H21A 6603   6.167  -0.082   9.215  0.5461  0.1546 -0.1658
   56CHL1  H21B 6604   6.296   0.023   9.149 -0.3249  0.0056  1.2964
   56CHL1  H21C 6605   6.222  -0.092   9.042 -2.1778 -1.7731  0.4918
   56CHL1   C22 6606   6.138   0.156   8.957 -0.3965 -0.3221  0.4075
   56CHL1  H22A 6607   6.089   0.254   8.941  0.4651  0.0857  0.2105
   56CHL1  H22B 6608   6.247   0.179   8.967  0.3367 -3.6254  0.5680
   56CHL1   C23 6609   6.114   0.062   8.841 -0.6513  0.0597 -0.4619
   56CHL1  H23A 6610   6.172  -0.033   8.847 -0.0861  0.3424 -1.3856
   56CHL1  H23B 6611   6.003   0.052   8.839 -0.6969  0.3464  0.3538
   56CHL1   C24 6612   6.149   0.131   8.709 -0.4330  0.3396 -0.1135
   56CHL1  H24A 6613   6.082   0.219   8.697 -1.1490 -0.0038  1.3736
   56CHL1  H24B 6614   6.252   0.174   8.716 -0.6261  1.2645 -2.4221
   56CHL1   C25 6615   6.153   0.038   8.582  0.0068  0.3774 -0.2185
   56CHL1   H25 6616   6.172   0.102   8.494 -2.1131 -0.8532 -1.6332
   56CHL1   C26 6617   6.273  -0.053   8.594  1.5730  0.6154  0.6381
   56CHL1  H26A 6618   6.282  -0.093   8.490 -0.6819 -0.6292  0.8866
   56CHL1  H26B 6619   6.365   0.003   8.621  1.6087  0.8665  0.0051
   56CHL1  H26C 6620   6.247  -0.136   8.663 -2.0626  1.2032  0.0660
   56CHL1   C27 6621   6.020  -0.041   8.565  0.4899 -0.4144 -0.3651
   56CHL1  H27A 6622   6.008  -0.120   8.643  0.6993 -0.5639 -0.4835
   56CHL1  H27B 6623   5.934   0.029   8.555  0.0768 -1.0195 -1.1226
   56CHL1  H27C 6624   6.017  -0.097   8.470 -0.5430  0.9187 -1.1397
   57CHL1    C3 6625   1.622   3.074  10.173 -0.5113 -0.0835  0.1934
   57CHL1    H3 6626   1.730   3.081  10.151 -1.1134  1.8953 -2.3242
   57CHL1    O3 6627   1.600   3.069  10.311  0.2338  0.1162  0.0977
   57CHL1   H3' 6628   1.506   3.090  10.315  0.2457  0.5944 -1.5327
   57CHL1    C4 6629   1.564   3.207  10.119 -0.0442 -0.1458  0.0004
   57CHL1   H4A 6630   1.456   3.225  10.138 -0.3319  1.4765 -2.8123
   57CHL1   H4B 6631   1.612   3.297  10.162  1.6669 -0.5472 -0.9905
   57CHL1    C5 6632   1.579   3.207   9.969 -0.4200 -0.3747 -0.6359
   57CHL1    C6 6633   1.659   3.306   9.915  0.3975  0.5418 -0.1451
   57CHL1    H6 6634   1.698   3.381   9.986  0.4455 -1.0006  1.4805
   57CHL1    C7 6635   1.660   3.327   9.771 -0.1205  0.2133 -0.0043
   57CHL1   H7A 6636   1.637   3.431   9.739  1.7351  1.3319  2.1917
   57CHL1   H7B 6637   1.766   3.316   9.740 -0.0351 -2.3599  1.0342
   57CHL1    C8 6638   1.582   3.225   9.683 -0.7262 -0.3345 -0.1457
   57CHL1    H8 6639   1.476   3.259   9.687 -0.9933 -0.7997 -2.5767
   57CHL1   C14 6640   1.652   3.210   9.555  0.4429 -0.3387 -0.1384
   57CHL1   H14 6641   1.742   3.148   9.573  1.6608  0.9657 -1.5588
   57CHL1   C15 6642   1.702   3.335   9.478 -0.7209  0.1304  0.7750
   57CHL1  H15A 6643   1.615   3.404   9.482 -1.7647 -1.2042  1.4731
   57CHL1  H15B 6644   1.787   3.385   9.529  1.1639 -2.2482  0.0757
   57CHL1   C16 6645   1.720   3.288   9.335 -0.4047 -0.3509  0.4690
   57CHL1  H16A 6646   1.675   3.359   9.263  2.4707 -0.7456 -1.8387
   57CHL1  H16B 6647   1.830   3.276   9.328 -0.2849  0.7557  0.4676
   57CHL1   C17 6648   1.655   3.143   9.324  0.2511 -0.2057  0.3371
   57CHL1   H17 6649   1.738   3.069   9.323  2.5885  2.3283 -2.6995
   57CHL1   C13 6650   1.571   3.132   9.449 -0.4968  0.2964  0.4778
   57CHL1   C18 6651   1.443   3.207   9.426 -0.6086 -0.0666  0.4345
   57CHL1  H18A 6652   1.387   3.230   9.519 -0.3280 -1.0325  0.8510
   57CHL1  H18B 6653   1.456   3.307   9.380  0.0121  0.5159  1.8597
   57CHL1  H18C 6654   1.374   3.149   9.361 -0.3290 -0.8508  0.8250
   57CHL1   C12 6655   1.545   2.990   9.500  0.7858  0.0749  0.4101
   57CHL1  H12A 6656   1.472   2.937   9.437  0.4450  0.5123  0.4317
   57CHL1  H12B 6657   1.639   2.932   9.493  1.3258  1.1842 -1.9325
   57CHL1   C11 6658   1.483   2.997   9.644  0.1614  0.4116  0.3702
   57CHL1  H11A 6659   1.385   3.051   9.638  0.6231  1.1447 -0.7201
   57CHL1  H11B 6660   1.479   2.901   9.700  2.0793 -0.3097 -0.7166
   57CHL1    C9 6661   1.562   3.087   9.742 -0.5404 -0.3464 -0.5525
   57CHL1    H9 6662   1.661   3.037   9.744 -0.4206 -0.0284  2.1047
   57CHL1   C10 6663   1.522   3.090   9.891 -0.5309 -0.5738 -0.0762
   57CHL1   C19 6664   1.368   3.116   9.902 -0.3989 -0.6556 -0.0802
   57CHL1  H19A 6665   1.344   3.124  10.010 -0.5527  1.9183 -0.2569
   57CHL1  H19B 6666   1.341   3.212   9.853  0.1881 -0.9943 -1.0860
   57CHL1  H19C 6667   1.307   3.036   9.855 -1.1438  0.9919 -2.0122
   57CHL1    C1 6668   1.570   2.958   9.957  0.2473 -0.4454  0.4091
   57CHL1   H1A 6669   1.532   2.864   9.910 -0.2933 -0.3087  0.5635
   57CHL1   H1B 6670   1.678   2.963   9.933 -0.1927  0.5442 -1.4259
   57CHL1    C2 6671   1.548   2.952  10.106  0.0109  0.4596  0.1635
   57CHL1   H2A 6672   1.594   2.857  10.140 -2.0127 -1.1408 -1.4457
   57CHL1   H2B 6673   1.440   2.954  10.132  0.0728 -1.1047  0.5895
   57CHL1   C20 6674   1.592   3.129   9.180 -0.3700  0.0314  0.8099
   57CHL1   H20 6675   1.508   3.200   9.184  0.6549  1.2649  0.6078
   57CHL1   C21 6676   1.546   2.981   9.156  0.7887 -0.0652 -0.1906
   57CHL1  H21A 6677   1.629   2.910   9.180 -0.5708 -1.4293  0.5887
   57CHL1  H21B 6678   1.521   2.966   9.049  1.6633 -0.8429 -0.2990
   57CHL1  H21C 6679   1.458   2.968   9.223 -0.3627  1.9485 -1.2834
   57CHL1   C22 6680   1.677   3.187   9.057 -0.0528  0.1093  0.4236
   57CHL1  H22A 6681   1.616   3.160   8.968  0.8592  0.3596 -0.2889
   57CHL1  H22B 6682   1.686   3.298   9.057 -1.5236  0.2463 -1.0299
   57CHL1   C23 6683   1.810   3.114   9.041 -0.6565 -1.1086  0.1424
   57CHL1  H23A 6684   1.876   3.124   9.130  0.3191 -1.8067 -0.4885
   57CHL1  H23B 6685   1.803   3.004   9.027  1.4592 -1.6181  2.6172
   57CHL1   C24 6686   1.880   3.167   8.918  0.1384 -0.4190 -0.2256
   57CHL1  H24A 6687   1.899   3.275   8.936  0.1711 -0.6439  1.1060
   57CHL1  H24B 6688   1.980   3.123   8.896  0.1559 -0.6360  0.2791
   57CHL1   C25 6689   1.804   3.151   8.784 -0.4900  0.5482  0.0811
   57CHL1   H25 6690   1.707   3.206   8.786 -1.8045 -1.6992  0.2754
   57CHL1   C26 6691   1.886   3.207   8.665  0.0892 -0.3347  0.5598
   57CHL1  H26A 6692   1.882   3.318   8.658 -1.8363 -0.4852 -1.1767
   57CHL1  H26B 6693   1.992   3.177   8.670 -0.0266 -1.1019 -1.4650
   57CHL1  H26C 6694   1.830   3.171   8.576 -0.2330 -0.6117  0.8693
   57CHL1   C27 6695   1.764   3.005   8.752 -0.3935 -0.1759  0.4468
   57CHL1  H27A 6696   1.853   2.944   8.727  2.2660  3.1125  1.5119
   57CHL1  H27B 6697   1.713   2.954   8.837  2.4019 -1.8204  1.1704
   57CHL1  H27C 6698   1.695   3.025   8.667 -1.7298  1.0536  1.7825
   58CHL1    C3 6699   4.640   1.680  10.124 -0.6250 -0.1228 -0.0287
   58CHL1    H3 6700   4.587   1.590  10.087 -0.2160  0.4785 -2.1505
   58CHL1    O3 6701   4.686   1.651  10.255 -0.8246  0.0609  0.4235
   58CHL1   H3' 6702   4.678   1.740  10.292 -0.6324 -0.0706  0.7882
   58CHL1    C4 6703   4.761   1.727  10.042  1.0856 -0.0515 -0.2432
   58CHL1   H4A 6704   4.788   1.812  10.108  0.9279 -0.9777  1.0510
   58CHL1   H4B 6705   4.842   1.651  10.040  0.5585 -0.6483 -4.8347
   58CHL1    C5 6706   4.736   1.765   9.906  0.9652 -0.3185 -0.2405
   58CHL1    C6 6707   4.790   1.703   9.797  0.1384 -0.0561 -0.4387
   58CHL1    H6 6708   4.856   1.616   9.808 -2.0132 -1.9038 -1.8257
   58CHL1    C7 6709   4.757   1.743   9.653  0.0671 -0.7364 -0.4748
   58CHL1   H7A 6710   4.852   1.757   9.598  0.8995  1.4226  1.4278
   58CHL1   H7B 6711   4.692   1.664   9.607  0.5303 -1.7882  0.6538
   58CHL1    C8 6712   4.695   1.878   9.638 -0.2057  0.4480 -0.1079
   58CHL1    H8 6713   4.773   1.955   9.655  3.1974 -2.0439 -3.5482
   58CHL1   C14 6714   4.633   1.896   9.509 -0.0217 -0.0337  0.5458
   58CHL1   H14 6715   4.546   1.827   9.501 -0.0557  0.2737 -2.0522
   58CHL1   C15 6716   4.727   1.869   9.387 -0.7966 -0.6373  0.1222
   58CHL1  H15A 6717   4.821   1.924   9.415 -0.4381 -1.0016 -0.3656
   58CHL1  H15B 6718   4.747   1.760   9.389 -0.6222 -0.6710 -2.2756
   58CHL1   C16 6719   4.658   1.924   9.266 -0.2173 -0.3359 -0.3954
   58CHL1  H16A 6720   4.725   1.989   9.206 -1.0001  1.2480  0.4126
   58CHL1  H16B 6721   4.611   1.852   9.196  1.5309 -0.3784 -1.5492
   58CHL1   C17 6722   4.543   2.022   9.326  0.4218  0.5874 -0.4257
   58CHL1   H17 6723   4.453   1.958   9.314  1.8256 -1.5049  0.0461
   58CHL1   C13 6724   4.575   2.029   9.482  0.4124  0.3361  0.7386
   58CHL1   C18 6725   4.670   2.148   9.502  0.1016 -0.2018 -0.0374
   58CHL1  H18A 6726   4.731   2.148   9.595 -0.4863 -0.4950  0.3472
   58CHL1  H18B 6727   4.745   2.146   9.420 -0.7308 -0.0802 -0.8031
   58CHL1  H18C 6728   4.616   2.245   9.509 -1.8903 -1.2211 -1.1792
   58CHL1   C12 6729   4.452   2.042   9.569 -0.5568  0.1942 -0.0324
   58CHL1  H12A 6730   4.419   2.146   9.552 -2.2481 -0.2842  0.2362
   58CHL1  H12B 6731   4.379   1.970   9.527 -0.5905 -0.3423  0.9240
   58CHL1   C11 6732   4.478   2.017   9.721  0.6811 -0.5792  0.3702
   58CHL1  H11A 6733   4.533   2.105   9.760 -0.6292  0.4610 -0.0855
   58CHL1  H11B 6734   4.388   2.022   9.786 -0.4622 -0.3074 -1.1961
   58CHL1    C9 6735   4.585   1.902   9.744 -0.3572  0.7281  0.1761
   58CHL1    H9 6736   4.517   1.820   9.710  0.6851  0.5865 -1.6669
   58CHL1   C10 6737   4.634   1.880   9.892  0.8234  0.4272  0.5578
   58CHL1   C19 6738   4.702   2.010   9.931 -0.4504  0.3777 -0.1916
   58CHL1  H19A 6739   4.779   2.010  10.010 -0.7081  3.2226  0.0938
   58CHL1  H19B 6740   4.747   2.053   9.840 -1.0078  0.5124 -0.4080
   58CHL1  H19C 6741   4.629   2.082   9.974 -0.4888  0.2237  0.0032
   58CHL1    C1 6742   4.504   1.851   9.979 -0.0694 -0.0746 -0.6942
   58CHL1   H1A 6743   4.444   1.945   9.974 -0.0313 -0.0866 -1.4127
   58CHL1   H1B 6744   4.452   1.772   9.920 -0.6703  0.7345 -1.2556
   58CHL1    C2 6745   4.544   1.798  10.118 -0.3853 -0.1985  0.0671
   58CHL1   H2A 6746   4.447   1.780  10.170 -0.3735 -0.1122  0.1193
   58CHL1   H2B 6747   4.602   1.873  10.176 -0.5331 -0.9913  1.2594
   58CHL1   C20 6748   4.512   2.153   9.250  0.6159 -0.1451  0.3067
   58CHL1   H20 6749   4.589   2.231   9.267  0.2505  0.5130 -0.9441
   58CHL1   C21 6750   4.386   2.222   9.293  0.4119 -0.4079 -0.0555
   58CHL1  H21A 6751   4.405   2.277   9.388 -0.4202 -1.3307  0.6621
   58CHL1  H21B 6752   4.291   2.165   9.298  0.0821  0.0522 -1.0851
   58CHL1  H21C 6753   4.359   2.304   9.223 -1.8615 -0.0636  1.1905
   58CHL1   C22 6754   4.502   2.142   9.093  0.4795 -0.6637  0.8234
   58CHL1  H22A 6755   4.485   2.246   9.059  0.4515 -0.0560  2.6504
   58CHL1  H22B 6756   4.595   2.097   9.051  2.5069  0.7126  3.6809
   58CHL1   C23 6757   4.392   2.038   9.047 -0.4797 -0.1047 -0.0120
   58CHL1  H23A 6758   4.403   1.943   9.105  2.3206  1.1533  1.6414
   58CHL1  H23B 6759   4.291   2.080   9.069 -0.5668 -0.6601  0.6807
   58CHL1   C24 6760   4.408   2.002   8.899  0.4744 -0.3052 -0.2287
   58CHL1  H24A 6761   4.407   2.093   8.834 -1.3683 -0.1486 -0.0269
   58CHL1  H24B 6762   4.514   1.971   8.892  0.4873 -0.3100 -0.0151
   58CHL1   C25 6763   4.311   1.895   8.859  0.6646  0.4535 -0.2396
   58CHL1   H25 6764   4.300   1.822   8.941  0.9183  2.0326  1.2255
   58CHL1   C26 6765   4.177   1.963   8.838  0.0517 -0.3072  0.7107
   58CHL1  H26A 6766   4.139   2.007   8.933 -2.8180 -3.3207  1.0490
   58CHL1  H26B 6767   4.203   2.038   8.759  0.1350 -0.1404  0.8962
   58CHL1  H26C 6768   4.108   1.892   8.789 -0.1243  0.1897  0.2255
   58CHL1   C27 6769   4.345   1.827   8.724  0.2770  0.4687 -0.2386
   58CHL1  H27A 6770   4.445   1.788   8.754  0.5367  0.0583 -1.6397
   58CHL1  H27B 6771   4.293   1.732   8.702  2.3009 -0.4587 -1.1636
   58CHL1  H27C 6772   4.339   1.902   8.643 -0.3016  1.7381  0.9486
   59CHL1    C3 6773   3.888   1.295  10.262 -0.0861 -0.4411 -0.5917
   59CHL1    H3 6774   3.986   1.334  10.227  0.5553 -1.1223  0.3800
   59CHL1    O3 6775   3.876   1.295  10.401  0.0351  0.3964  0.1193
   59CHL1   H3' 6776   3.796   1.247  10.422 -0.2770 -0.0129 -1.9030
   59CHL1    C4 6777   3.775   1.370  10.201 -0.3542  0.0252 -0.6387
   59CHL1   H4A 6778   3.675   1.343  10.240  0.2009  0.4644  1.1405
   59CHL1   H4B 6779   3.777   1.477  10.229 -0.3450 -0.3877  0.9583
   59CHL1    C5 6780   3.769   1.364  10.047 -0.4421 -0.3367 -0.6575
   59CHL1    C6 6781   3.772   1.475   9.976  0.4475 -0.5558 -0.9511
   59CHL1    H6 6782   3.775   1.575  10.022 -1.7093 -1.2091  0.7054
   59CHL1    C7 6783   3.769   1.477   9.821 -0.7473  0.6211 -0.1555
   59CHL1   H7A 6784   3.694   1.546   9.777 -0.7288  0.9305  0.2969
   59CHL1   H7B 6785   3.867   1.501   9.775  0.0956 -2.3173  0.0380
   59CHL1    C8 6786   3.723   1.339   9.771  0.0243 -0.9784  0.3559
   59CHL1    H8 6787   3.613   1.327   9.778 -0.0104 -1.4944 -0.9386
   59CHL1   C14 6788   3.749   1.331   9.619 -0.3432  0.0057 -0.2115
   59CHL1   H14 6789   3.859   1.326   9.604 -0.2146 -0.6995  0.9257
   59CHL1   C15 6790   3.702   1.444   9.537 -0.0747 -0.2372  0.5112
   59CHL1  H15A 6791   3.597   1.469   9.561 -0.2887  0.6418 -1.2794
   59CHL1  H15B 6792   3.760   1.538   9.545 -0.1430 -0.2441  1.1442
   59CHL1   C16 6793   3.693   1.401   9.394 -0.1213  0.1114 -0.3466
   59CHL1  H16A 6794   3.593   1.418   9.350 -0.2740  0.3405  0.0932
   59CHL1  H16B 6795   3.768   1.450   9.328 -0.9474  1.0381 -0.6145
   59CHL1   C17 6796   3.728   1.249   9.403 -0.4914  0.6747  0.6164
   59CHL1   H17 6797   3.836   1.241   9.381 -0.7678 -0.4256 -0.4169
   59CHL1   C13 6798   3.702   1.211   9.550  0.2336  0.7011 -0.1337
   59CHL1   C18 6799   3.550   1.178   9.561 -0.1457 -0.2699  0.3603
   59CHL1  H18A 6800   3.538   1.075   9.521  3.5351 -0.6096 -0.0635
   59CHL1  H18B 6801   3.507   1.185   9.663 -0.4644  3.4832  0.0469
   59CHL1  H18C 6802   3.486   1.254   9.512 -1.0406 -1.0746  0.2882
   59CHL1   C12 6803   3.783   1.097   9.610 -0.8018 -0.2393  0.2648
   59CHL1  H12A 6804   3.761   0.995   9.570 -0.4436  0.2501 -1.2261
   59CHL1  H12B 6805   3.886   1.124   9.579 -0.6298 -1.9612 -0.7413
   59CHL1   C11 6806   3.779   1.086   9.762 -0.4902 -0.4690  0.7685
   59CHL1  H11A 6807   3.677   1.051   9.792 -1.5481  1.4641 -0.4658
   59CHL1  H11B 6808   3.856   1.019   9.807  1.2524 -0.2437 -1.7820
   59CHL1    C9 6809   3.803   1.225   9.834  0.0062 -0.1227  0.9917
   59CHL1    H9 6810   3.905   1.256   9.802  0.5292 -3.7445 -1.1165
   59CHL1   C10 6811   3.775   1.227   9.985 -0.5930  0.4996  0.0211
   59CHL1   C19 6812   3.633   1.168  10.024  0.1297 -0.1001  0.2044
   59CHL1  H19A 6813   3.604   1.185  10.130 -2.1310  0.9237 -0.5616
   59CHL1  H19B 6814   3.549   1.196   9.958 -0.4619  0.1811  1.0713
   59CHL1  H19C 6815   3.646   1.057  10.020  2.3313  0.1357 -0.1545
   59CHL1    C1 6816   3.882   1.139  10.061  0.3727  0.2708 -0.3944
   59CHL1   H1A 6817   3.860   1.038  10.021  1.2557 -0.4507  0.8988
   59CHL1   H1B 6818   3.983   1.167  10.025 -0.6078  0.6534 -2.9767
   59CHL1    C2 6819   3.884   1.148  10.219 -0.4583 -0.0712  0.5661
   59CHL1   H2A 6820   3.974   1.095  10.258 -1.1473 -3.0977 -1.7767
   59CHL1   H2B 6821   3.791   1.093  10.245 -1.1673 -0.2336 -2.1538
   59CHL1   C20 6822   3.680   1.161   9.289 -0.1901  0.2762 -0.6311
   59CHL1   H20 6823   3.572   1.137   9.292  0.0150 -1.0578 -3.4431
   59CHL1   C21 6824   3.759   1.021   9.293  0.3083 -0.0637 -1.0584
   59CHL1  H21A 6825   3.750   0.981   9.189  1.8950 -0.6822 -0.9703
   59CHL1  H21B 6826   3.728   0.929   9.348  0.2809 -0.1889 -1.2815
   59CHL1  H21C 6827   3.868   1.034   9.312 -0.0917  0.1920  1.1364
   59CHL1   C22 6828   3.712   1.231   9.149  0.0160  0.4641 -0.0509
   59CHL1  H22A 6829   3.723   1.341   9.166 -1.2706  0.5552  0.2290
   59CHL1  H22B 6830   3.802   1.185   9.103 -0.9110 -1.3453 -0.0556
   59CHL1   C23 6831   3.604   1.207   9.049  0.0484  0.1367 -0.3374
   59CHL1  H23A 6832   3.644   1.246   8.953  3.7383  3.4075  2.3630
   59CHL1  H23B 6833   3.578   1.099   9.049  1.6581 -0.2729 -1.0411
   59CHL1   C24 6834   3.465   1.282   9.073  0.0354  0.6231 -0.2305
   59CHL1  H24A 6835   3.394   1.211   9.025  0.0106 -1.0711  2.2092
   59CHL1  H24B 6836   3.450   1.279   9.183  0.5096  0.5691 -0.1678
   59CHL1   C25 6837   3.456   1.424   9.022 -0.2245 -0.4290  0.2667
   59CHL1   H25 6838   3.539   1.484   9.065  1.0757 -2.4206  0.6117
   59CHL1   C26 6839   3.463   1.423   8.867  1.0627 -0.0866  0.4519
   59CHL1  H26A 6840   3.384   1.363   8.818  1.4846 -0.6742  0.4854
   59CHL1  H26B 6841   3.459   1.528   8.831 -1.8127 -0.6122 -0.8775
   59CHL1  H26C 6842   3.558   1.378   8.832 -0.1124 -1.3808 -1.1240
   59CHL1   C27 6843   3.335   1.497   9.064 -0.0084 -0.6340 -0.0265
   59CHL1  H27A 6844   3.340   1.602   9.029 -0.2983  0.2846  2.5853
   59CHL1  H27B 6845   3.246   1.449   9.016  0.1329 -0.4196 -0.5070
   59CHL1  H27C 6846   3.321   1.497   9.174 -0.4431 -0.9593 -0.0767
   60CHL1    C3 6847   4.138   6.582  10.048  0.4652  0.6885  0.7362
   60CHL1    H3 6848   4.243   6.581  10.011  0.1259  2.7903 -0.3525
   60CHL1    O3 6849   4.136   6.524  10.179 -0.3974 -0.0027 -0.1772
   60CHL1   H3' 6850   4.047   6.519  10.215 -0.4283 -1.2275 -0.3892
   60CHL1    C4 6851   4.071   6.720  10.050  0.5027 -0.2951 -0.9111
   60CHL1   H4A 6852   3.988   6.720  10.123  1.9788 -2.1223  0.8457
   60CHL1   H4B 6853   4.147   6.782  10.103 -0.1951  0.0475 -0.3024
   60CHL1    C5 6854   4.043   6.780   9.917  0.2822  0.4638 -0.1344
   60CHL1    C6 6855   4.093   6.899   9.884 -0.6132  0.1691 -0.2021
   60CHL1    H6 6856   4.150   6.953   9.961 -0.0957 -0.0400 -0.4340
   60CHL1    C7 6857   4.061   6.971   9.758  0.1011  0.1255  0.3980
   60CHL1   H7A 6858   4.038   7.077   9.785  2.5611  0.6052  0.7790
   60CHL1   H7B 6859   4.159   6.986   9.708  0.7871 -0.6288  1.4803
   60CHL1    C8 6860   3.948   6.909   9.676 -0.1527 -0.3964 -0.2571
   60CHL1    H8 6861   3.847   6.938   9.712  1.1194  1.5904  1.7590
   60CHL1   C14 6862   3.957   6.966   9.538  0.1210  0.4369  0.9629
   60CHL1   H14 6863   4.052   6.923   9.500  1.2665  1.8332  2.1673
   60CHL1   C15 6864   3.977   7.113   9.499  0.1187 -0.7124 -0.6104
   60CHL1  H15A 6865   3.904   7.165   9.565  1.5786  0.7054 -0.1000
   60CHL1  H15B 6866   4.081   7.150   9.504 -0.3890  0.5579  0.6888
   60CHL1   C16 6867   3.923   7.112   9.353 -0.6597 -0.0991 -0.2670
   60CHL1  H16A 6868   3.833   7.177   9.347  0.7578  1.7781 -1.7074
   60CHL1  H16B 6869   3.990   7.147   9.272 -0.0164 -0.8407 -0.0667
   60CHL1   C17 6870   3.878   6.971   9.314 -0.5203  0.1452 -0.4789
   60CHL1   H17 6871   3.970   6.916   9.284  0.5782 -0.0665  2.9939
   60CHL1   C13 6872   3.848   6.905   9.450 -0.2941 -0.5316  0.0275
   60CHL1   C18 6873   3.702   6.946   9.493  0.1756 -0.6366  0.0261
   60CHL1  H18A 6874   3.684   6.916   9.599 -2.6028  1.4944  0.2028
   60CHL1  H18B 6875   3.705   7.057   9.491 -0.9898 -0.6186 -0.7465
   60CHL1  H18C 6876   3.630   6.902   9.421 -0.5628 -0.8747  0.8939
   60CHL1   C12 6877   3.871   6.751   9.440  0.7370 -0.2261 -0.2937
   60CHL1  H12A 6878   3.791   6.710   9.374  0.0972  2.5734 -1.3102
   60CHL1  H12B 6879   3.970   6.723   9.396  0.0886 -0.4099 -1.6605
   60CHL1   C11 6880   3.855   6.692   9.584  0.4482 -0.6322  0.0690
   60CHL1  H11A 6881   3.753   6.719   9.617  0.8116 -0.2901  0.9275
   60CHL1  H11B 6882   3.874   6.583   9.577  1.5445 -0.5052  0.9366
   60CHL1    C9 6883   3.957   6.758   9.671 -0.0422 -0.1800 -0.5145
   60CHL1    H9 6884   4.047   6.731   9.613  1.1881  2.1392  0.2630
   60CHL1   C10 6885   3.964   6.699   9.818  0.2711 -0.0918 -0.4444
   60CHL1   C19 6886   3.822   6.680   9.875  0.2799 -0.2006  0.6277
   60CHL1  H19A 6887   3.764   6.609   9.812  0.4294 -0.0902  0.3695
   60CHL1  H19B 6888   3.828   6.633   9.976 -0.0991  1.9203  1.6738
   60CHL1  H19C 6889   3.776   6.781   9.878 -1.3567 -0.9351  1.3151
   60CHL1    C1 6890   4.033   6.558   9.814 -0.4470 -0.2025  0.4588
   60CHL1   H1A 6891   3.973   6.494   9.747  1.2210  0.9424 -2.2360
   60CHL1   H1B 6892   4.133   6.572   9.767 -1.5317  1.6127 -1.4118
   60CHL1    C2 6893   4.060   6.494   9.952 -0.0315  0.5480 -0.0757
   60CHL1   H2A 6894   4.113   6.396   9.944 -2.7573 -1.0339  0.7818
   60CHL1   H2B 6895   3.961   6.474   9.998 -0.7699  0.2469 -1.7495
   60CHL1   C20 6896   3.773   6.953   9.202  0.3625  0.0468 -0.2119
   60CHL1   H20 6897   3.703   6.871   9.227  0.0120  0.1214 -0.9557
   60CHL1   C21 6898   3.850   6.904   9.069  0.1963 -0.0026 -0.1840
   60CHL1  H21A 6899   3.776   6.884   8.989  0.1420  1.0954 -0.4110
   60CHL1  H21B 6900   3.906   6.810   9.086 -0.8203 -0.3573  1.3261
   60CHL1  H21C 6901   3.915   6.984   9.028  1.1604  0.6486  2.4971
   60CHL1   C22 6902   3.679   7.072   9.176 -0.4032  0.3210  0.1332
   60CHL1  H22A 6903   3.643   7.107   9.275  0.5110  0.6581  0.3587
   60CHL1  H22B 6904   3.731   7.158   9.128  2.6498 -1.7190 -0.3835
   60CHL1   C23 6905   3.556   7.043   9.087 -0.8184  0.0580 -0.3387
   60CHL1  H23A 6906   3.598   7.003   8.992  3.5888 -0.7810  1.8382
   60CHL1  H23B 6907   3.504   6.959   9.137  2.4203 -1.1013  1.2505
   60CHL1   C24 6908   3.464   7.166   9.081  0.1956  0.0952  0.1872
   60CHL1  H24A 6909   3.457   7.214   9.180  0.3734  1.0357 -0.2546
   60CHL1  H24B 6910   3.504   7.246   9.015  0.4230 -0.1043  0.0825
   60CHL1   C25 6911   3.314   7.124   9.050 -0.0404  0.1904 -0.3421
   60CHL1   H25 6912   3.283   7.060   9.135  0.1786 -0.2985 -0.6258
   60CHL1   C26 6913   3.205   7.230   9.053  0.0233  0.9486  0.8055
   60CHL1  H26A 6914   3.230   7.310   8.979  3.9171 -0.4154  0.5543
   60CHL1  H26B 6915   3.107   7.184   9.031 -0.9448  2.6633  1.4514
   60CHL1  H26C 6916   3.177   7.277   9.150 -1.0884 -0.2126  1.0419
   60CHL1   C27 6917   3.302   7.052   8.919 -0.5826 -0.1674  0.2847
   60CHL1  H27A 6918   3.372   6.965   8.914  0.7864  0.9871 -0.9326
   60CHL1  H27B 6919   3.199   7.013   8.906 -1.3841  1.4836  1.4460
   60CHL1  H27C 6920   3.333   7.119   8.837  2.2232  0.0546  1.4627
   61CHL1    C3 6921   0.385   6.428  10.330 -0.0884  0.2278 -0.2155
   61CHL1    H3 6922   0.277   6.448  10.312 -0.2181  0.5183  0.8693
   61CHL1    O3 6923   0.403   6.424  10.472 -0.1437 -0.0285 -0.2565
   61CHL1   H3' 6924   0.384   6.511  10.507 -0.8399  0.2293 -1.2595
   61CHL1    C4 6925   0.399   6.295  10.258 -0.9029 -0.0809  0.4970
   61CHL1   H4A 6926   0.504   6.259  10.265 -0.4198  0.8805 -1.5074
   61CHL1   H4B 6927   0.329   6.224  10.306 -1.3819  1.0003  1.4122
   61CHL1    C5 6928   0.372   6.321  10.106 -0.1521  0.2945 -0.2882
   61CHL1    C6 6929   0.275   6.253  10.038 -0.7345  0.2823 -0.3036
   61CHL1    H6 6930   0.213   6.172  10.079  0.9578 -0.9165 -0.0321
   61CHL1    C7 6931   0.254   6.279   9.892  1.0924 -0.2326  0.0370
   61CHL1   H7A 6932   0.255   6.180   9.840  1.9068 -0.0429 -0.3340
   61CHL1   H7B 6933   0.153   6.322   9.878  0.8799 -0.3964  1.0743
   61CHL1    C8 6934   0.371   6.362   9.823 -0.3016  0.1129  0.1987
   61CHL1    H8 6935   0.449   6.284   9.808  1.3700  1.9295 -0.7859
   61CHL1   C14 6936   0.321   6.417   9.687  0.0130  0.1371 -0.0706
   61CHL1   H14 6937   0.253   6.496   9.725 -0.6770 -1.3645  1.8685
   61CHL1   C15 6938   0.238   6.332   9.606 -0.2615 -0.1380  0.5209
   61CHL1  H15A 6939   0.267   6.225   9.608  0.3010 -0.0069 -0.4072
   61CHL1  H15B 6940   0.134   6.338   9.643 -0.5451 -0.9123 -0.1323
   61CHL1   C16 6941   0.249   6.375   9.458 -0.1965 -0.8624  0.5163
   61CHL1  H16A 6942   0.308   6.302   9.400  0.2684 -1.9276  2.2841
   61CHL1  H16B 6943   0.152   6.391   9.407 -0.0521  1.4218  0.8910
   61CHL1   C17 6944   0.338   6.502   9.468 -0.0819  0.2848 -0.3909
   61CHL1   H17 6945   0.263   6.579   9.496 -1.3492 -0.9712 -0.2905
   61CHL1   C13 6946   0.428   6.482   9.600 -0.1626  0.5520 -0.1094
   61CHL1   C18 6947   0.541   6.382   9.567 -0.2949 -0.1142 -0.4814
   61CHL1  H18A 6948   0.494   6.295   9.515  0.4691  0.5811 -2.3961
   61CHL1  H18B 6949   0.610   6.429   9.493 -0.8775 -1.9997 -2.2788
   61CHL1  H18C 6950   0.596   6.358   9.660 -3.5366 -0.9666  1.2925
   61CHL1   C12 6951   0.481   6.603   9.677  0.0240  0.2473  1.0800
   61CHL1  H12A 6952   0.554   6.658   9.614  0.0489  1.4565  2.1377
   61CHL1  H12B 6953   0.397   6.675   9.676 -0.5008 -0.3045  2.6874
   61CHL1   C11 6954   0.510   6.571   9.826 -0.1271 -0.3464 -0.1052
   61CHL1  H11A 6955   0.615   6.533   9.821  0.0836  0.1935  0.1464
   61CHL1  H11B 6956   0.516   6.668   9.879 -0.1425  0.2131 -1.1090
   61CHL1    C9 6957   0.412   6.477   9.911  0.2547  0.5256  0.3622
   61CHL1    H9 6958   0.320   6.536   9.929  0.5323  0.7020  1.2374
   61CHL1   C10 6959   0.460   6.429  10.046  0.1383 -0.4437 -0.3792
   61CHL1   C19 6960   0.602   6.374  10.030  0.1836 -0.2432  0.4877
   61CHL1  H19A 6961   0.678   6.453  10.012  0.0036 -0.2087 -0.1368
   61CHL1  H19B 6962   0.643   6.327  10.122  0.1921  2.0781  1.7050
   61CHL1  H19C 6963   0.609   6.292   9.956 -0.0745 -0.2150  0.4308
   61CHL1    C1 6964   0.447   6.555  10.138 -0.1948 -0.6347 -0.3535
   61CHL1   H1A 6965   0.507   6.640  10.100  1.8474 -1.3848  1.0908
   61CHL1   H1B 6966   0.339   6.580  10.128  0.6637  2.7155 -1.6968
   61CHL1    C2 6967   0.481   6.532  10.278 -0.3231  0.3595 -0.4165
   61CHL1   H2A 6968   0.448   6.626  10.327 -3.5121 -2.8976  4.2170
   61CHL1   H2B 6969   0.588   6.512  10.300  0.1939  2.1694 -1.2494
   61CHL1   C20 6970   0.392   6.539   9.335 -0.2079 -0.7156  0.4217
   61CHL1   H20 6971   0.454   6.459   9.291  1.2149  0.9181 -0.6258
   61CHL1   C21 6972   0.466   6.673   9.352  0.2348  0.6918  0.1409
   61CHL1  H21A 6973   0.555   6.664   9.418 -0.9660 -0.0779  1.6783
   61CHL1  H21B 6974   0.403   6.756   9.390  1.0202  1.3883 -0.0607
   61CHL1  H21C 6975   0.507   6.711   9.255  1.2486  1.2997  0.7978
   61CHL1   C22 6976   0.274   6.566   9.229 -0.1898  0.4531 -0.6756
   61CHL1  H22A 6977   0.214   6.472   9.223  2.0146 -1.2297  2.3935
   61CHL1  H22B 6978   0.210   6.649   9.266 -0.7231 -0.0786 -0.3939
   61CHL1   C23 6979   0.306   6.618   9.088 -0.1449 -0.0678  0.0330
   61CHL1  H23A 6980   0.211   6.642   9.034 -0.7638 -0.7624  0.8059
   61CHL1  H23B 6981   0.360   6.715   9.089  0.7194 -0.5556  0.5326
   61CHL1   C24 6982   0.381   6.514   9.007 -0.2469 -0.1967  0.3295
   61CHL1  H24A 6983   0.483   6.494   9.047  0.5100 -0.2857 -1.5921
   61CHL1  H24B 6984   0.320   6.422   8.993 -1.3172  0.7018 -1.0122
   61CHL1   C25 6985   0.418   6.561   8.859 -0.3733  0.4753 -0.3398
   61CHL1   H25 6986   0.320   6.571   8.807 -0.0111 -3.6056 -2.0302
   61CHL1   C26 6987   0.494   6.697   8.867  0.9053  1.1406  0.3840
   61CHL1  H26A 6988   0.424   6.781   8.886 -1.6442  0.3851 -4.8087
   61CHL1  H26B 6989   0.571   6.695   8.948 -0.1559  0.8945  1.3871
   61CHL1  H26C 6990   0.533   6.714   8.764  1.6137 -2.2270  0.0438
   61CHL1   C27 6991   0.514   6.460   8.792  0.4675 -0.0914 -0.1202
   61CHL1  H27A 6992   0.511   6.491   8.686 -1.6175 -0.8452 -0.3071
   61CHL1  H27B 6993   0.615   6.458   8.838 -0.0141 -0.1440  0.9491
   61CHL1  H27C 6994   0.474   6.357   8.800 -0.8582  0.4167  0.0313
   62CHL1    C3 6995   1.101   3.003  10.169 -0.7345  0.0404  0.5348
   62CHL1    H3 6996   1.208   3.025  10.151 -0.6975  0.4862  1.2861
   62CHL1    O3 6997   1.077   3.018  10.311 -0.0689  0.2213  0.0446
   62CHL1   H3' 6998   1.002   2.962  10.331  0.2536  0.9873  3.6467
   62CHL1    C4 6999   1.000   3.102  10.102 -0.2152 -0.6074 -0.1244
   62CHL1   H4A 7000   0.900   3.084  10.145 -1.0341  0.5681 -1.5074
   62CHL1   H4B 7001   1.028   3.203  10.140  0.0762 -0.7539  0.0533
   62CHL1    C5 7002   1.001   3.080   9.952  0.6581 -0.4334 -0.2084
   62CHL1    C6 7003   1.023   3.189   9.871 -0.1651  0.1215 -0.8135
   62CHL1    H6 7004   1.032   3.292   9.909 -0.1422  1.1835 -3.5739
   62CHL1    C7 7005   1.053   3.185   9.722  0.9172 -0.3398 -0.3328
   62CHL1   H7A 7006   1.002   3.270   9.671  2.5490  1.1593  0.4970
   62CHL1   H7B 7007   1.161   3.205   9.706  0.3477  2.4271 -1.0072
   62CHL1    C8 7008   1.016   3.046   9.663 -0.6176 -0.3020  0.6848
   62CHL1    H8 7009   0.906   3.047   9.651 -0.7641 -0.7675  1.9348
   62CHL1   C14 7010   1.082   3.041   9.524  0.3035  0.0006 -0.1680
   62CHL1   H14 7011   1.192   3.041   9.537  0.1207  0.7695  1.6126
   62CHL1   C15 7012   1.063   3.157   9.421  0.3296 -0.0701 -0.2369
   62CHL1  H15A 7013   0.963   3.199   9.444  1.3561  1.2263  2.0182
   62CHL1  H15B 7014   1.138   3.237   9.440 -0.7122  0.9848 -0.5446
   62CHL1   C16 7015   1.094   3.091   9.290  0.4620  0.7120  0.5501
   62CHL1  H16A 7016   1.004   3.095   9.226  0.1763 -2.5243  0.6590
   62CHL1  H16B 7017   1.177   3.136   9.232 -1.7294  0.6076 -2.8064
   62CHL1   C17 7018   1.126   2.942   9.318  1.0613 -0.4378  0.3571
   62CHL1   H17 7019   1.237   2.934   9.327  0.9448 -2.3223  0.2051
   62CHL1   C13 7020   1.057   2.911   9.451  0.8783  0.0842  0.3029
   62CHL1   C18 7021   0.911   2.892   9.423  0.4564 -0.5836 -0.0920
   62CHL1  H18A 7022   0.887   2.793   9.378 -0.8552 -1.8341  3.1812
   62CHL1  H18B 7023   0.858   2.897   9.520  0.9459 -3.1777  0.3584
   62CHL1  H18C 7024   0.870   2.971   9.356 -2.0275  1.7392  4.0003
   62CHL1   C12 7025   1.114   2.794   9.532 -0.5816 -0.2020  0.2559
   62CHL1  H12A 7026   1.096   2.696   9.483 -0.2708 -0.8376  1.4008
   62CHL1  H12B 7027   1.223   2.806   9.549 -0.4903  1.7242 -1.4439
   62CHL1   C11 7028   1.041   2.794   9.672  0.5550  0.3073 -0.3311
   62CHL1  H11A 7029   0.935   2.762   9.665  1.0184 -1.6440  1.3193
   62CHL1  H11B 7030   1.095   2.716   9.729  0.8555 -0.4672 -1.6610
   62CHL1    C9 7031   1.057   2.930   9.744 -0.3166  0.0903 -0.2799
   62CHL1    H9 7032   1.166   2.943   9.758 -0.7460  2.7613  0.9450
   62CHL1   C10 7033   0.994   2.936   9.890  0.5061  0.0260 -0.1959
   62CHL1   C19 7034   0.844   2.903   9.890  0.8082  0.7362 -0.0548
   62CHL1  H19A 7035   0.802   2.809   9.849 -1.4576 -0.4131  4.5637
   62CHL1  H19B 7036   0.807   2.889   9.994 -0.2116  0.0701 -0.4963
   62CHL1  H19C 7037   0.785   2.988   9.849  2.0228  1.3795 -0.4715
   62CHL1    C1 7038   1.064   2.824   9.979 -0.4684  0.2339  0.1614
   62CHL1   H1A 7039   1.012   2.728   9.960 -0.7058  0.0334  1.7717
   62CHL1   H1B 7040   1.164   2.814   9.932 -0.4158 -0.6586  0.4632
   62CHL1    C2 7041   1.067   2.856  10.127  0.0739 -0.1613  0.3748
   62CHL1   H2A 7042   1.138   2.787  10.177  0.7695 -1.2452 -2.0447
   62CHL1   H2B 7043   0.962   2.832  10.154 -0.8993  2.1542 -1.2285
   62CHL1   C20 7044   1.088   2.851   9.196 -0.4323  0.1179  0.2111
   62CHL1   H20 7045   0.980   2.844   9.171 -0.1171 -1.8943 -0.6362
   62CHL1   C21 7046   1.134   2.701   9.198 -0.5412  0.5636  0.1616
   62CHL1  H21A 7047   1.103   2.648   9.105 -2.8746 -0.4957  1.5107
   62CHL1  H21B 7048   1.079   2.645   9.276 -0.2645 -0.0466 -0.0813
   62CHL1  H21C 7049   1.243   2.694   9.222 -0.6300  0.1613  0.4454
   62CHL1   C22 7050   1.151   2.904   9.071  0.1699 -0.6215 -0.0782
   62CHL1  H22A 7051   1.150   3.015   9.066 -0.1246 -0.6586 -0.9966
   62CHL1  H22B 7052   1.259   2.884   9.080  0.4128  1.1615  1.2035
   62CHL1   C23 7053   1.082   2.863   8.938 -0.0195 -0.3869 -0.3197
   62CHL1  H23A 7054   1.116   2.759   8.921  1.9497 -0.0365  1.2137
   62CHL1  H23B 7055   0.971   2.865   8.943 -0.0481 -1.9511  0.0221
   62CHL1   C24 7056   1.151   2.940   8.816  0.8595 -0.4006  0.4968
   62CHL1  H24A 7057   1.084   2.935   8.728  0.0134 -1.5814  1.1829
   62CHL1  H24B 7058   1.151   3.046   8.848 -1.7175  0.0635 -0.9146
   62CHL1   C25 7059   1.294   2.894   8.798 -0.0133 -0.2729  0.0535
   62CHL1   H25 7060   1.344   2.887   8.897 -0.4323  2.1280  0.4688
   62CHL1   C26 7061   1.312   2.758   8.733  0.3593  0.1418  0.0473
   62CHL1  H26A 7062   1.244   2.682   8.777 -1.4464  0.3310 -2.3301
   62CHL1  H26B 7063   1.292   2.768   8.624  1.7985 -0.5353 -0.2922
   62CHL1  H26C 7064   1.416   2.723   8.751  0.5101 -0.0744 -1.1899
   62CHL1   C27 7065   1.372   2.990   8.708  0.5768 -0.4034 -0.8306
   62CHL1  H27A 7066   1.320   2.998   8.610 -1.2478 -1.3322  0.0384
   62CHL1  H27B 7067   1.384   3.086   8.763 -1.1794 -1.2238  1.0105
   62CHL1  H27C 7068   1.472   2.947   8.685  1.3150 -2.0477  4.6870
   63CHL1    C3 7069   2.383   4.726  10.337  0.0756 -0.5080  0.0080
   63CHL1    H3 7070   2.319   4.814  10.354 -3.6677 -2.8934 -1.1663
   63CHL1    O3 7071   2.400   4.672  10.471  0.4993  0.4750  0.7850
   63CHL1   H3' 7072   2.454   4.594  10.455 -0.5170 -0.0995  0.0296
   63CHL1    C4 7073   2.299   4.623  10.254 -0.3758 -0.1642 -0.2605
   63CHL1   H4A 7074   2.350   4.524  10.256 -1.7213 -0.9327 -2.3686
   63CHL1   H4B 7075   2.199   4.609  10.300  0.2830 -1.9843  0.6512
   63CHL1    C5 7076   2.298   4.668  10.110  0.8761 -0.5182 -0.0301
   63CHL1    C6 7077   2.172   4.683  10.056  0.3513  0.6535 -0.2673
   63CHL1    H6 7078   2.080   4.667  10.114 -0.6133 -1.6190 -2.2935
   63CHL1    C7 7079   2.145   4.738   9.920  0.4777  0.4494  0.0914
   63CHL1   H7A 7080   2.073   4.668   9.870  2.1218 -1.4044  0.2510
   63CHL1   H7B 7081   2.123   4.846   9.926  0.1993  0.3559  0.7407
   63CHL1    C8 7082   2.271   4.724   9.820 -0.3094  0.6317  0.0666
   63CHL1    H8 7083   2.284   4.616   9.798  0.6121  0.2840  2.1833
   63CHL1   C14 7084   2.244   4.823   9.706 -0.2960 -0.2252 -0.5097
   63CHL1   H14 7085   2.244   4.924   9.753 -1.3780 -1.0289  1.2671
   63CHL1   C15 7086   2.123   4.812   9.619 -0.3004  0.7977  0.1096
   63CHL1  H15A 7087   2.112   4.707   9.586  0.1325  0.8369 -0.1575
   63CHL1  H15B 7088   2.032   4.836   9.678 -1.6736 -1.3444 -1.0665
   63CHL1   C16 7089   2.151   4.891   9.484  0.1558  0.3925 -0.1303
   63CHL1  H16A 7090   2.136   4.823   9.397  0.0290 -2.4921  2.0555
   63CHL1  H16B 7091   2.097   4.988   9.485  1.2189  0.9950 -0.8502
   63CHL1   C17 7092   2.305   4.929   9.499  0.8160 -0.2176 -0.7466
   63CHL1   H17 7093   2.299   5.027   9.550 -1.1479 -0.1199 -1.1543
   63CHL1   C13 7094   2.363   4.832   9.608  0.7958  0.3992 -0.4709
   63CHL1   C18 7095   2.383   4.694   9.533  0.1571  0.2272  0.3492
   63CHL1  H18A 7096   2.427   4.620   9.603  1.2332  1.6707  1.2573
   63CHL1  H18B 7097   2.297   4.642   9.487  1.5702 -1.1734 -0.7597
   63CHL1  H18C 7098   2.458   4.709   9.452 -0.5736 -0.3908 -0.4341
   63CHL1   C12 7099   2.485   4.885   9.676 -0.6391 -0.2228  0.2155
   63CHL1  H12A 7100   2.574   4.879   9.609 -1.0744 -1.4798 -0.2553
   63CHL1  H12B 7101   2.465   4.992   9.698 -0.2307 -0.4691  1.8573
   63CHL1   C11 7102   2.521   4.803   9.797  0.2625  0.2578  0.0332
   63CHL1  H11A 7103   2.564   4.709   9.757 -0.6116 -0.3771  0.5820
   63CHL1  H11B 7104   2.600   4.865   9.845  0.3600  0.5495 -0.5052
   63CHL1    C9 7105   2.396   4.778   9.891  0.0163  0.6573 -0.2275
   63CHL1    H9 7106   2.360   4.880   9.921 -1.5945 -0.0483  0.3277
   63CHL1   C10 7107   2.423   4.709  10.028 -0.3243 -0.1961  0.1188
   63CHL1   C19 7108   2.512   4.582  10.013 -0.2615 -0.3851  0.3467
   63CHL1  H19A 7109   2.612   4.613   9.977 -0.4162 -0.3318 -0.0355
   63CHL1  H19B 7110   2.509   4.529  10.111  0.2444  1.4702  1.3896
   63CHL1  H19C 7111   2.456   4.521   9.939 -0.3222 -0.1167  0.1727
   63CHL1    C1 7112   2.497   4.805  10.125 -0.9553  0.2461 -0.4350
   63CHL1   H1A 7113   2.598   4.819  10.080 -0.2118  1.0633  1.4269
   63CHL1   H1B 7114   2.434   4.897  10.128  0.7299  1.4038  0.2942
   63CHL1    C2 7115   2.522   4.751  10.266  0.1848  0.2824 -0.3929
   63CHL1   H2A 7116   2.586   4.816  10.329  0.8351 -1.2045  0.5208
   63CHL1   H2B 7117   2.576   4.654  10.264 -0.8979 -0.3281 -0.7577
   63CHL1   C20 7118   2.383   4.949   9.368 -0.2670  1.1370 -0.3652
   63CHL1   H20 7119   2.390   4.848   9.324  2.5812  2.4354 -3.0637
   63CHL1   C21 7120   2.519   5.024   9.392  0.7044  0.0794 -0.3346
   63CHL1  H21A 7121   2.597   4.951   9.422  0.7471  0.5138  0.6479
   63CHL1  H21B 7122   2.488   5.091   9.475  0.8988 -0.4996  0.2098
   63CHL1  H21C 7123   2.567   5.073   9.305  2.4245  1.3425  1.2897
   63CHL1   C22 7124   2.302   5.032   9.266 -0.1994 -0.3988 -0.1223
   63CHL1  H22A 7125   2.200   4.989   9.262 -0.8454  1.2315 -2.1015
   63CHL1  H22B 7126   2.295   5.140   9.293  0.6577 -0.2892 -0.3061
   63CHL1   C23 7127   2.356   5.042   9.127 -0.4530  0.2242 -0.1386
   63CHL1  H23A 7128   2.288   5.099   9.060  1.3492  0.3463 -1.9143
   63CHL1  H23B 7129   2.453   5.095   9.114 -0.2041 -0.5171 -1.3258
   63CHL1   C24 7130   2.366   4.904   9.060  0.5945  0.6576 -0.7059
   63CHL1  H24A 7131   2.438   4.845   9.121  1.6146  0.8112 -1.7529
   63CHL1  H24B 7132   2.272   4.847   9.076 -0.2280  1.9046 -0.9902
   63CHL1   C25 7133   2.408   4.907   8.908  0.8986 -0.2510  0.6052
   63CHL1   H25 7134   2.499   4.965   8.882 -0.6035  1.6080 -0.6218
   63CHL1   C26 7135   2.429   4.767   8.862 -1.1102 -0.5931 -0.6156
   63CHL1  H26A 7136   2.332   4.716   8.844 -2.5410  0.7493  2.9242
   63CHL1  H26B 7137   2.494   4.768   8.771 -0.6199  0.8123 -0.2573
   63CHL1  H26C 7138   2.496   4.721   8.938 -1.0814 -1.2888 -1.0514
   63CHL1   C27 7139   2.296   4.971   8.815 -0.6686 -0.1845  0.0880
   63CHL1  H27A 7140   2.204   4.921   8.851 -0.9758  0.1810 -0.1960
   63CHL1  H27B 7141   2.283   5.081   8.822  0.0113  0.0440 -1.9383
   63CHL1  H27C 7142   2.318   4.939   8.711  0.2592  0.2687  0.1328
   64CHL1    C3 7143   1.658   3.751   9.854  0.0627  0.1135 -0.3734
   64CHL1    H3 7144   1.620   3.658   9.806 -0.6184 -0.0803  0.5370
   64CHL1    O3 7145   1.687   3.720   9.987  0.4318 -0.1598 -0.2906
   64CHL1   H3' 7146   1.709   3.806  10.024 -0.6445 -0.4081  0.9869
   64CHL1    C4 7147   1.796   3.791   9.796  0.7161  0.6723  0.1902
   64CHL1   H4A 7148   1.845   3.877   9.846  4.3814 -0.6524 -0.9639
   64CHL1   H4B 7149   1.865   3.705   9.810  0.9870  0.9399  0.5063
   64CHL1    C5 7150   1.779   3.820   9.648  0.0981  0.6428 -0.1859
   64CHL1    C6 7151   1.849   3.754   9.553  0.8734 -0.4265 -0.5887
   64CHL1    H6 7152   1.910   3.669   9.588  0.4760 -0.6040 -0.3193
   64CHL1    C7 7153   1.841   3.787   9.403 -0.1600 -0.7766 -0.2574
   64CHL1   H7A 7154   1.941   3.798   9.357  0.5746  0.1654  1.5086
   64CHL1   H7B 7155   1.776   3.711   9.354 -1.8636 -0.4634  1.4662
   64CHL1    C8 7156   1.790   3.937   9.380  0.1765 -0.7268 -0.5654
   64CHL1    H8 7157   1.869   4.009   9.410  0.6239  0.0212 -3.4005
   64CHL1   C14 7158   1.764   3.960   9.233  0.5793  0.1968 -0.0088
   64CHL1   H14 7159   1.700   3.875   9.198 -0.0022 -0.3573  2.3338
   64CHL1   C15 7160   1.884   3.950   9.139  0.1984 -0.1298  0.5393
   64CHL1  H15A 7161   1.958   4.023   9.177  0.4896  0.8172 -1.7320
   64CHL1  H15B 7162   1.922   3.846   9.133 -1.2715 -0.6842  0.5904
   64CHL1   C16 7163   1.836   4.007   9.006  0.7619  0.7914 -0.1825
   64CHL1  H16A 7164   1.906   4.081   8.961 -0.6172  1.6913 -0.8748
   64CHL1  H16B 7165   1.819   3.920   8.938 -0.2627 -1.4784  2.8626
   64CHL1   C17 7166   1.699   4.083   9.043  0.4127  0.3765 -0.6858
   64CHL1   H17 7167   1.620   4.008   9.022  0.3648  1.2677 -4.0301
   64CHL1   C13 7168   1.702   4.093   9.197 -0.2184  0.3662  0.1903
   64CHL1   C18 7169   1.787   4.212   9.242  0.3545 -0.2817  0.9170
   64CHL1  H18A 7170   1.886   4.226   9.192  0.0561  1.8069  0.8693
   64CHL1  H18B 7171   1.736   4.311   9.236  0.6815 -0.2016 -0.9636
   64CHL1  H18C 7172   1.826   4.195   9.344  3.1068 -1.0459 -0.2073
   64CHL1   C12 7173   1.561   4.093   9.264  0.0229 -0.0252  0.0014
   64CHL1  H12A 7174   1.510   4.187   9.234 -0.8598 -0.8521 -1.1315
   64CHL1  H12B 7175   1.490   4.018   9.223 -0.2967 -0.3764  1.1584
   64CHL1   C11 7176   1.578   4.078   9.415 -0.4110  0.1795 -0.2300
   64CHL1  H11A 7177   1.620   4.172   9.457  0.3312  0.7033 -2.1025
   64CHL1  H11B 7178   1.476   4.064   9.457 -0.3486 -1.2377 -0.5186
   64CHL1    C9 7179   1.655   3.950   9.459  0.4975  0.1168 -0.8627
   64CHL1    H9 7180   1.593   3.863   9.430 -0.4731  0.3017  0.6152
   64CHL1   C10 7181   1.679   3.935   9.614  0.5327  0.1073  0.0971
   64CHL1   C19 7182   1.749   4.059   9.670 -0.3930  0.0519  0.4651
   64CHL1  H19A 7183   1.846   4.069   9.615 -1.3475  0.5464 -1.1576
   64CHL1  H19B 7184   1.687   4.151   9.662  1.1123  1.4474  3.7043
   64CHL1  H19C 7185   1.775   4.051   9.778 -1.5951 -0.2708  0.7326
   64CHL1    C1 7186   1.549   3.893   9.687 -0.1421 -0.1703 -0.1026
   64CHL1   H1A 7187   1.478   3.978   9.684 -0.5611 -0.5076  0.1011
   64CHL1   H1B 7188   1.500   3.805   9.639  1.1459 -2.1131  2.0467
   64CHL1    C2 7189   1.565   3.867   9.838  0.0814  0.8391  0.7967
   64CHL1   H2A 7190   1.468   3.848   9.890 -0.9398  1.7157 -0.7647
   64CHL1   H2B 7191   1.596   3.958   9.894  0.5941 -0.0615  2.0030
   64CHL1   C20 7192   1.682   4.202   8.953  0.2996  0.2274 -0.2608
   64CHL1   H20 7193   1.775   4.261   8.964 -1.2554  2.4558  1.2911
   64CHL1   C21 7194   1.551   4.282   8.988 -0.4508  0.0079 -0.1091
   64CHL1  H21A 7195   1.583   4.346   9.073  0.8916 -3.6719  2.3169
   64CHL1  H21B 7196   1.474   4.207   9.017 -1.0659  1.0007  0.8384
   64CHL1  H21C 7197   1.524   4.342   8.899 -0.6228 -0.2614 -0.2393
   64CHL1   C22 7198   1.687   4.148   8.811 -0.2307 -0.2793  0.7219
   64CHL1  H22A 7199   1.763   4.072   8.784  1.2910  1.1441  0.8860
   64CHL1  H22B 7200   1.588   4.103   8.788 -0.7246  1.6072 -1.0419
   64CHL1   C23 7201   1.702   4.255   8.705 -0.2128  0.3222  0.2741
   64CHL1  H23A 7202   1.622   4.328   8.731 -1.4458 -1.3118  1.1884
   64CHL1  H23B 7203   1.804   4.298   8.705  0.4128 -1.1236 -0.7191
   64CHL1   C24 7204   1.681   4.184   8.562  0.4776 -0.5396 -0.4128
   64CHL1  H24A 7205   1.765   4.113   8.547  1.4588  0.6584 -0.6670
   64CHL1  H24B 7206   1.587   4.125   8.571  0.6855 -1.3476 -3.2701
   64CHL1   C25 7207   1.665   4.272   8.439  0.4197  0.0820  1.2695
   64CHL1   H25 7208   1.659   4.204   8.352 -0.9645  1.1112  0.5483
   64CHL1   C26 7209   1.536   4.359   8.444 -0.6967  0.1283  0.4344
   64CHL1  H26A 7210   1.452   4.289   8.424 -1.4225  1.7856 -2.5681
   64CHL1  H26B 7211   1.507   4.407   8.540  0.4086  0.8967  0.3909
   64CHL1  H26C 7212   1.521   4.443   8.372 -1.7448 -0.7546 -0.3961
   64CHL1   C27 7213   1.782   4.368   8.412  0.3451  0.5571  0.1115
   64CHL1  H27A 7214   1.793   4.392   8.304 -0.2382 -1.0723 -0.3268
   64CHL1  H27B 7215   1.779   4.470   8.455  2.0484  0.6834 -0.0185
   64CHL1  H27C 7216   1.880   4.325   8.443 -0.3351 -2.1474 -1.2549
   65CHL1    C3 7217   4.352   1.168  10.139  0.0716  0.2196 -0.4967
   65CHL1    H3 7218   4.273   1.245  10.148 -0.7740 -0.9273  2.6819
   65CHL1    O3 7219   4.359   1.108  10.270 -0.0698  0.0506  0.1498
   65CHL1   H3' 7220   4.451   1.084  10.286  0.1560  0.4498 -0.5160
   65CHL1    C4 7221   4.295   1.059  10.037  0.1200 -0.3236  0.1708
   65CHL1   H4A 7222   4.359   0.969  10.043 -1.7243 -1.8043 -1.7011
   65CHL1   H4B 7223   4.196   1.025  10.074  0.8906 -1.9319  0.7918
   65CHL1    C5 7224   4.289   1.121   9.892  0.9067  0.2008 -0.7317
   65CHL1    C6 7225   4.177   1.119   9.813  0.1713  0.0888  0.6036
   65CHL1    H6 7226   4.087   1.072   9.855 -0.0390  0.5838  0.7203
   65CHL1    C7 7227   4.163   1.187   9.679 -0.4100 -0.8101 -0.0711
   65CHL1   H7A 7228   4.122   1.117   9.603  0.0957  2.4829 -3.5424
   65CHL1   H7B 7229   4.097   1.276   9.683  0.1633 -0.3728 -0.3670
   65CHL1    C8 7230   4.302   1.232   9.619 -0.2797 -0.0405 -0.1167
   65CHL1    H8 7231   4.350   1.145   9.570  0.0698  0.5970 -0.9295
   65CHL1   C14 7232   4.295   1.331   9.501  0.2862 -0.4888 -0.1469
   65CHL1   H14 7233   4.261   1.427   9.545 -1.4926 -0.4551 -1.5278
   65CHL1   C15 7234   4.189   1.295   9.393 -0.0656 -0.2260 -0.7413
   65CHL1  H15A 7235   4.180   1.185   9.382 -0.7718 -0.0781 -1.6488
   65CHL1  H15B 7236   4.088   1.326   9.426  0.3248 -0.0376  0.2917
   65CHL1   C16 7237   4.238   1.355   9.266  0.3208  0.9235 -0.0267
   65CHL1  H16A 7238   4.274   1.279   9.193  0.2237  1.2228 -0.3852
   65CHL1  H16B 7239   4.169   1.426   9.216  0.3820  0.5867 -0.6020
   65CHL1   C17 7240   4.364   1.435   9.301 -0.1863  0.0807  0.3857
   65CHL1   H17 7241   4.332   1.537   9.330 -1.3101 -0.4597  1.0688
   65CHL1   C13 7242   4.419   1.365   9.425 -0.5406 -0.4264  0.0952
   65CHL1   C18 7243   4.498   1.237   9.381 -0.7254  0.2102  0.1203
   65CHL1  H18A 7244   4.531   1.178   9.469  0.5518  0.1918 -0.3580
   65CHL1  H18B 7245   4.455   1.172   9.302  2.9877  0.6858 -2.4070
   65CHL1  H18C 7246   4.593   1.276   9.339  1.4079 -1.7454  2.8596
   65CHL1   C12 7247   4.500   1.440   9.527 -0.1010  0.1123  0.3490
   65CHL1  H12A 7248   4.600   1.464   9.486  0.4121  0.9568  2.0830
   65CHL1  H12B 7249   4.441   1.530   9.553 -0.2134  0.3914 -0.8285
   65CHL1   C11 7250   4.519   1.360   9.666  0.2700  0.3281 -0.5570
   65CHL1  H11A 7251   4.594   1.286   9.629 -0.8362 -0.5440 -1.0705
   65CHL1  H11B 7252   4.574   1.417   9.743  1.7984 -0.1672 -1.2608
   65CHL1    C9 7253   4.389   1.289   9.722 -0.4447 -0.2132 -0.2411
   65CHL1    H9 7254   4.328   1.369   9.768  1.2838 -0.3239  2.3592
   65CHL1   C10 7255   4.414   1.201   9.845  0.2672 -0.0281  0.3525
   65CHL1   C19 7256   4.513   1.088   9.815  0.1419 -0.5343  0.3375
   65CHL1  H19A 7257   4.618   1.124   9.805  0.6622 -1.5259  2.0123
   65CHL1  H19B 7258   4.517   1.003   9.887 -3.1086 -0.9764  0.0694
   65CHL1  H19C 7259   4.500   1.048   9.712 -0.4075 -0.4336  0.3661
   65CHL1    C1 7260   4.481   1.285   9.961  0.0189 -0.2881  0.2434
   65CHL1   H1A 7261   4.580   1.328   9.938  0.0293 -0.1486  0.5393
   65CHL1   H1B 7262   4.416   1.375   9.967  1.1454  0.4535  1.7624
   65CHL1    C2 7263   4.489   1.224  10.100  0.0269 -0.3454  0.5254
   65CHL1   H2A 7264   4.516   1.292  10.184  0.6936  2.5924 -1.9931
   65CHL1   H2B 7265   4.556   1.137  10.117 -0.4895 -0.7203  0.6646
   65CHL1   C20 7266   4.461   1.451   9.185  0.7169 -0.3686  1.0960
   65CHL1   H20 7267   4.523   1.362   9.164  1.1647  0.4369 -1.0771
   65CHL1   C21 7268   4.544   1.578   9.217  0.1909  0.5080  0.5882
   65CHL1  H21A 7269   4.614   1.597   9.134 -2.6974 -2.6291 -2.7334
   65CHL1  H21B 7270   4.606   1.557   9.307  0.4278  0.3239  0.3826
   65CHL1  H21C 7271   4.486   1.672   9.228 -2.0927 -0.5049 -2.4453
   65CHL1   C22 7272   4.392   1.479   9.041 -0.5036  0.1846 -0.2465
   65CHL1  H22A 7273   4.315   1.404   9.016  0.5481 -0.9809 -0.0134
   65CHL1  H22B 7274   4.339   1.576   9.049 -0.9816 -0.2284  1.9466
   65CHL1   C23 7275   4.491   1.488   8.922 -0.3214 -0.1157  0.3810
   65CHL1  H23A 7276   4.544   1.585   8.920  3.8726 -2.2748  1.0021
   65CHL1  H23B 7277   4.564   1.404   8.928  0.2062  0.0551 -2.7923
   65CHL1   C24 7278   4.432   1.451   8.783  0.3921 -0.1090  0.2964
   65CHL1  H24A 7279   4.372   1.358   8.789 -0.6495  0.6256  1.5296
   65CHL1  H24B 7280   4.370   1.535   8.745  1.3415  1.1018  1.3825
   65CHL1   C25 7281   4.554   1.420   8.685  0.3357 -0.0381  0.5106
   65CHL1   H25 7282   4.616   1.344   8.738  2.5325  2.1783  1.2193
   65CHL1   C26 7283   4.515   1.344   8.556 -0.3146 -0.5131  0.2207
   65CHL1  H26A 7284   4.451   1.407   8.490 -0.4062  0.7910  1.5326
   65CHL1  H26B 7285   4.598   1.309   8.491 -0.8785  1.2449 -1.5182
   65CHL1  H26C 7286   4.439   1.266   8.575 -0.6374 -0.1595  0.3830
   65CHL1   C27 7287   4.640   1.552   8.667 -0.6869 -0.1271  0.3121
   65CHL1  H27A 7288   4.571   1.631   8.630 -0.2984  1.2930  2.5626
   65CHL1  H27B 7289   4.685   1.595   8.759  0.2374  0.1516 -0.2518
   65CHL1  H27C 7290   4.723   1.529   8.596 -0.6884  0.8626 -0.0233
   66CHL1    C3 7291   2.507   6.584  10.609  0.0761  0.8831 -0.0728
   66CHL1    H3 7292   2.402   6.610  10.636 -0.3772 -0.7821 -0.2316
   66CHL1    O3 7293   2.574   6.605  10.730 -0.2471  0.1215  0.3720
   66CHL1   H3' 7294   2.660   6.563  10.715 -1.0660 -1.5448  0.1561
   66CHL1    C4 7295   2.526   6.440  10.557 -0.2831  0.1191 -0.7699
   66CHL1   H4A 7296   2.633   6.413  10.573 -0.3703  1.2672  1.9729
   66CHL1   H4B 7297   2.471   6.376  10.629  0.8955 -0.0969 -0.0473
   66CHL1    C5 7298   2.486   6.430  10.405 -0.2526 -0.2381 -0.1631
   66CHL1    C6 7299   2.392   6.340  10.363 -0.5617 -0.0026  0.2147
   66CHL1    H6 7300   2.345   6.278  10.441  1.2642  0.1175  1.4669
   66CHL1    C7 7301   2.359   6.317  10.217  0.4223  0.1180 -0.2648
   66CHL1   H7A 7302   2.340   6.209  10.199 -0.3175 -0.0097  1.2182
   66CHL1   H7B 7303   2.270   6.383  10.213  2.0178  2.4853  2.0657
   66CHL1    C8 7304   2.471   6.379  10.127  0.4658  0.2375 -0.2996
   66CHL1    H8 7305   2.562   6.315  10.138  0.5705  0.5409  0.6106
   66CHL1   C14 7306   2.426   6.376   9.982  0.3455  0.6196  0.6311
   66CHL1   H14 7307   2.336   6.439   9.972 -0.0456  0.4147  2.6182
   66CHL1   C15 7308   2.370   6.243   9.933 -0.3731  0.5488  0.6194
   66CHL1  H15A 7309   2.432   6.159   9.970 -0.1795  1.0547  1.4711
   66CHL1  H15B 7310   2.266   6.215   9.959 -1.1339  0.7824 -1.9971
   66CHL1   C16 7311   2.383   6.257   9.781  0.2617 -0.0527  0.1998
   66CHL1  H16A 7312   2.448   6.175   9.743  1.6421  2.2664 -2.6065
   66CHL1  H16B 7313   2.287   6.255   9.726 -0.7181  1.5581  1.8068
   66CHL1   C17 7314   2.458   6.389   9.752  0.3438  0.0229 -0.5659
   66CHL1   H17 7315   2.373   6.460   9.742 -1.0633 -0.7624  4.5905
   66CHL1   C13 7316   2.532   6.427   9.877  0.5822  0.0360 -0.2287
   66CHL1   C18 7317   2.665   6.351   9.884 -0.1952 -0.1569 -0.0310
   66CHL1  H18A 7318   2.649   6.244   9.856 -0.5997  0.1913 -1.1576
   66CHL1  H18B 7319   2.744   6.397   9.822  0.0145 -0.5174 -0.0328
   66CHL1  H18C 7320   2.702   6.355   9.989 -1.3808  1.8843  0.3307
   66CHL1   C12 7321   2.550   6.576   9.911 -0.2331 -0.5320 -0.3307
   66CHL1  H12A 7322   2.611   6.638   9.843 -2.5279 -1.2085 -3.0922
   66CHL1  H12B 7323   2.449   6.621   9.896  0.1510  0.6947  0.6713
   66CHL1   C11 7324   2.602   6.599  10.057  0.0222  0.3738 -0.6859
   66CHL1  H11A 7325   2.705   6.560  10.044  0.1448 -0.3711  2.1394
   66CHL1  H11B 7326   2.603   6.706  10.086  1.8800  0.2577 -0.2800
   66CHL1    C9 7327   2.510   6.521  10.164 -0.2726  0.0850  0.2348
   66CHL1    H9 7328   2.409   6.566  10.157 -0.2090  0.5005  1.8616
   66CHL1   C10 7329   2.561   6.525  10.313  0.6617  0.1483  0.7861
   66CHL1   C19 7330   2.711   6.480  10.320 -0.0573  0.0464 -0.9060
   66CHL1  H19A 7331   2.750   6.485  10.424 -3.5775  1.9896  0.4036
   66CHL1  H19B 7332   2.727   6.375  10.285  1.7796  0.2068 -0.6084
   66CHL1  H19C 7333   2.769   6.545  10.251  0.8531  0.6185  0.3643
   66CHL1    C1 7334   2.526   6.664  10.371  0.4932  0.0911 -0.4139
   66CHL1   H1A 7335   2.565   6.751  10.314  0.3586 -0.2823 -1.0737
   66CHL1   H1B 7336   2.417   6.687  10.371  0.2355 -1.1119 -0.9015
   66CHL1    C2 7337   2.584   6.681  10.511 -0.7307  0.4122 -0.3455
   66CHL1   H2A 7338   2.565   6.784  10.548  1.8476  0.9278 -0.4167
   66CHL1   H2B 7339   2.692   6.659  10.519 -0.9503 -0.3241  0.6323
   66CHL1   C20 7340   2.540   6.391   9.623 -0.0867  0.3072 -0.0495
   66CHL1   H20 7341   2.620   6.314   9.631  1.3629  1.3247 -3.8769
   66CHL1   C21 7342   2.600   6.531   9.598  0.0793 -0.2106 -0.1421
   66CHL1  H21A 7343   2.676   6.523   9.517  0.0474  3.3480 -0.6044
   66CHL1  H21B 7344   2.669   6.570   9.675 -3.0851 -0.0338  2.7185
   66CHL1  H21C 7345   2.520   6.603   9.567  1.0271  0.3516 -1.3532
   66CHL1   C22 7346   2.460   6.347   9.487  0.3688  0.1357  0.2386
   66CHL1  H22A 7347   2.409   6.250   9.505  0.4910  0.7916  4.8029
   66CHL1  H22B 7348   2.384   6.427   9.477  0.3220  0.0916  0.2417
   66CHL1   C23 7349   2.549   6.344   9.361  0.4821 -0.4031 -0.7458
   66CHL1  H23A 7350   2.474   6.312   9.285 -1.0087 -1.7446  1.2107
   66CHL1  H23B 7351   2.576   6.449   9.336 -0.7428  0.2384  0.5563
   66CHL1   C24 7352   2.667   6.239   9.357  0.2677 -0.5957  0.2771
   66CHL1  H24A 7353   2.725   6.258   9.450  2.3004 -1.7775 -0.7013
   66CHL1  H24B 7354   2.621   6.139   9.376 -1.6202 -0.0762 -1.3953
   66CHL1   C25 7355   2.753   6.226   9.230  0.1557  0.5010  0.6985
   66CHL1   H25 7356   2.813   6.319   9.223  1.4188 -0.2919  0.9209
   66CHL1   C26 7357   2.855   6.111   9.247 -0.2595 -0.0572 -0.0968
   66CHL1  H26A 7358   2.806   6.013   9.265 -1.4098  0.3065 -1.2111
   66CHL1  H26B 7359   2.911   6.086   9.155  1.1037 -1.9265  1.2060
   66CHL1  H26C 7360   2.921   6.142   9.331 -1.4263  1.4850  0.2727
   66CHL1   C27 7361   2.669   6.202   9.100 -0.0821  0.1824 -0.1423
   66CHL1  H27A 7362   2.595   6.280   9.074 -0.6898 -1.1897 -2.7127
   66CHL1  H27B 7363   2.731   6.179   9.010  0.2303 -0.0861  0.1391
   66CHL1  H27C 7364   2.601   6.115   9.113  1.0019 -0.4978  1.0216
   67CHL1    C3 7365   6.678   6.570  10.450 -0.3475  0.0323  0.2155
   67CHL1    H3 7366   6.642   6.675  10.461 -0.5670 -0.0697  0.4629
   67CHL1    O3 7367   6.674   6.503  10.577 -0.5158  0.3749  0.4972
   67CHL1   H3' 7368   6.582   6.508  10.603 -0.7808  1.9060 -0.6528
   67CHL1    C4 7369   6.566   6.491  10.371 -0.3132  0.2162 -0.4791
   67CHL1   H4A 7370   6.596   6.385  10.379  0.9975  0.4654 -2.0299
   67CHL1   H4B 7371   6.474   6.504  10.432  0.9205 -2.2340  2.0410
   67CHL1    C5 7372   6.564   6.543  10.230  0.2298  0.2022  0.0807
   67CHL1    C6 7373   6.448   6.584  10.171  0.2035  0.1318 -1.0357
   67CHL1    H6 7374   6.356   6.605  10.228  1.3244  2.3789  0.0699
   67CHL1    C7 7375   6.436   6.642  10.032 -0.7520  0.4125 -0.3457
   67CHL1   H7A 7376   6.336   6.613   9.994 -0.1243  0.7064 -2.2780
   67CHL1   H7B 7377   6.436   6.753  10.030  0.7783  0.4440  0.4183
   67CHL1    C8 7378   6.548   6.582   9.934  0.0592 -0.1229  0.0525
   67CHL1    H8 7379   6.528   6.473   9.943 -0.6904 -0.3071 -3.2026
   67CHL1   C14 7380   6.532   6.647   9.793 -0.2617 -0.4629 -0.0393
   67CHL1   H14 7381   6.542   6.757   9.806  0.5731 -0.3364 -1.6843
   67CHL1   C15 7382   6.390   6.644   9.728  0.0300 -0.0027  0.0322
   67CHL1  H15A 7383   6.355   6.541   9.749 -1.0731  1.1484  4.4030
   67CHL1  H15B 7384   6.320   6.711   9.783 -0.6038 -0.6478  0.0165
   67CHL1   C16 7385   6.424   6.671   9.586  0.2700  0.4196 -0.1603
   67CHL1  H16A 7386   6.396   6.586   9.521 -0.7973  0.4471  0.2508
   67CHL1  H16B 7387   6.379   6.764   9.547 -1.1726 -0.2301 -0.0862
   67CHL1   C17 7388   6.580   6.687   9.574  0.3286 -0.1539 -0.1047
   67CHL1   H17 7389   6.599   6.796   9.590 -2.0967  0.7165 -2.6491
   67CHL1   C13 7390   6.639   6.605   9.692 -0.0397 -0.3888 -0.0000
   67CHL1   C18 7391   6.643   6.453   9.678 -0.1183  0.0205 -0.1256
   67CHL1  H18A 7392   6.746   6.434   9.643 -0.9495 -1.8580 -1.6773
   67CHL1  H18B 7393   6.637   6.404   9.777  0.9544  1.6400  0.7675
   67CHL1  H18C 7394   6.564   6.416   9.609  0.3928 -2.3347  0.5458
   67CHL1   C12 7395   6.764   6.664   9.768 -0.3103  0.0971  0.7154
   67CHL1  H12A 7396   6.853   6.666   9.701  0.5838  0.9475  1.9069
   67CHL1  H12B 7397   6.752   6.773   9.787 -0.3040  0.3091 -0.4489
   67CHL1   C11 7398   6.798   6.594   9.900 -0.2278 -0.0609 -0.3879
   67CHL1  H11A 7399   6.810   6.486   9.877  2.2461  0.3929 -1.3353
   67CHL1  H11B 7400   6.896   6.634   9.933  0.1067 -1.8176  0.8662
   67CHL1    C9 7401   6.683   6.612  10.002 -0.0265 -0.2706  0.2007
   67CHL1    H9 7402   6.682   6.721  10.025 -0.6564 -0.2514  0.0962
   67CHL1   C10 7403   6.694   6.538  10.142 -0.6892  1.0196  0.0907
   67CHL1   C19 7404   6.735   6.390  10.129  0.3546 -0.5046 -0.4368
   67CHL1  H19A 7405   6.757   6.359  10.234 -1.6445  0.5489  0.3286
   67CHL1  H19B 7406   6.658   6.329  10.078  0.0373  0.1782 -0.7710
   67CHL1  H19C 7407   6.829   6.380  10.070  0.3712 -0.4953 -0.4109
   67CHL1    C1 7408   6.809   6.605  10.228 -0.3622  0.0135 -0.2266
   67CHL1   H1A 7409   6.903   6.582  10.173 -0.0207  0.4076  0.1896
   67CHL1   H1B 7410   6.803   6.716  10.228  1.9115  0.1664 -0.7611
   67CHL1    C2 7411   6.822   6.572  10.379 -0.3203  0.6745 -0.5326
   67CHL1   H2A 7412   6.893   6.635  10.437  0.9557  0.8566 -2.2548
   67CHL1   H2B 7413   6.860   6.469  10.392  0.4178  0.6910 -2.4744
   67CHL1   C20 7414   6.633   6.647   9.435  0.4068  0.4609  0.0154
   67CHL1   H20 7415   6.594   6.544   9.417  0.9258  0.0221  1.3251
   67CHL1   C21 7416   6.788   6.651   9.429  0.4241  0.1522  0.5817
   67CHL1  H21A 7417   6.827   6.604   9.336 -2.8099  1.1039 -1.3468
   67CHL1  H21B 7418   6.826   6.594   9.516 -1.1776  1.2230  2.0315
   67CHL1  H21C 7419   6.810   6.759   9.427  2.1782 -0.2157 -1.8821
   67CHL1   C22 7420   6.577   6.743   9.322 -0.1184  0.0539  0.1011
   67CHL1  H22A 7421   6.469   6.756   9.344  0.7329  1.6922  3.7489
   67CHL1  H22B 7422   6.633   6.839   9.329  0.9047 -0.5060 -0.2629
   67CHL1   C23 7423   6.602   6.694   9.174 -0.2245 -0.6191 -0.0698
   67CHL1  H23A 7424   6.703   6.647   9.172  0.8800  1.6216  0.9780
   67CHL1  H23B 7425   6.529   6.614   9.148  1.2133 -2.0225  0.0953
   67CHL1   C24 7426   6.598   6.800   9.064 -0.2381 -0.0784  0.5502
   67CHL1  H24A 7427   6.496   6.837   9.039  0.4633  0.8278 -1.0693
   67CHL1  H24B 7428   6.660   6.889   9.086 -0.6228  0.2982  0.1400
   67CHL1   C25 7429   6.666   6.770   8.929  0.2316 -0.7785 -0.5048
   67CHL1   H25 7430   6.767   6.728   8.945  1.7287  2.8604  0.1564
   67CHL1   C26 7431   6.583   6.659   8.861  0.1880 -0.2967  0.3102
   67CHL1  H26A 7432   6.601   6.560   8.908 -0.8238 -0.1513  1.0243
   67CHL1  H26B 7433   6.472   6.670   8.862  0.1950 -0.1318 -0.7275
   67CHL1  H26C 7434   6.616   6.645   8.756  0.0764 -2.0866  0.5034
   67CHL1   C27 7435   6.678   6.900   8.851 -0.1924  0.3158  0.3006
   67CHL1  H27A 7436   6.581   6.940   8.813  0.4845  1.5357 -0.1948
   67CHL1  H27B 7437   6.745   6.970   8.906  0.5887  0.2657 -0.5649
   67CHL1  H27C 7438   6.739   6.891   8.759  1.1179  1.2868  1.0555
   68CHL1    C3 7439   4.378   0.595  10.166 -0.6730  0.7175 -0.0680
   68CHL1    H3 7440   4.269   0.615  10.166 -0.8489  0.0219  3.0482
   68CHL1    O3 7441   4.412   0.589  10.304 -0.0962 -0.0872  0.0554
   68CHL1   H3' 7442   4.507   0.574  10.309  0.2639  2.2018  0.3947
   68CHL1    C4 7443   4.397   0.454  10.098 -0.8970 -0.5234  0.0146
   68CHL1   H4A 7444   4.495   0.422  10.140 -0.8418 -1.7678 -1.0643
   68CHL1   H4B 7445   4.317   0.385  10.130 -1.3375 -0.7165 -1.5091
   68CHL1    C5 7446   4.417   0.455   9.952  0.2303  0.4049 -0.0363
   68CHL1    C6 7447   4.348   0.371   9.866 -0.2841  0.0712  0.2151
   68CHL1    H6 7448   4.263   0.308   9.895 -0.9490  1.5332  1.5060
   68CHL1    C7 7449   4.368   0.363   9.718 -0.1751  0.8592  0.0870
   68CHL1   H7A 7450   4.367   0.261   9.674  3.8307 -0.4654  2.8066
   68CHL1   H7B 7451   4.278   0.402   9.665  1.2507  1.9634 -1.5956
   68CHL1    C8 7452   4.497   0.435   9.675 -0.7939  0.4916  0.0077
   68CHL1    H8 7453   4.583   0.369   9.699  0.4258  1.7767 -0.8373
   68CHL1   C14 7454   4.490   0.462   9.526  0.4801 -0.1739  0.3652
   68CHL1   H14 7455   4.399   0.525   9.520 -0.5686 -1.4709  2.2656
   68CHL1   C15 7456   4.471   0.345   9.421 -0.2924 -0.7317  0.0780
   68CHL1  H15A 7457   4.537   0.257   9.437  0.1145 -0.3232  0.6593
   68CHL1  H15B 7458   4.362   0.322   9.424 -0.6281  0.7470 -0.3646
   68CHL1   C16 7459   4.519   0.415   9.285  0.5136  0.2539  0.3408
   68CHL1  H16A 7460   4.608   0.358   9.252 -1.0240 -0.0567 -3.5703
   68CHL1  H16B 7461   4.435   0.411   9.212 -1.7623  0.3070  2.8913
   68CHL1   C17 7462   4.570   0.561   9.322  0.3608  0.5729  0.5636
   68CHL1   H17 7463   4.473   0.615   9.324  0.8696  1.4621  1.3259
   68CHL1   C13 7464   4.605   0.557   9.473  0.0354  0.1913  0.4069
   68CHL1   C18 7465   4.748   0.486   9.497  1.0371 -0.3816  0.7643
   68CHL1  H18A 7466   4.776   0.475   9.604  1.5810  0.3817  0.7028
   68CHL1  H18B 7467   4.755   0.389   9.443 -0.6128  0.9911 -1.9994
   68CHL1  H18C 7468   4.819   0.549   9.439 -3.8434  2.0260 -3.0197
   68CHL1   C12 7469   4.597   0.688   9.543  0.0410 -0.1976  0.2466
   68CHL1  H12A 7470   4.684   0.750   9.513 -0.1005 -0.7294 -1.3220
   68CHL1  H12B 7471   4.498   0.731   9.519 -0.3134 -0.6766  0.8231
   68CHL1   C11 7472   4.610   0.673   9.693  0.4885  0.3336  0.5519
   68CHL1  H11A 7473   4.712   0.661   9.736  2.0239  1.8113 -2.5953
   68CHL1  H11B 7474   4.577   0.771   9.734  1.4316  2.0254 -2.5868
   68CHL1    C9 7475   4.508   0.570   9.752 -0.2686 -0.3913 -0.1773
   68CHL1    H9 7476   4.406   0.614   9.741 -0.3409 -0.4927  0.0834
   68CHL1   C10 7477   4.520   0.550   9.905 -0.3332 -0.3886  0.4187
   68CHL1   C19 7478   4.657   0.495   9.944  0.0535  0.6140 -0.3438
   68CHL1  H19A 7479   4.670   0.477  10.053 -0.5297 -0.9454 -0.5199
   68CHL1  H19B 7480   4.692   0.398   9.903  0.4491  0.2178  0.9054
   68CHL1  H19C 7481   4.748   0.557   9.931  1.4951 -1.3912 -0.0056
   68CHL1    C1 7482   4.487   0.686   9.968 -0.0676  1.3240  0.4768
   68CHL1   H1A 7483   4.562   0.761   9.935  0.5583 -0.4180 -2.2874
   68CHL1   H1B 7484   4.385   0.722   9.942 -0.6716  0.0026  0.9968
   68CHL1    C2 7485   4.480   0.697  10.122 -0.3939 -0.7577 -0.1623
   68CHL1   H2A 7486   4.450   0.799  10.152 -2.1855 -1.0486 -0.8817
   68CHL1   H2B 7487   4.578   0.678  10.170 -0.0789 -1.5371 -1.0928
   68CHL1   C20 7488   4.669   0.641   9.226 -0.1280 -0.8996 -0.3001
   68CHL1   H20 7489   4.758   0.664   9.289 -0.1144  0.0279 -0.6457
   68CHL1   C21 7490   4.601   0.776   9.190 -0.6017 -0.4762 -0.2407
   68CHL1  H21A 7491   4.667   0.844   9.132  1.7696 -1.7908  0.8841
   68CHL1  H21B 7492   4.552   0.822   9.279 -0.9636 -0.4410 -0.4559
   68CHL1  H21C 7493   4.514   0.754   9.124 -0.0052  1.8206 -1.8767
   68CHL1   C22 7494   4.718   0.560   9.101 -0.3678 -0.3638 -0.3019
   68CHL1  H22A 7495   4.779   0.480   9.147 -0.7260 -0.0254  0.7976
   68CHL1  H22B 7496   4.631   0.505   9.060 -1.2699 -0.1688  1.2999
   68CHL1   C23 7497   4.793   0.633   8.987 -0.0649 -0.8095 -0.1840
   68CHL1  H23A 7498   4.726   0.716   8.955 -0.2966 -1.5889 -1.7978
   68CHL1  H23B 7499   4.884   0.672   9.036  0.5987 -1.0216 -1.2342
   68CHL1   C24 7500   4.820   0.542   8.864  0.6081 -0.6088 -0.6078
   68CHL1  H24A 7501   4.895   0.462   8.882  2.6062  1.1047 -1.1552
   68CHL1  H24B 7502   4.732   0.484   8.827 -0.0274  0.2253 -0.4230
   68CHL1   C25 7503   4.878   0.630   8.755  0.0347 -0.1632 -0.4207
   68CHL1   H25 7504   4.799   0.693   8.707  1.1170 -0.1665 -2.2683
   68CHL1   C26 7505   4.990   0.723   8.794 -0.0341  0.0003  0.1309
   68CHL1  H26A 7506   5.034   0.765   8.701  1.3063 -2.6252 -0.4608
   68CHL1  H26B 7507   4.953   0.795   8.869 -0.1504  0.2955 -0.2072
   68CHL1  H26C 7508   5.067   0.653   8.833  0.6233  0.4295 -0.3704
   68CHL1   C27 7509   4.916   0.549   8.637 -0.7113  0.6927 -0.0168
   68CHL1  H27A 7510   4.840   0.471   8.615 -0.3498  0.0842  0.8648
   68CHL1  H27B 7511   4.927   0.607   8.542  1.3763 -1.2799 -1.0312
   68CHL1  H27C 7512   5.010   0.491   8.650 -1.0304  0.3164  0.6181
   69CHL1    C3 7513   3.451   5.676   6.736  0.7039  0.5283 -0.3983
   69CHL1    H3 7514   3.343   5.654   6.754  0.8168  0.7752  0.6306
   69CHL1    O3 7515   3.487   5.695   6.597 -0.0680 -0.3151  0.1933
   69CHL1   H3' 7516   3.578   5.725   6.594 -1.0193  2.6205 -4.2897
   69CHL1    C4 7517   3.495   5.802   6.818  0.0932 -0.0884 -0.3268
   69CHL1   H4A 7518   3.604   5.817   6.798  0.3389  0.4207  1.3148
   69CHL1   H4B 7519   3.447   5.896   6.784  0.7646  0.1425 -0.6511
   69CHL1    C5 7520   3.481   5.777   6.963  0.4542  0.8130  0.3775
   69CHL1    C6 7521   3.383   5.845   7.031 -0.2262  0.6995 -0.2118
   69CHL1    H6 7522   3.319   5.923   6.988 -1.4859 -0.5832 -0.7155
   69CHL1    C7 7523   3.345   5.812   7.177  0.4466  0.3686 -0.0877
   69CHL1   H7A 7524   3.326   5.906   7.233 -0.2274  1.2902 -1.8382
   69CHL1   H7B 7525   3.261   5.739   7.183  1.2983 -0.5956  0.3724
   69CHL1    C8 7526   3.459   5.734   7.261 -0.2395 -0.2874  0.6625
   69CHL1    H8 7527   3.548   5.799   7.276  1.2709 -2.2953  0.6378
   69CHL1   C14 7528   3.400   5.684   7.392 -0.0057 -0.1205  0.7282
   69CHL1   H14 7529   3.328   5.607   7.357  1.4879 -0.7507 -1.0808
   69CHL1   C15 7530   3.333   5.788   7.479 -0.1490 -0.0376  0.0591
   69CHL1  H15A 7531   3.391   5.883   7.484  0.9464 -0.5311 -2.5341
   69CHL1  H15B 7532   3.227   5.796   7.447 -0.3844 -1.2352  0.5171
   69CHL1   C16 7533   3.345   5.729   7.623  0.3782 -0.5434 -0.4151
   69CHL1  H16A 7534   3.405   5.798   7.686 -0.0094 -0.9358  0.3918
   69CHL1  H16B 7535   3.244   5.714   7.667 -0.0665 -0.8922 -1.5231
   69CHL1   C17 7536   3.433   5.598   7.614  0.5322 -0.5962 -0.0784
   69CHL1   H17 7537   3.357   5.517   7.602 -0.4046 -0.4407  4.2920
   69CHL1   C13 7538   3.509   5.616   7.475 -0.3149  0.6929  0.2063
   69CHL1   C18 7539   3.624   5.705   7.499 -0.1167 -0.7191 -0.7526
   69CHL1  H18A 7540   3.674   5.726   7.401 -1.0327 -0.7790 -1.2369
   69CHL1  H18B 7541   3.598   5.803   7.544  0.9828  0.3849 -2.4376
   69CHL1  H18C 7542   3.709   5.658   7.554 -0.9426  0.7363  1.8387
   69CHL1   C12 7543   3.555   5.491   7.401  0.1321 -0.1947  0.1532
   69CHL1  H12A 7544   3.630   5.429   7.454  0.3807 -0.5021 -0.5553
   69CHL1  H12B 7545   3.462   5.433   7.380  0.0276 -0.4563  1.3044
   69CHL1   C11 7546   3.608   5.511   7.255 -0.3845  0.5996 -0.6390
   69CHL1  H11A 7547   3.706   5.561   7.269 -0.7455  0.4799  2.8106
   69CHL1  H11B 7548   3.615   5.421   7.191  0.3270  0.3622 -0.2275
   69CHL1    C9 7549   3.514   5.611   7.179 -0.2623  0.3356  0.3482
   69CHL1    H9 7550   3.423   5.548   7.173 -0.4334  0.1125  4.1626
   69CHL1   C10 7551   3.557   5.659   7.034 -0.2710  0.2401 -0.1352
   69CHL1   C19 7552   3.705   5.698   7.038 -0.4441  0.7209 -0.0664
   69CHL1  H19A 7553   3.741   5.712   6.934 -1.8352  0.8501 -0.5418
   69CHL1  H19B 7554   3.727   5.781   7.109 -1.4758 -0.3425  1.5436
   69CHL1  H19C 7555   3.756   5.607   7.077 -1.5133  1.5282  3.4096
   69CHL1    C1 7556   3.539   5.533   6.935 -0.3522  0.0692 -0.1617
   69CHL1   H1A 7557   3.599   5.447   6.973 -0.7139  0.2370  0.8064
   69CHL1   H1B 7558   3.436   5.495   6.951 -0.0631 -1.4280 -1.7780
   69CHL1    C2 7559   3.553   5.563   6.786 -0.5541  0.0379 -0.4240
   69CHL1   H2A 7560   3.541   5.465   6.735 -2.5352 -1.1136  2.1663
   69CHL1   H2B 7561   3.653   5.607   6.762 -0.6987  0.4987 -0.1844
   69CHL1   C20 7562   3.517   5.555   7.737  0.0204  0.1253  0.2259
   69CHL1   H20 7563   3.611   5.615   7.738 -0.0358  0.2291  1.6748
   69CHL1   C21 7564   3.555   5.406   7.734  0.2921 -0.1151  0.2054
   69CHL1  H21A 7565   3.641   5.384   7.801  1.7937 -0.3168 -1.7332
   69CHL1  H21B 7566   3.599   5.382   7.635  2.2833  0.6488  0.8814
   69CHL1  H21C 7567   3.470   5.336   7.720 -0.9935  1.5042 -0.2355
   69CHL1   C22 7568   3.439   5.585   7.873 -0.5436 -0.0229  0.4767
   69CHL1  H22A 7569   3.424   5.695   7.880  1.1163  0.4210 -2.4237
   69CHL1  H22B 7570   3.340   5.534   7.874 -0.4702 -0.1767 -0.0557
   69CHL1   C23 7571   3.510   5.532   8.007  0.6840  0.4015 -0.4162
   69CHL1  H23A 7572   3.433   5.562   8.083 -0.1615  1.1253 -1.5420
   69CHL1  H23B 7573   3.507   5.422   7.995 -0.5495  0.3614  0.1007
   69CHL1   C24 7574   3.643   5.582   8.059  0.1317  0.0772 -0.1593
   69CHL1  H24A 7575   3.716   5.572   7.976  1.6217 -0.2608  1.1701
   69CHL1  H24B 7576   3.650   5.691   8.082 -0.3983 -0.4014  2.3899
   69CHL1   C25 7577   3.696   5.494   8.175 -0.5565 -0.2001  0.5553
   69CHL1   H25 7578   3.686   5.387   8.147 -0.4979 -0.5771  1.9237
   69CHL1   C26 7579   3.843   5.518   8.198  0.5121  0.4207 -0.3600
   69CHL1  H26A 7580   3.854   5.627   8.212 -1.7041  0.3650  2.2756
   69CHL1  H26B 7581   3.878   5.466   8.290 -0.4880 -0.4663 -0.4774
   69CHL1  H26C 7582   3.910   5.484   8.116  0.4381  0.8116 -0.5854
   69CHL1   C27 7583   3.615   5.509   8.306 -0.0025 -0.2616  0.1058
   69CHL1  H27A 7584   3.515   5.465   8.287  0.7544 -1.3206 -1.5095
   69CHL1  H27B 7585   3.672   5.447   8.380  0.3357  1.5218  1.3607
   69CHL1  H27C 7586   3.608   5.615   8.337 -0.6355 -0.5192  0.8657
   70CHL1    C3 7587   2.599   1.939   7.093 -0.6595  0.0692  0.1976
   70CHL1    H3 7588   2.670   1.854   7.095 -0.1151  0.4763 -1.2824
   70CHL1    O3 7589   2.575   1.960   6.956  0.6103  0.2261 -0.4307
   70CHL1   H3' 7590   2.614   2.047   6.945  2.0150  0.0858  2.8997
   70CHL1    C4 7591   2.466   1.889   7.155 -0.4237 -0.7964  0.6490
   70CHL1   H4A 7592   2.379   1.948   7.118  0.1676  0.3130  1.0045
   70CHL1   H4B 7593   2.431   1.792   7.115  0.0223 -0.2024 -1.2275
   70CHL1    C5 7594   2.474   1.874   7.298 -0.2410 -0.1115 -0.4885
   70CHL1    C6 7595   2.438   1.762   7.370 -0.5038  0.4683 -0.3904
   70CHL1    H6 7596   2.393   1.678   7.316  1.5770 -0.6615 -0.4098
   70CHL1    C7 7597   2.435   1.753   7.521 -0.2798 -0.4409  0.1612
   70CHL1   H7A 7598   2.334   1.723   7.557 -1.4390 -0.0764 -2.6421
   70CHL1   H7B 7599   2.515   1.685   7.559 -1.9367 -1.5520  1.7852
   70CHL1    C8 7600   2.456   1.889   7.595 -0.3106 -0.1826  0.0292
   70CHL1    H8 7601   2.362   1.948   7.589 -0.2660 -0.4254 -4.7083
   70CHL1   C14 7602   2.501   1.859   7.739  0.6570 -0.3570 -0.0589
   70CHL1   H14 7603   2.598   1.804   7.731 -1.3013 -4.0326  0.5945
   70CHL1   C15 7604   2.431   1.760   7.832  0.3678  0.0937  0.2671
   70CHL1  H15A 7605   2.322   1.780   7.821  0.2491 -1.6539 -2.1464
   70CHL1  H15B 7606   2.459   1.657   7.802  2.6746  0.3148  1.5286
   70CHL1   C16 7607   2.467   1.803   7.973 -0.7360  0.1327 -0.5840
   70CHL1  H16A 7608   2.375   1.844   8.020 -0.7663  1.2923 -1.6216
   70CHL1  H16B 7609   2.496   1.711   8.027 -0.3344 -0.1904 -1.3428
   70CHL1   C17 7610   2.570   1.923   7.964 -0.0488  0.5012 -0.1640
   70CHL1   H17 7611   2.672   1.879   7.958 -0.1322  0.1324  1.0517
   70CHL1   C13 7612   2.536   1.982   7.825 -0.1290 -0.8272 -0.2290
   70CHL1   C18 7613   2.416   2.085   7.833  0.3523 -0.2129  0.8432
   70CHL1  H18A 7614   2.433   2.181   7.887  0.8260  2.4360 -3.7099
   70CHL1  H18B 7615   2.355   2.107   7.743  2.6647  2.5700 -0.1285
   70CHL1  H18C 7616   2.336   2.032   7.889 -0.8520  0.1629 -0.5136
   70CHL1   C12 7617   2.655   2.052   7.745  0.1205 -0.0085 -0.8265
   70CHL1  H12A 7618   2.692   2.146   7.791  1.1163 -0.2450 -1.1483
   70CHL1  H12B 7619   2.740   1.982   7.735 -0.3101 -0.3554 -2.1139
   70CHL1   C11 7620   2.604   2.096   7.606  0.3285 -0.2902  0.9538
   70CHL1  H11A 7621   2.523   2.173   7.614  0.4854 -0.0207  0.0668
   70CHL1  H11B 7622   2.692   2.144   7.558  0.4738  0.7447  2.2318
   70CHL1    C9 7623   2.560   1.978   7.524 -0.1827  0.1332  0.3023
   70CHL1    H9 7624   2.648   1.911   7.530  1.8979  2.7677 -0.1978
   70CHL1   C10 7625   2.533   1.995   7.373  0.6914 -0.0888 -0.1877
   70CHL1   C19 7626   2.427   2.099   7.360  0.3131 -0.2591  0.3911
   70CHL1  H19A 7627   2.481   2.181   7.411  0.7798 -2.3410  3.3219
   70CHL1  H19B 7628   2.405   2.138   7.258  2.2240  0.1664  0.1294
   70CHL1  H19C 7629   2.330   2.085   7.413  0.1843  0.5989  0.3956
   70CHL1    C1 7630   2.664   2.038   7.302  0.2090 -0.0959  0.2991
   70CHL1   H1A 7631   2.692   2.130   7.358 -3.0959  0.6961  0.7480
   70CHL1   H1B 7632   2.735   1.955   7.320  0.3664  0.0937  0.5592
   70CHL1    C2 7633   2.658   2.058   7.155  0.6913 -0.6149 -0.1840
   70CHL1   H2A 7634   2.756   2.080   7.108 -0.4108  0.7882 -1.8553
   70CHL1   H2B 7635   2.597   2.148   7.136  2.2875  0.2139 -1.4202
   70CHL1   C20 7636   2.564   2.011   8.093 -0.0341  0.9178  0.1214
   70CHL1   H20 7637   2.460   2.048   8.106 -0.9493 -1.1652 -1.0106
   70CHL1   C21 7638   2.663   2.136   8.078  0.1681  0.2940 -0.3529
   70CHL1  H21A 7639   2.622   2.204   7.999  0.7144  0.9126 -0.1139
   70CHL1  H21B 7640   2.762   2.099   8.043  0.8808  2.6642 -0.9622
   70CHL1  H21C 7641   2.666   2.187   8.177 -1.1431  2.8639 -1.5751
   70CHL1   C22 7642   2.603   1.924   8.214 -0.4509  1.0480  0.5416
   70CHL1  H22A 7643   2.529   1.842   8.229  0.2969  0.1560 -0.5834
   70CHL1  H22B 7644   2.704   1.881   8.202 -0.4371  1.3488 -0.4628
   70CHL1   C23 7645   2.601   1.998   8.341  0.2650 -0.4518  0.1779
   70CHL1  H23A 7646   2.679   2.076   8.338  0.3938 -0.6310 -1.5449
   70CHL1  H23B 7647   2.501   2.043   8.358 -0.2181 -1.3601 -0.1788
   70CHL1   C24 7648   2.644   1.920   8.467 -0.4806 -0.7941  0.3112
   70CHL1  H24A 7649   2.566   1.844   8.487  1.2134 -3.5082 -2.7516
   70CHL1  H24B 7650   2.750   1.892   8.447 -0.7038 -1.8501  0.5899
   70CHL1   C25 7651   2.664   2.014   8.595 -0.1181 -0.1733  0.1273
   70CHL1   H25 7652   2.744   2.086   8.569  0.6235 -0.0792  2.5919
   70CHL1   C26 7653   2.544   2.094   8.644 -0.1267 -0.0852  0.0070
   70CHL1  H26A 7654   2.574   2.148   8.736 -1.2864  0.7536 -0.0915
   70CHL1  H26B 7655   2.497   2.168   8.577 -2.0507 -2.4346 -1.3320
   70CHL1  H26C 7656   2.466   2.017   8.665  0.7376 -0.8553  0.4391
   70CHL1   C27 7657   2.721   1.932   8.708  0.7033  0.2338 -0.7241
   70CHL1  H27A 7658   2.814   1.877   8.679  0.5201 -0.3898 -0.1299
   70CHL1  H27B 7659   2.748   1.989   8.799 -1.3887  1.1583 -0.6500
   70CHL1  H27C 7660   2.658   1.848   8.746 -0.2192  1.9879  1.7242
   71CHL1    C3 7661   2.728   4.617   6.744  0.2146 -0.3832 -0.1328
   71CHL1    H3 7662   2.820   4.673   6.771  0.9859 -1.4104 -0.6223
   71CHL1    O3 7663   2.708   4.617   6.602  0.0780 -0.9106  0.1769
   71CHL1   H3' 7664   2.759   4.693   6.574 -2.1338 -0.1578 -1.9597
   71CHL1    C4 7665   2.766   4.470   6.786 -0.1209  0.2597  0.7146
   71CHL1   H4A 7666   2.682   4.408   6.749  0.9146 -0.1456 -0.9915
   71CHL1   H4B 7667   2.858   4.447   6.728 -0.4963 -0.4363  0.3882
   71CHL1    C5 7668   2.783   4.455   6.931 -0.2529 -0.1683 -0.3480
   71CHL1    C6 7669   2.898   4.419   6.984 -0.3324 -0.2578 -0.7360
   71CHL1    H6 7670   2.980   4.397   6.915 -0.3278 -0.3665 -0.6960
   71CHL1    C7 7671   2.926   4.417   7.128  0.1978  0.1593 -1.0703
   71CHL1   H7A 7672   2.983   4.326   7.157 -1.9163 -0.9492 -0.2100
   71CHL1   H7B 7673   2.987   4.508   7.144 -0.2750 -0.1919  3.3909
   71CHL1    C8 7674   2.806   4.429   7.224  0.5521  0.0402  0.8739
   71CHL1    H8 7675   2.749   4.334   7.224  1.2166 -0.3580  0.3184
   71CHL1   C14 7676   2.864   4.476   7.358  0.3209 -0.1536  0.2199
   71CHL1   H14 7677   2.901   4.579   7.335  1.2102 -0.3999  0.5216
   71CHL1   C15 7678   2.987   4.403   7.409 -0.5124  0.0644  0.1560
   71CHL1  H15A 7679   2.977   4.293   7.405 -1.3528  0.1331  0.3859
   71CHL1  H15B 7680   3.085   4.437   7.368 -0.4530  1.4759  1.4300
   71CHL1   C16 7681   2.979   4.442   7.555  0.0036  0.0198 -0.5177
   71CHL1  H16A 7682   2.976   4.356   7.625  0.8046  0.5251  0.1325
   71CHL1  H16B 7683   3.066   4.503   7.588  0.6086 -1.4606  0.6617
   71CHL1   C17 7684   2.855   4.542   7.576  0.0913  0.5254  0.1700
   71CHL1   H17 7685   2.902   4.640   7.553  0.2146  1.0035  2.3530
   71CHL1   C13 7686   2.761   4.504   7.464  0.2674  0.8970 -0.3761
   71CHL1   C18 7687   2.696   4.371   7.496 -0.6021  0.0914 -0.2689
   71CHL1  H18A 7688   2.625   4.364   7.581 -1.9382  0.2144 -1.3602
   71CHL1  H18B 7689   2.629   4.340   7.413 -0.0952  1.9372 -1.4088
   71CHL1  H18C 7690   2.770   4.290   7.511  0.6104  1.7754  3.2786
   71CHL1   C12 7691   2.658   4.608   7.418  0.4854  0.3677 -0.6027
   71CHL1  H12A 7692   2.569   4.614   7.484  1.3276 -0.2565  0.6023
   71CHL1  H12B 7693   2.706   4.709   7.422  1.2884 -0.0790  1.6016
   71CHL1   C11 7694   2.605   4.575   7.280  0.5791 -0.3254 -0.3311
   71CHL1  H11A 7695   2.525   4.499   7.297 -0.7712  0.6725 -2.0397
   71CHL1  H11B 7696   2.550   4.667   7.251 -0.0250 -1.4421 -2.8617
   71CHL1    C9 7697   2.714   4.538   7.178 -0.9262 -0.7519 -0.0772
   71CHL1    H9 7698   2.775   4.631   7.166 -0.3345 -1.1507 -0.1756
   71CHL1   C10 7699   2.675   4.517   7.027  0.3189 -0.2373  0.1813
   71CHL1   C19 7700   2.557   4.417   7.016  0.0574 -0.0640  0.5844
   71CHL1  H19A 7701   2.515   4.429   6.913  1.5387 -2.1436 -0.2945
   71CHL1  H19B 7702   2.586   4.311   7.033 -3.0889 -0.9882  0.5961
   71CHL1  H19C 7703   2.484   4.448   7.093  0.4184 -0.1857  0.9753
   71CHL1    C1 7704   2.626   4.654   6.971 -0.1364  0.1634  0.6131
   71CHL1   H1A 7705   2.530   4.681   7.021 -0.6921  2.8885 -1.7464
   71CHL1   H1B 7706   2.707   4.722   7.006  1.0661 -2.0666  2.2453
   71CHL1    C2 7707   2.606   4.662   6.821 -0.5955  0.0206 -0.2120
   71CHL1   H2A 7708   2.585   4.767   6.792 -1.9238  0.1722  1.2431
   71CHL1   H2B 7709   2.516   4.609   6.784 -1.2872  0.2099  1.1966
   71CHL1   C20 7710   2.796   4.554   7.715 -0.4339 -0.0171 -0.3843
   71CHL1   H20 7711   2.721   4.480   7.749 -1.5320  1.3526  0.2535
   71CHL1   C21 7712   2.730   4.692   7.731 -0.7814 -0.6978 -0.1530
   71CHL1  H21A 7713   2.681   4.688   7.831  0.5342 -2.1213  0.4446
   71CHL1  H21B 7714   2.653   4.705   7.652 -0.9946 -0.9925  0.0069
   71CHL1  H21C 7715   2.804   4.773   7.718  0.1600 -1.2817  1.4334
   71CHL1   C22 7716   2.918   4.542   7.822  0.1371  0.3397  0.2671
   71CHL1  H22A 7717   2.971   4.445   7.817  1.7455  1.1829  0.7739
   71CHL1  H22B 7718   2.989   4.627   7.810 -0.5962  1.1930  1.8005
   71CHL1   C23 7719   2.870   4.555   7.971  0.4185 -0.4181 -0.2246
   71CHL1  H23A 7720   2.954   4.536   8.041 -0.1271 -3.2382 -0.2732
   71CHL1  H23B 7721   2.828   4.656   7.984  1.6144  0.0371  0.1775
   71CHL1   C24 7722   2.769   4.455   8.028 -0.2278 -0.3835  1.0675
   71CHL1  H24A 7723   2.681   4.470   7.962  1.6297  1.0106 -1.1666
   71CHL1  H24B 7724   2.801   4.350   8.012 -1.1394 -0.1748 -2.5997
   71CHL1   C25 7725   2.726   4.472   8.178  0.0297 -0.4027 -0.3778
   71CHL1   H25 7726   2.692   4.575   8.203  0.8306 -0.5671  1.4673
   71CHL1   C26 7727   2.605   4.377   8.201  0.0813  0.5204 -0.0313
   71CHL1  H26A 7728   2.574   4.391   8.307 -0.8531 -0.7211 -0.1316
   71CHL1  H26B 7729   2.521   4.392   8.130 -0.2803 -1.6887 -0.1191
   71CHL1  H26C 7730   2.639   4.272   8.188 -1.7466  0.0375 -0.9862
   71CHL1   C27 7731   2.838   4.431   8.277 -0.1759  0.1010  0.6682
   71CHL1  H27A 7732   2.800   4.466   8.376  1.8660  1.1908  1.0919
   71CHL1  H27B 7733   2.842   4.320   8.284 -0.5965  0.0422 -0.0148
   71CHL1  H27C 7734   2.932   4.473   8.235 -1.7004  1.8148 -1.1203
   72CHL1    C3 7735   2.766   2.569   7.080  0.8209 -0.6073 -0.2340
   72CHL1    H3 7736   2.873   2.576   7.051  1.3678  0.9420  2.0165
   72CHL1    O3 7737   2.686   2.564   6.959 -0.4394 -0.2150  0.1609
   72CHL1   H3' 7738   2.596   2.561   6.991  0.2677 -1.9258  2.1055
   72CHL1    C4 7739   2.741   2.439   7.146 -0.1347  0.2983  0.2357
   72CHL1   H4A 7740   2.632   2.426   7.162  0.3206 -2.0212  1.6670
   72CHL1   H4B 7741   2.773   2.354   7.082 -0.4782  0.1072  0.3171
   72CHL1    C5 7742   2.799   2.426   7.285 -0.0848  0.2560  0.8177
   72CHL1    C6 7743   2.886   2.328   7.311 -0.3549  0.0023  0.0690
   72CHL1    H6 7744   2.911   2.255   7.233 -0.1702  0.2926 -0.1457
   72CHL1    C7 7745   2.960   2.312   7.446 -0.2272  0.3824  0.2445
   72CHL1   H7A 7746   2.960   2.203   7.468  1.3273  0.8977  2.9328
   72CHL1   H7B 7747   3.060   2.356   7.431  0.5492 -1.3635  0.1747
   72CHL1    C8 7748   2.893   2.394   7.555  0.0182 -0.1668  0.2675
   72CHL1    H8 7749   2.797   2.341   7.572 -2.0361  3.0475 -0.9522
   72CHL1   C14 7750   2.980   2.393   7.682 -0.1260  0.6319 -0.1228
   72CHL1   H14 7751   3.074   2.445   7.653 -0.0660 -0.3976 -1.8148
   72CHL1   C15 7752   3.018   2.256   7.743  0.2629 -0.5503  0.3530
   72CHL1  H15A 7753   2.927   2.192   7.748  0.9346 -1.5419  0.0831
   72CHL1  H15B 7754   3.100   2.211   7.683 -0.5348 -1.3079 -0.1784
   72CHL1   C16 7755   3.057   2.293   7.887 -0.2025 -0.7323  0.6098
   72CHL1  H16A 7756   2.991   2.236   7.955 -0.9895  0.3507  0.7614
   72CHL1  H16B 7757   3.164   2.280   7.913 -0.5212  2.2628  3.6395
   72CHL1   C17 7758   3.019   2.445   7.907 -0.0797  0.6203  1.3011
   72CHL1   H17 7759   3.118   2.492   7.889  0.8575 -1.9923 -0.7209
   72CHL1   C13 7760   2.916   2.467   7.797  0.1323  0.0696  0.1871
   72CHL1   C18 7761   2.774   2.398   7.831 -0.3179 -0.1627  0.2927
   72CHL1  H18A 7762   2.707   2.466   7.887 -2.5617  0.0167 -2.5229
   72CHL1  H18B 7763   2.720   2.369   7.739  1.6264 -1.6998 -0.4146
   72CHL1  H18C 7764   2.786   2.301   7.884 -0.0128 -0.9010 -1.1212
   72CHL1   C12 7765   2.893   2.613   7.753  0.6543  0.4997  0.5778
   72CHL1  H12A 7766   2.834   2.662   7.834 -1.5823 -1.1817  0.0243
   72CHL1  H12B 7767   2.988   2.669   7.745  0.6009  0.4592 -0.2954
   72CHL1   C11 7768   2.808   2.632   7.622 -0.0250  0.0779  0.0904
   72CHL1  H11A 7769   2.702   2.611   7.648  0.6154  1.5055  4.2629
   72CHL1  H11B 7770   2.819   2.739   7.592 -0.9144 -0.1220 -0.9910
   72CHL1    C9 7771   2.856   2.537   7.513  0.4357 -0.2827  0.5509
   72CHL1    H9 7772   2.957   2.578   7.488  0.5569 -1.1079 -0.3532
   72CHL1   C10 7773   2.772   2.541   7.381 -0.2734 -0.3932 -0.1257
   72CHL1   C19 7774   2.616   2.527   7.422  0.3131 -0.0266  0.8027
   72CHL1  H19A 7775   2.574   2.612   7.479  1.5851  1.2767 -0.1785
   72CHL1  H19B 7776   2.543   2.510   7.340 -0.7611  1.5183  1.4272
   72CHL1  H19C 7777   2.620   2.432   7.480  1.5904 -1.0964 -0.9821
   72CHL1    C1 7778   2.775   2.684   7.313 -0.3751  0.5039 -0.9103
   72CHL1   H1A 7779   2.713   2.745   7.382 -0.8066 -0.9480  0.0070
   72CHL1   H1B 7780   2.876   2.730   7.311 -0.6253  1.0870 -0.3994
   72CHL1    C2 7781   2.722   2.689   7.167  0.3521  0.1396  0.2115
   72CHL1   H2A 7782   2.760   2.777   7.112  0.4821 -1.0102 -1.5708
   72CHL1   H2B 7783   2.611   2.694   7.179  0.1787 -1.6070 -0.6024
   72CHL1   C20 7784   2.977   2.487   8.048 -0.9155  0.1465  0.3116
   72CHL1   H20 7785   2.872   2.466   8.075 -1.5106  0.1593 -1.9327
   72CHL1   C21 7786   3.010   2.640   8.076  0.1864  0.1832  0.4969
   72CHL1  H21A 7787   2.954   2.691   8.157  2.3254  1.2211  1.3691
   72CHL1  H21B 7788   2.995   2.710   7.991 -0.4724  1.9607  2.0448
   72CHL1  H21C 7789   3.118   2.645   8.104  0.0526 -1.0098  1.2666
   72CHL1   C22 7790   3.048   2.411   8.164  0.6124 -0.2845  0.4165
   72CHL1  H22A 7791   3.013   2.306   8.160  2.4131 -0.8775 -0.8513
   72CHL1  H22B 7792   3.157   2.414   8.144  0.7558 -2.1188  0.8519
   72CHL1   C23 7793   3.015   2.446   8.310  0.4596  0.5068 -0.4757
   72CHL1  H23A 7794   3.049   2.551   8.324  0.0070  0.6075 -0.1304
   72CHL1  H23B 7795   2.909   2.438   8.341  1.3249 -2.4472  2.0400
   72CHL1   C24 7796   3.094   2.353   8.413 -0.4768 -0.2535 -0.3872
   72CHL1  H24A 7797   3.070   2.246   8.399 -1.2139  0.0540 -1.6247
   72CHL1  H24B 7798   3.201   2.366   8.386 -0.6918  0.8333 -0.7523
   72CHL1   C25 7799   3.068   2.403   8.560 -0.2192  0.7816  0.1069
   72CHL1   H25 7800   3.070   2.514   8.559  1.5558  0.7913  1.0771
   72CHL1   C26 7801   2.935   2.332   8.608  1.0850 -0.1287 -0.0502
   72CHL1  H26A 7802   2.951   2.223   8.595  0.4041 -0.2417  0.0160
   72CHL1  H26B 7803   2.902   2.359   8.711  2.6558  0.4478  0.3198
   72CHL1  H26C 7804   2.843   2.349   8.547 -0.0122  0.7469  1.7808
   72CHL1   C27 7805   3.184   2.347   8.649 -0.7253 -0.3914  0.3038
   72CHL1  H27A 7806   3.278   2.401   8.626 -1.3242  0.9649  0.9991
   72CHL1  H27B 7807   3.178   2.366   8.758  1.0055  1.0576  0.1654
   72CHL1  H27C 7808   3.211   2.239   8.639  2.9228  0.4173  0.7636
   73CHL1    C3 7809   2.574   5.528   7.016  0.0107  1.1223  0.5549
   73CHL1    H3 7810   2.467   5.501   7.009  0.8096 -1.6674 -1.8672
   73CHL1    O3 7811   2.631   5.496   6.889 -0.6465  0.4712 -0.1520
   73CHL1   H3' 7812   2.721   5.527   6.875 -1.2683  1.1742 -2.9279
   73CHL1    C4 7813   2.590   5.670   7.059 -0.5519 -0.3120 -0.2803
   73CHL1   H4A 7814   2.694   5.709   7.052  0.5867 -2.9615  1.2188
   73CHL1   H4B 7815   2.529   5.730   6.989  0.6031  0.9359 -0.2466
   73CHL1    C5 7816   2.550   5.686   7.205  0.5358 -0.4654  0.7543
   73CHL1    C6 7817   2.465   5.782   7.242  0.3996 -0.6861  0.4962
   73CHL1    H6 7818   2.428   5.848   7.162  0.1517 -1.4447 -0.0274
   73CHL1    C7 7819   2.419   5.814   7.381  0.1669 -0.1561  0.7431
   73CHL1   H7A 7820   2.428   5.922   7.408  2.1720  0.2606 -1.4447
   73CHL1   H7B 7821   2.314   5.780   7.391  0.4710 -1.4362 -0.3742
   73CHL1    C8 7822   2.500   5.731   7.488  0.6163 -0.1727 -0.3906
   73CHL1    H8 7823   2.595   5.788   7.497 -0.7329  2.2933 -1.0068
   73CHL1   C14 7824   2.429   5.727   7.619  0.1967 -0.5250 -0.0684
   73CHL1   H14 7825   2.343   5.660   7.598  0.4568 -1.1238  0.7517
   73CHL1   C15 7826   2.368   5.853   7.679 -0.6080  1.3229  0.6478
   73CHL1  H15A 7827   2.424   5.946   7.653 -0.9818  1.3892  0.0738
   73CHL1  H15B 7828   2.269   5.875   7.635 -0.7702 -1.1775 -0.3069
   73CHL1   C16 7829   2.360   5.825   7.833  0.1679 -0.7101  0.4531
   73CHL1  H16A 7830   2.418   5.905   7.883 -2.0273  1.8440 -0.9504
   73CHL1  H16B 7831   2.257   5.831   7.873  1.3003  0.1239  3.4089
   73CHL1   C17 7832   2.401   5.680   7.852  0.3096 -0.2711 -0.0525
   73CHL1   H17 7833   2.312   5.616   7.833  0.0743  0.2386 -0.6595
   73CHL1   C13 7834   2.495   5.652   7.729  0.7909  0.5306  0.3702
   73CHL1   C18 7835   2.636   5.713   7.754 -0.6338  0.0280  0.3532
   73CHL1  H18A 7836   2.699   5.721   7.663  0.1604 -1.1895  0.7866
   73CHL1  H18B 7837   2.622   5.815   7.796 -1.3504 -0.2942  0.8839
   73CHL1  H18C 7838   2.689   5.647   7.825 -1.4780 -2.3254 -1.1569
   73CHL1   C12 7839   2.491   5.504   7.676 -0.1276  0.1063  0.5648
   73CHL1  H12A 7840   2.552   5.435   7.738  1.7358  0.5015 -0.7588
   73CHL1  H12B 7841   2.386   5.471   7.663 -0.0581 -0.3099  1.0545
   73CHL1   C11 7842   2.570   5.491   7.548 -0.1177  0.0927  0.7928
   73CHL1  H11A 7843   2.673   5.516   7.581 -0.3781 -0.7298  2.2950
   73CHL1  H11B 7844   2.572   5.383   7.520  0.9391 -0.0816  1.5083
   73CHL1    C9 7845   2.520   5.587   7.438  0.6220 -0.5297  0.2926
   73CHL1    H9 7846   2.422   5.547   7.403 -0.0536  0.1720  1.3532
   73CHL1   C10 7847   2.604   5.587   7.310 -0.1318  0.2975 -0.7100
   73CHL1   C19 7848   2.753   5.611   7.345 -0.3745 -0.6615 -0.1162
   73CHL1  H19A 7849   2.757   5.702   7.409  1.6436 -0.7052 -0.1250
   73CHL1  H19B 7850   2.792   5.521   7.398 -1.1522 -0.9973 -0.1036
   73CHL1  H19C 7851   2.816   5.627   7.255 -0.5544 -0.0728 -0.1422
   73CHL1    C1 7852   2.592   5.438   7.249  0.0416  0.4934  0.4392
   73CHL1   H1A 7853   2.648   5.367   7.314  0.3050  0.5992  0.3270
   73CHL1   H1B 7854   2.485   5.412   7.260  0.0931  0.8742  1.9261
   73CHL1    C2 7855   2.643   5.426   7.111  0.4423  0.3620  0.4236
   73CHL1   H2A 7856   2.624   5.321   7.079  0.9153 -0.3144  2.3369
   73CHL1   H2B 7857   2.753   5.443   7.109  0.2688  1.4250 -1.1783
   73CHL1   C20 7858   2.451   5.656   7.991 -0.0763  0.3563  0.7451
   73CHL1   H20 7859   2.549   5.706   8.007  1.2681 -2.5100  1.9524
   73CHL1   C21 7860   2.482   5.509   8.014 -0.1576  0.5176 -0.2553
   73CHL1  H21A 7861   2.525   5.494   8.115  1.7817 -1.1968 -1.2802
   73CHL1  H21B 7862   2.559   5.472   7.942 -0.9898 -0.9958 -0.3849
   73CHL1  H21C 7863   2.395   5.443   7.993 -0.8483  2.0375 -2.3073
   73CHL1   C22 7864   2.350   5.700   8.102 -0.0351  0.5078 -0.2798
   73CHL1  H22A 7865   2.318   5.805   8.088 -1.3363  0.5181  2.5829
   73CHL1  H22B 7866   2.258   5.645   8.073 -0.2552  0.9398 -0.4062
   73CHL1   C23 7867   2.403   5.674   8.243  0.5830  0.1525  0.0645
   73CHL1  H23A 7868   2.418   5.565   8.257  0.0791  0.1242  0.4307
   73CHL1  H23B 7869   2.500   5.727   8.249  0.0325  1.1359  0.4046
   73CHL1   C24 7870   2.302   5.720   8.345  0.8524 -0.4904  0.5459
   73CHL1  H24A 7871   2.291   5.831   8.354 -0.2253 -0.5919  0.5239
   73CHL1  H24B 7872   2.207   5.669   8.319  1.6354 -1.9048  0.4324
   73CHL1   C25 7873   2.344   5.664   8.484 -0.6018 -0.7436  0.1423
   73CHL1   H25 7874   2.378   5.561   8.464 -1.9925 -0.7768 -2.3218
   73CHL1   C26 7875   2.469   5.732   8.546  0.3505 -0.1917 -0.4162
   73CHL1  H26A 7876   2.445   5.833   8.586  1.1827 -0.3759  0.5680
   73CHL1  H26B 7877   2.509   5.676   8.633 -1.6068 -0.7168  0.1731
   73CHL1  H26C 7878   2.560   5.743   8.483  0.3379 -2.4521 -0.8960
   73CHL1   C27 7879   2.223   5.665   8.580  0.7714  0.3602 -0.0363
   73CHL1  H27A 7880   2.146   5.599   8.536  0.1111  1.2752 -0.2516
   73CHL1  H27B 7881   2.257   5.623   8.678 -0.4930 -1.5203 -0.3860
   73CHL1  H27C 7882   2.191   5.765   8.615  2.7454  0.6761  0.9618
   74CHL1    C3 7883   1.764   4.387   6.842  0.2297  0.3322 -0.5415
   74CHL1    H3 7884   1.818   4.290   6.838  2.2450  1.3626  0.8817
   74CHL1    O3 7885   1.740   4.426   6.711 -0.7646  0.3597 -1.1263
   74CHL1   H3' 7886   1.824   4.406   6.669 -0.4348 -1.1447  0.2124
   74CHL1    C4 7887   1.633   4.355   6.903  0.5636 -0.0790  0.5422
   74CHL1   H4A 7888   1.565   4.442   6.888  0.0362 -1.0196 -3.1123
   74CHL1   H4B 7889   1.581   4.279   6.841 -1.0298  0.1983  1.5185
   74CHL1    C5 7890   1.629   4.330   7.052  0.5627 -0.3738  0.3858
   74CHL1    C6 7891   1.554   4.235   7.100  0.3269 -0.1451  0.2266
   74CHL1    H6 7892   1.481   4.182   7.037 -1.0731 -0.5072  2.1016
   74CHL1    C7 7893   1.541   4.201   7.247  0.2930 -0.1856 -0.5288
   74CHL1   H7A 7894   1.436   4.205   7.285  0.7356  0.6480  0.6360
   74CHL1   H7B 7895   1.568   4.097   7.272  2.3153  0.8440  1.7592
   74CHL1    C8 7896   1.636   4.278   7.348 -0.1352  0.9613 -0.0768
   74CHL1    H8 7897   1.562   4.355   7.379 -1.7510 -0.3628 -0.5556
   74CHL1   C14 7898   1.681   4.200   7.468 -0.3677 -0.5553 -0.6308
   74CHL1   H14 7899   1.751   4.125   7.426 -0.2510 -1.2192  0.7197
   74CHL1   C15 7900   1.577   4.114   7.540 -0.2900 -0.1272  0.3860
   74CHL1  H15A 7901   1.477   4.160   7.557 -0.4117 -0.0176 -0.6331
   74CHL1  H15B 7902   1.567   4.016   7.489  0.4141 -0.5475  1.0592
   74CHL1   C16 7903   1.637   4.093   7.682 -0.2080 -0.0452  0.2639
   74CHL1  H16A 7904   1.575   4.139   7.762 -1.5677  0.0551 -0.8288
   74CHL1  H16B 7905   1.642   3.984   7.705  1.5721 -0.3020 -1.2544
   74CHL1   C17 7906   1.771   4.174   7.690 -0.9420  0.4882 -0.9477
   74CHL1   H17 7907   1.852   4.107   7.652 -0.0789  0.6543  0.5639
   74CHL1   C13 7908   1.760   4.277   7.578 -0.3694 -0.1586  0.3881
   74CHL1   C18 7909   1.679   4.406   7.628 -0.2342  0.5058  0.1081
   74CHL1  H18A 7910   1.719   4.461   7.716 -0.7754  2.1989 -0.6843
   74CHL1  H18B 7911   1.669   4.481   7.547 -0.7746 -0.1967 -0.4815
   74CHL1  H18C 7912   1.577   4.372   7.657  0.4752 -2.6087 -0.7604
   74CHL1   C12 7913   1.889   4.320   7.507  0.1764  0.5790  0.2455
   74CHL1  H12A 7914   1.948   4.386   7.575 -0.4706  2.1086 -0.6561
   74CHL1  H12B 7915   1.944   4.227   7.483  0.3007  0.7561 -0.1519
   74CHL1   C11 7916   1.859   4.400   7.379 -0.3176  0.1731 -0.4882
   74CHL1  H11A 7917   1.829   4.503   7.406 -0.3363  0.1367 -0.3721
   74CHL1  H11B 7918   1.961   4.404   7.333 -0.3057 -2.6847 -0.8153
   74CHL1    C9 7919   1.757   4.334   7.279 -0.4784  0.5113 -0.3462
   74CHL1    H9 7920   1.816   4.247   7.244 -1.0785 -0.8848  1.9505
   74CHL1   C10 7921   1.725   4.414   7.148  0.3743  1.0562  0.7327
   74CHL1   C19 7922   1.656   4.543   7.180  0.1603 -1.0402  0.4149
   74CHL1  H19A 7923   1.633   4.595   7.084  0.1951 -1.8164 -0.0192
   74CHL1  H19B 7924   1.568   4.528   7.246  0.2413 -0.9286  0.5473
   74CHL1  H19C 7925   1.730   4.613   7.224  0.6735 -1.4389  0.1854
   74CHL1    C1 7926   1.862   4.451   7.075  0.1092 -0.1807 -0.4256
   74CHL1   H1A 7927   1.913   4.536   7.126  0.5263  0.9903 -2.6842
   74CHL1   H1B 7928   1.916   4.354   7.073  1.5749  0.6015  0.7887
   74CHL1    C2 7929   1.836   4.490   6.926  0.3747 -0.0309  0.1859
   74CHL1   H2A 7930   1.932   4.525   6.883  0.1078  2.2993  1.4314
   74CHL1   H2B 7931   1.760   4.571   6.920 -0.8646 -1.2114 -0.5741
   74CHL1   C20 7932   1.815   4.227   7.828  0.6316 -0.5294  0.1091
   74CHL1   H20 7933   1.728   4.280   7.873 -0.5950 -1.4309 -1.1437
   74CHL1   C21 7934   1.939   4.325   7.819  0.1384 -0.4008  0.0876
   74CHL1  H21A 7935   2.020   4.284   7.754 -1.4237 -2.3700 -0.6556
   74CHL1  H21B 7936   1.980   4.341   7.921  1.7413 -0.9831 -0.4510
   74CHL1  H21C 7937   1.906   4.423   7.777 -0.0840 -0.0969  0.9681
   74CHL1   C22 7938   1.852   4.111   7.923  0.5026 -0.7733 -0.9048
   74CHL1  H22A 7939   1.792   4.026   7.887 -1.4031  0.7601 -1.4377
   74CHL1  H22B 7940   1.961   4.088   7.913 -0.0947 -3.3202 -1.7768
   74CHL1   C23 7941   1.822   4.138   8.076  0.0803  0.1823  0.3102
   74CHL1  H23A 7942   1.881   4.223   8.116 -3.3810  1.1835  3.5976
   74CHL1  H23B 7943   1.713   4.153   8.092  0.3847  0.8932  1.7315
   74CHL1   C24 7944   1.850   4.011   8.169 -0.1553  0.2696  0.1067
   74CHL1  H24A 7945   1.959   3.998   8.188 -0.6235 -1.4971  1.7275
   74CHL1  H24B 7946   1.808   4.031   8.270  2.3423 -2.1978  1.7145
   74CHL1   C25 7947   1.782   3.879   8.123  0.0071  0.1311  1.1566
   74CHL1   H25 7948   1.824   3.866   8.021 -0.2185  1.7999  0.8331
   74CHL1   C26 7949   1.814   3.759   8.215  0.7630 -0.2064  0.2193
   74CHL1  H26A 7950   1.924   3.757   8.234  0.9178  2.8123 -0.0924
   74CHL1  H26B 7951   1.759   3.772   8.311 -1.8362 -0.0622 -1.2399
   74CHL1  H26C 7952   1.784   3.666   8.164 -0.8029  0.5499 -0.2721
   74CHL1   C27 7953   1.627   3.909   8.133  0.0304 -0.8004  0.1058
   74CHL1  H27A 7954   1.601   3.939   8.237 -3.3948 -2.3050 -0.2472
   74CHL1  H27B 7955   1.600   3.993   8.066  1.0059  0.1354  0.8711
   74CHL1  H27C 7956   1.565   3.823   8.100 -0.6153  0.1073 -1.0857
   75CHL1    C3 7957   4.851   5.876   6.714  0.3659  0.0873  0.3036
   75CHL1    H3 7958   4.930   5.814   6.761 -0.1800 -0.0833  1.0094
   75CHL1    O3 7959   4.850   5.865   6.575 -0.4154 -0.5876 -0.3247
   75CHL1   H3' 7960   4.822   5.951   6.545  0.2813 -0.9866 -2.2066
   75CHL1    C4 7961   4.720   5.827   6.765  0.1321  0.4181 -0.1137
   75CHL1   H4A 7962   4.648   5.886   6.704 -0.7095 -0.9218 -0.4226
   75CHL1   H4B 7963   4.718   5.721   6.733 -0.0469 -0.0830  1.4710
   75CHL1    C5 7964   4.690   5.841   6.911 -0.1889 -0.1227 -0.1947
   75CHL1    C6 7965   4.650   5.745   6.997 -0.5925 -0.2825 -0.2585
   75CHL1    H6 7966   4.638   5.645   6.953 -2.8223  0.8953 -2.4588
   75CHL1    C7 7967   4.611   5.755   7.138  0.5491 -0.3122 -0.0262
   75CHL1   H7A 7968   4.510   5.709   7.144  1.4922 -2.3911  0.2267
   75CHL1   H7B 7969   4.671   5.682   7.196 -0.7575  0.4506  2.3561
   75CHL1    C8 7970   4.622   5.898   7.188  0.0244  0.2575  0.2275
   75CHL1    H8 7971   4.526   5.953   7.173  0.5118  1.1714  0.3775
   75CHL1   C14 7972   4.627   5.894   7.336 -0.8580  0.0696 -0.6054
   75CHL1   H14 7973   4.721   5.839   7.361 -3.1494 -3.5974  0.2701
   75CHL1   C15 7974   4.519   5.809   7.406  0.4561 -0.6939  0.1801
   75CHL1  H15A 7975   4.423   5.821   7.353  1.6120  0.4095 -1.7131
   75CHL1  H15B 7976   4.544   5.700   7.407  4.4882  0.1437  2.2199
   75CHL1   C16 7977   4.515   5.876   7.546 -0.1647  0.1434  0.1378
   75CHL1  H16A 7978   4.414   5.920   7.562 -0.3708 -0.4753  0.5505
   75CHL1  H16B 7979   4.524   5.801   7.627 -2.3117  0.9872  1.2112
   75CHL1   C17 7980   4.629   5.986   7.546 -0.1258 -0.3229 -0.3218
   75CHL1   H17 7981   4.717   5.923   7.571 -0.3914 -0.9588 -0.9872
   75CHL1   C13 7982   4.640   6.030   7.400 -0.5370  0.9134 -0.4181
   75CHL1   C18 7983   4.520   6.125   7.362  0.2776  0.5319  0.2547
   75CHL1  H18A 7984   4.435   6.059   7.391  0.5021 -0.4017 -1.1632
   75CHL1  H18B 7985   4.527   6.221   7.418  0.4785 -0.5271  2.1003
   75CHL1  H18C 7986   4.515   6.134   7.252 -0.9947  2.3568  0.4350
   75CHL1   C12 7987   4.774   6.085   7.359 -0.2133  0.1282  0.1494
   75CHL1  H12A 7988   4.788   6.190   7.394 -1.3580  1.0212 -1.9805
   75CHL1  H12B 7989   4.862   6.025   7.389 -0.1416  0.0011 -0.3184
   75CHL1   C11 7990   4.775   6.108   7.201 -0.3036  0.0784  0.5930
   75CHL1  H11A 7991   4.702   6.188   7.174  0.7696  1.3807  1.5062
   75CHL1  H11B 7992   4.874   6.150   7.175 -0.2095 -0.7324 -0.4163
   75CHL1    C9 7993   4.742   5.974   7.128 -0.0357  0.1005 -0.4485
   75CHL1    H9 7994   4.828   5.909   7.156 -0.1805 -0.1734 -0.6471
   75CHL1   C10 7995   4.733   5.975   6.972 -0.6174  0.3322  0.2062
   75CHL1   C19 7996   4.621   6.074   6.934 -0.2643  0.5795  0.5629
   75CHL1  H19A 7997   4.609   6.090   6.824 -2.4475 -2.6715  0.2480
   75CHL1  H19B 7998   4.520   6.050   6.973 -0.2877 -0.6265 -0.2238
   75CHL1  H19C 7999   4.642   6.177   6.970 -0.3141  0.3543  1.2435
   75CHL1    C1 8000   4.859   6.032   6.905  0.6875 -0.5813  0.6812
   75CHL1   H1A 8001   4.850   6.141   6.926 -1.0024 -0.2964 -1.3611
   75CHL1   H1B 8002   4.951   5.991   6.953  2.9895  0.2917 -2.8682
   75CHL1    C2 8003   4.877   6.016   6.752 -0.1418  0.3380  0.0518
   75CHL1   H2A 8004   4.982   6.022   6.717 -0.5530  0.7580 -1.1388
   75CHL1   H2B 8005   4.821   6.094   6.697 -0.6649  1.5375  2.2073
   75CHL1   C20 8006   4.606   6.088   7.665 -0.7078  0.7426 -0.0959
   75CHL1   H20 8007   4.515   6.146   7.638 -1.8441 -1.8594 -2.0069
   75CHL1   C21 8008   4.729   6.182   7.673 -0.2600 -0.0422  0.3317
   75CHL1  H21A 8009   4.730   6.249   7.761 -3.9230  2.3373 -1.3145
   75CHL1  H21B 8010   4.723   6.253   7.588 -2.4431  1.8393  2.0119
   75CHL1  H21C 8011   4.820   6.117   7.664 -0.5457 -0.5321  0.9376
   75CHL1   C22 8012   4.577   6.015   7.800 -0.6198  0.5243  0.1849
   75CHL1  H22A 8013   4.543   6.093   7.872  0.4418  1.6837 -0.5380
   75CHL1  H22B 8014   4.488   5.953   7.775  1.2987 -2.1629 -0.1742
   75CHL1   C23 8015   4.681   5.915   7.858 -0.5471 -0.1913  0.4399
   75CHL1  H23A 8016   4.707   5.840   7.780 -0.6009 -1.1241  1.3116
   75CHL1  H23B 8017   4.775   5.969   7.881 -0.7738  0.4423 -0.1010
   75CHL1   C24 8018   4.629   5.847   7.984  0.5798  0.1056  0.1421
   75CHL1  H24A 8019   4.572   5.917   8.048 -1.6362 -0.9783 -0.5944
   75CHL1  H24B 8020   4.565   5.766   7.943  1.5817 -0.2709 -0.7068
   75CHL1   C25 8021   4.751   5.784   8.066  0.1402 -0.3097 -0.0378
   75CHL1   H25 8022   4.826   5.746   7.993  1.2506  1.4767  0.1450
   75CHL1   C26 8023   4.805   5.889   8.159  0.7227 -0.0083  0.1279
   75CHL1  H26A 8024   4.732   5.922   8.235 -0.5232 -0.4876 -0.8469
   75CHL1  H26B 8025   4.903   5.855   8.199  0.8365  0.2366  0.0579
   75CHL1  H26C 8026   4.817   5.981   8.098  0.4883  0.0266  0.1343
   75CHL1   C27 8027   4.697   5.671   8.151 -0.4571  0.1618  0.1159
   75CHL1  H27A 8028   4.609   5.688   8.217 -2.3335  2.0813 -2.7383
   75CHL1  H27B 8029   4.680   5.579   8.091 -1.8260 -2.0536  3.7020
   75CHL1  H27C 8030   4.778   5.646   8.223 -2.0405  0.9456  2.2336
   76CHL1    C3 8031   1.927   1.399   7.207 -0.5826  0.1687  0.4214
   76CHL1    H3 8032   1.862   1.487   7.225 -2.3089 -0.9484 -0.1906
   76CHL1    O3 8033   1.971   1.393   7.078 -0.1456 -0.3648  0.3676
   76CHL1   H3' 8034   2.032   1.319   7.077  1.4054  0.8847  0.1235
   76CHL1    C4 8035   2.051   1.428   7.289 -0.5273  0.1547  0.4726
   76CHL1   H4A 8036   2.135   1.363   7.257  0.0424  1.3238 -0.4164
   76CHL1   H4B 8037   2.084   1.532   7.266  1.1140 -0.5034 -0.2262
   76CHL1    C5 8038   2.027   1.410   7.440 -0.9996 -0.3727 -0.0560
   76CHL1    C6 8039   2.054   1.508   7.527 -0.0754  0.7846 -0.3023
   76CHL1    H6 8040   2.083   1.609   7.495  0.2405  0.9836  0.5975
   76CHL1    C7 8041   2.032   1.492   7.680  0.5422  0.2983  0.5476
   76CHL1   H7A 8042   2.118   1.531   7.739  0.1764  1.2366  0.4735
   76CHL1   H7B 8043   1.939   1.543   7.714 -0.7350 -1.0679 -0.8483
   76CHL1    C8 8044   2.012   1.341   7.721  0.1441  0.0872  0.5894
   76CHL1    H8 8045   2.109   1.289   7.706 -0.3298 -0.9968  1.2004
   76CHL1   C14 8046   1.967   1.332   7.865 -0.0165  0.0377  0.1476
   76CHL1   H14 8047   1.871   1.385   7.881  0.5914  0.9973  0.7179
   76CHL1   C15 8048   2.057   1.405   7.967  0.2021 -0.3009 -0.3148
   76CHL1  H15A 8049   2.168   1.402   7.955  0.3453 -2.3769  1.1771
   76CHL1  H15B 8050   2.027   1.512   7.961  2.7595  0.3591 -2.8877
   76CHL1   C16 8051   2.013   1.338   8.098  0.2415 -0.0386 -0.2710
   76CHL1  H16A 8052   2.097   1.293   8.155 -0.6285 -0.5902  0.6037
   76CHL1  H16B 8053   1.984   1.411   8.177 -2.4644 -1.2774 -0.0565
   76CHL1   C17 8054   1.904   1.233   8.068 -0.3886 -0.3716 -0.4911
   76CHL1   H17 8055   1.804   1.279   8.066 -0.6565 -0.9244 -3.7093
   76CHL1   C13 8056   1.932   1.193   7.921  0.3242  0.4681  0.0299
   76CHL1   C18 8057   2.063   1.107   7.916  0.0173 -0.6752  0.3534
   76CHL1  H18A 8058   2.114   1.112   7.817  2.0257 -1.0368  1.3462
   76CHL1  H18B 8059   2.141   1.132   7.991 -1.4569  2.1049  1.0195
   76CHL1  H18C 8060   2.038   1.001   7.939  1.3179 -1.2151 -0.6226
   76CHL1   C12 8061   1.829   1.129   7.834 -0.4589  0.6097  0.0720
   76CHL1  H12A 8062   1.813   1.022   7.858  1.0504  0.5868  1.0202
   76CHL1  H12B 8063   1.727   1.174   7.840 -0.8523 -0.4062  1.3113
   76CHL1   C11 8064   1.872   1.139   7.679  0.6869 -0.9919 -0.1289
   76CHL1  H11A 8065   1.965   1.078   7.679 -0.0209 -2.0781  0.9647
   76CHL1  H11B 8066   1.789   1.096   7.618 -0.8042  1.4667  0.0938
   76CHL1    C9 8067   1.906   1.283   7.626 -0.0671 -0.0544  0.2092
   76CHL1    H9 8068   1.817   1.349   7.635  0.5767  0.8875 -0.2540
   76CHL1   C10 8069   1.958   1.285   7.479 -0.2978 -0.3780  0.8377
   76CHL1   C19 8070   2.055   1.169   7.448  0.2887 -0.3398  0.2478
   76CHL1  H19A 8071   2.012   1.067   7.455 -2.7453  0.7075 -1.8933
   76CHL1  H19B 8072   2.083   1.169   7.341 -0.6418 -0.3294 -0.0012
   76CHL1  H19C 8073   2.146   1.165   7.511  0.5796 -1.0058 -0.2086
   76CHL1    C1 8074   1.827   1.270   7.390  0.5647  0.7820  0.0396
   76CHL1   H1A 8075   1.793   1.167   7.416 -0.0223  0.7876 -0.6694
   76CHL1   H1B 8076   1.744   1.342   7.410 -0.9810 -1.3736  1.6311
   76CHL1    C2 8077   1.860   1.269   7.246  0.0959 -0.6776  0.1612
   76CHL1   H2A 8078   1.764   1.273   7.191  0.9237 -0.9495 -1.3127
   76CHL1   H2B 8079   1.913   1.185   7.198 -1.7670 -0.5505 -2.2155
   76CHL1   C20 8080   1.889   1.124   8.183  0.2016  0.2510 -0.0257
   76CHL1   H20 8081   1.984   1.068   8.201 -0.4000 -0.2401  1.7574
   76CHL1   C21 8082   1.785   1.025   8.147  0.7617 -0.0804 -0.0108
   76CHL1  H21A 8083   1.815   0.966   8.058 -1.0005  1.6600 -1.8071
   76CHL1  H21B 8084   1.691   1.078   8.121  1.7746  2.2097  0.8494
   76CHL1  H21C 8085   1.771   0.958   8.235  1.4036 -0.5463 -0.2589
   76CHL1   C22 8086   1.851   1.183   8.325  0.1124  0.1174  0.5327
   76CHL1  H22A 8087   1.929   1.259   8.345  1.1948 -0.4625 -1.4012
   76CHL1  H22B 8088   1.754   1.238   8.333  0.5979  1.0503  0.0340
   76CHL1   C23 8089   1.863   1.087   8.442 -0.1542 -0.8234  0.7861
   76CHL1  H23A 8090   1.789   1.005   8.429 -2.7659  1.7454 -1.3191
   76CHL1  H23B 8091   1.966   1.048   8.431  0.7048  1.2112  1.3656
   76CHL1   C24 8092   1.853   1.177   8.575  0.0072 -0.1947  0.2685
   76CHL1  H24A 8093   1.936   1.248   8.558  0.5098 -0.5187  1.3717
   76CHL1  H24B 8094   1.762   1.242   8.572  1.4742  1.8574 -1.9386
   76CHL1   C25 8095   1.868   1.099   8.701  0.8269 -0.1007  0.3162
   76CHL1   H25 8096   1.876   1.175   8.781 -1.0186  0.5386 -0.0894
   76CHL1   C26 8097   1.752   1.002   8.741  0.0304 -0.6922 -0.5361
   76CHL1  H26A 8098   1.740   0.919   8.668  0.5180  0.4959 -1.9804
   76CHL1  H26B 8099   1.778   0.964   8.842  0.1343  0.9020  0.0553
   76CHL1  H26C 8100   1.654   1.054   8.747  0.6522  0.4268 -0.0426
   76CHL1   C27 8101   2.004   1.017   8.695  0.4063 -0.2580 -0.2624
   76CHL1  H27A 8102   2.016   0.958   8.788  1.1755  0.4161  0.0698
   76CHL1  H27B 8103   1.998   0.946   8.610 -2.9587 -0.2248 -0.1406
   76CHL1  H27C 8104   2.081   1.096   8.683  0.6870 -0.4037  0.5363
   77CHL1    C3 8105   2.827   5.899   6.848 -0.0170 -0.3403 -0.2709
   77CHL1    H3 8106   2.744   5.831   6.875 -1.6230  1.3083 -0.9172
   77CHL1    O3 8107   2.839   5.880   6.710  0.3578  0.3358  0.7322
   77CHL1   H3' 8108   2.932   5.865   6.691 -0.5752 -2.8951 -1.6914
   77CHL1    C4 8109   2.787   6.045   6.877  0.5083  0.1333  0.4697
   77CHL1   H4A 8110   2.866   6.118   6.848 -0.6722  1.8183  1.3618
   77CHL1   H4B 8111   2.697   6.078   6.822  0.0346 -0.5964  0.8063
   77CHL1    C5 8112   2.777   6.077   7.028 -0.1855  0.3660 -0.7065
   77CHL1    C6 8113   2.660   6.121   7.079 -0.1959 -0.2796 -0.4898
   77CHL1    H6 8114   2.576   6.144   7.011  0.2192 -1.0129 -1.2620
   77CHL1    C7 8115   2.636   6.151   7.222  0.2389  0.4068  0.5304
   77CHL1   H7A 8116   2.582   6.246   7.243 -0.9782 -0.5951  2.1141
   77CHL1   H7B 8117   2.568   6.075   7.267 -0.4657  0.2788 -0.7305
   77CHL1    C8 8118   2.764   6.141   7.307 -0.1547  0.1550  0.2227
   77CHL1    H8 8119   2.811   6.241   7.290  2.1361 -1.0529 -0.7591
   77CHL1   C14 8120   2.737   6.124   7.454  0.4238 -0.2441 -0.1203
   77CHL1   H14 8121   2.703   6.019   7.469  0.4157 -0.1502  0.5090
   77CHL1   C15 8122   2.622   6.208   7.524 -0.2946 -0.1124  0.3183
   77CHL1  H15A 8123   2.652   6.312   7.501  0.5394 -0.3000  0.5437
   77CHL1  H15B 8124   2.518   6.201   7.485  0.2053  2.1131 -1.5028
   77CHL1   C16 8125   2.644   6.170   7.675  0.7743  0.4383  0.3045
   77CHL1  H16A 8126   2.650   6.265   7.732 -1.8365  0.3173  0.8242
   77CHL1  H16B 8127   2.559   6.110   7.713  0.5955 -0.0772 -0.8802
   77CHL1   C17 8128   2.774   6.097   7.678 -0.4458 -0.3280 -0.6657
   77CHL1   H17 8129   2.749   5.989   7.688 -0.7131 -0.2268 -0.2499
   77CHL1   C13 8130   2.849   6.125   7.554 -0.3863 -0.0851 -0.3285
   77CHL1   C18 8131   2.917   6.261   7.564 -0.1707  1.3453 -0.4032
   77CHL1  H18A 8132   3.004   6.254   7.633 -1.3518  0.7073  1.0730
   77CHL1  H18B 8133   2.964   6.286   7.467  0.5264 -2.5717 -1.1732
   77CHL1  H18C 8134   2.856   6.351   7.587 -0.0064  2.5860 -4.4384
   77CHL1   C12 8135   2.949   6.019   7.500 -0.0711 -0.4893  0.1485
   77CHL1  H12A 8136   3.043   6.003   7.556 -0.1404  2.2974  1.1538
   77CHL1  H12B 8137   2.892   5.924   7.511  0.4185 -0.8221 -0.2251
   77CHL1   C11 8138   2.986   6.032   7.349  0.1337 -0.2289 -0.3450
   77CHL1  H11A 8139   3.042   6.127   7.336  2.5243 -1.7840 -1.9516
   77CHL1  H11B 8140   3.059   5.952   7.323  0.1045 -0.1033 -0.8317
   77CHL1    C9 8141   2.859   6.034   7.263  0.5004 -0.1914  0.1506
   77CHL1    H9 8142   2.809   5.936   7.280 -0.1603  0.1639  0.2695
   77CHL1   C10 8143   2.899   6.031   7.111 -0.7986  0.8036 -0.0070
   77CHL1   C19 8144   3.008   6.134   7.077  0.0092 -0.3717  0.0541
   77CHL1  H19A 8145   3.104   6.108   7.127 -0.7961  0.0657  1.8918
   77CHL1  H19B 8146   3.025   6.151   6.969  3.0789 -1.5657  0.3026
   77CHL1  H19C 8147   2.998   6.231   7.131 -2.7939 -1.3357  1.3873
   77CHL1    C1 8148   2.943   5.886   7.070  0.5425  0.5965 -0.5958
   77CHL1   H1A 8149   3.036   5.858   7.124 -0.2716 -0.2325  0.3728
   77CHL1   H1B 8150   2.869   5.807   7.094  0.1809  0.7928 -1.0576
   77CHL1    C2 8151   2.958   5.867   6.916 -0.1526  0.8858 -0.1157
   77CHL1   H2A 8152   2.996   5.765   6.893  0.6084  1.2477 -0.4640
   77CHL1   H2B 8153   3.045   5.929   6.885  1.7750 -0.5904  2.1475
   77CHL1   C20 8154   2.850   6.127   7.807  0.3816  0.4850  0.1762
   77CHL1   H20 8155   2.868   6.237   7.810  0.0630  0.5784 -1.0501
   77CHL1   C21 8156   2.983   6.056   7.833 -0.0754  0.7611  0.1165
   77CHL1  H21A 8157   3.026   6.096   7.927 -1.0862  1.2023  0.3996
   77CHL1  H21B 8158   3.050   6.069   7.745  2.8772  0.8820  2.3286
   77CHL1  H21C 8159   2.959   5.949   7.853 -4.0214  1.3851 -0.7873
   77CHL1   C22 8160   2.764   6.098   7.936 -0.4900 -0.2488 -0.4673
   77CHL1  H22A 8161   2.657   6.123   7.919 -0.7731 -0.4143  1.0473
   77CHL1  H22B 8162   2.756   5.990   7.960  1.2700 -0.2857  0.0103
   77CHL1   C23 8163   2.801   6.187   8.054 -0.1798  0.4293  0.2648
   77CHL1  H23A 8164   2.909   6.180   8.076  0.3918  1.2991 -2.0782
   77CHL1  H23B 8165   2.786   6.294   8.027 -2.6629  0.8668  3.0599
   77CHL1   C24 8166   2.725   6.158   8.183 -0.6694 -0.2071  0.0701
   77CHL1  H24A 8167   2.624   6.201   8.169 -1.5278 -2.7762 -1.8257
   77CHL1  H24B 8168   2.719   6.049   8.202 -0.7965 -0.6321 -2.2710
   77CHL1   C25 8169   2.795   6.224   8.301  0.0918 -0.1401 -0.0647
   77CHL1   H25 8170   2.905   6.213   8.292  0.1323 -0.9212  1.3105
   77CHL1   C26 8171   2.771   6.374   8.299  0.9826  0.2849  1.0554
   77CHL1  H26A 8172   2.795   6.414   8.198 -0.3779 -1.4499 -0.0004
   77CHL1  H26B 8173   2.662   6.384   8.320  1.0699 -0.3704  1.8389
   77CHL1  H26C 8174   2.819   6.430   8.381  1.2128  1.5177  0.0894
   77CHL1   C27 8175   2.771   6.160   8.444 -0.0692 -0.6654  1.2901
   77CHL1  H27A 8176   2.821   6.061   8.449 -0.9042 -1.1334  0.5228
   77CHL1  H27B 8177   2.819   6.232   8.514  1.0159 -0.4356  0.3292
   77CHL1  H27C 8178   2.662   6.149   8.461 -0.4933  0.1314 -0.6904
   78CHL1    C3 8179   4.761   1.356   6.715  0.4719 -0.8140  0.5185
   78CHL1    H3 8180   4.839   1.435   6.712 -2.7746  2.5516  1.0089
   78CHL1    O3 8181   4.743   1.308   6.583  0.3154 -0.0459  0.5103
   78CHL1   H3' 8182   4.652   1.278   6.573  0.8597 -0.7646 -3.1322
   78CHL1    C4 8183   4.804   1.234   6.789 -0.7921  0.2786 -0.1721
   78CHL1   H4A 8184   4.723   1.158   6.787  0.2154 -0.9748  2.8500
   78CHL1   H4B 8185   4.893   1.199   6.732 -0.8648  1.4189 -1.0029
   78CHL1    C5 8186   4.827   1.271   6.938 -0.0625 -0.1455  0.7439
   78CHL1    C6 8187   4.948   1.266   6.999 -0.3598 -0.9713 -0.0231
   78CHL1    H6 8188   5.038   1.236   6.943 -2.0049 -0.4244 -3.0999
   78CHL1    C7 8189   4.973   1.302   7.146 -0.2209  0.6184  0.0410
   78CHL1   H7A 8190   5.037   1.225   7.194  1.8148 -1.1588 -5.1865
   78CHL1   H7B 8191   5.035   1.394   7.154  0.5792  0.1094 -0.2725
   78CHL1    C8 8192   4.847   1.317   7.224 -0.3704  0.0759 -0.6768
   78CHL1    H8 8193   4.804   1.215   7.240  0.6489 -0.5391 -1.7875
   78CHL1   C14 8194   4.874   1.398   7.356  0.0226  0.8539  0.1332
   78CHL1   H14 8195   4.918   1.497   7.331 -0.0236  0.5177 -1.3321
   78CHL1   C15 8196   4.988   1.340   7.452  0.1862  0.4338  1.0164
   78CHL1  H15A 8197   4.978   1.229   7.449  1.0969  0.3553  0.7965
   78CHL1  H15B 8198   5.091   1.362   7.416 -0.4364  0.5180 -0.7255
   78CHL1   C16 8199   4.960   1.406   7.584  0.3790  0.4371  0.0768
   78CHL1  H16A 8200   4.952   1.331   7.666 -0.5795 -1.0087 -1.2980
   78CHL1  H16B 8201   5.039   1.477   7.616 -0.7741  1.7698 -0.0044
   78CHL1   C17 8202   4.829   1.485   7.569  0.0167  0.7860  0.1156
   78CHL1   H17 8203   4.859   1.588   7.539 -0.4075  0.8412 -0.1236
   78CHL1   C13 8204   4.752   1.427   7.445 -0.0045  0.2325  0.0730
   78CHL1   C18 8205   4.685   1.302   7.506  0.1075 -0.3282 -0.1914
   78CHL1  H18A 8206   4.756   1.238   7.563  0.9162  0.5933 -0.1426
   78CHL1  H18B 8207   4.604   1.330   7.577  0.0201 -0.4722 -0.2347
   78CHL1  H18C 8208   4.634   1.242   7.427 -1.4436  1.6544 -0.7433
   78CHL1   C12 8209   4.658   1.516   7.367 -0.3002 -0.0677  0.0588
   78CHL1  H12A 8210   4.559   1.533   7.413 -0.5982 -0.2536 -0.5137
   78CHL1  H12B 8211   4.704   1.614   7.341  0.4809 -0.0452  1.4763
   78CHL1   C11 8212   4.629   1.437   7.239 -0.1540 -0.2727 -0.1740
   78CHL1  H11A 8213   4.571   1.347   7.269 -0.0332  0.4270  2.2131
   78CHL1  H11B 8214   4.562   1.508   7.184  1.2889  0.9356 -0.3941
   78CHL1    C9 8215   4.744   1.395   7.141  0.0043 -0.1622  0.1933
   78CHL1    H9 8216   4.792   1.491   7.111 -0.4325 -0.4955 -1.6501
   78CHL1   C10 8217   4.705   1.335   7.006  0.8817  0.8026 -0.7226
   78CHL1   C19 8218   4.600   1.227   7.036 -0.4998 -0.2270  0.1477
   78CHL1  H19A 8219   4.632   1.150   7.110  1.1461  0.9690  0.7153
   78CHL1  H19B 8220   4.510   1.274   7.081  1.1818  3.0383  0.1870
   78CHL1  H19C 8221   4.574   1.167   6.946  0.0611  0.4956 -0.5001
   78CHL1    C1 8222   4.628   1.444   6.916 -0.2368 -0.1759 -0.6680
   78CHL1   H1A 8223   4.525   1.459   6.955 -0.9259 -0.0927 -2.4419
   78CHL1   H1B 8224   4.679   1.542   6.923 -1.9362  0.6210  1.0182
   78CHL1    C2 8225   4.625   1.404   6.765  0.0117 -0.4023 -0.0394
   78CHL1   H2A 8226   4.582   1.487   6.705  0.1530 -0.0691  0.3216
   78CHL1   H2B 8227   4.559   1.314   6.758 -0.6684  0.1888 -1.3853
   78CHL1   C20 8228   4.758   1.507   7.707  0.2935 -0.0994  0.4674
   78CHL1   H20 8229   4.738   1.409   7.755 -0.4164 -0.3551 -0.3465
   78CHL1   C21 8230   4.628   1.582   7.692 -0.4699  0.5548  0.2697
   78CHL1  H21A 8231   4.638   1.675   7.631 -1.4925  1.1266  0.9511
   78CHL1  H21B 8232   4.591   1.605   7.794 -0.2523  0.3951  0.3846
   78CHL1  H21C 8233   4.556   1.512   7.644  3.3472 -4.7455  1.8583
   78CHL1   C22 8234   4.842   1.593   7.800 -0.2118 -0.0633 -0.1483
   78CHL1  H22A 8235   4.944   1.613   7.760 -1.0670  3.7553 -0.6322
   78CHL1  H22B 8236   4.788   1.690   7.806  0.7418  0.5260 -0.9034
   78CHL1   C23 8237   4.849   1.522   7.942  0.0114 -0.1315  0.5659
   78CHL1  H23A 8238   4.895   1.423   7.925 -0.1675 -0.2763  0.9211
   78CHL1  H23B 8239   4.924   1.584   7.996  0.7520  0.7901 -1.4858
   78CHL1   C24 8240   4.714   1.503   8.012  0.3578 -0.2491  0.0187
   78CHL1  H24A 8241   4.670   1.605   8.015  0.3912 -0.2680  1.3541
   78CHL1  H24B 8242   4.650   1.445   7.942  0.0855 -0.3504  0.3541
   78CHL1   C25 8243   4.730   1.449   8.155  0.1067 -0.1202 -1.1665
   78CHL1   H25 8244   4.630   1.477   8.195  2.0124  2.8385  1.7657
   78CHL1   C26 8245   4.764   1.306   8.151  0.9603 -0.3543  0.3328
   78CHL1  H26A 8246   4.708   1.258   8.067  0.1258  0.7184  0.2519
   78CHL1  H26B 8247   4.873   1.288   8.141  1.5431  2.6288  0.8892
   78CHL1  H26C 8248   4.730   1.251   8.241  1.9510  1.3540  1.7697
   78CHL1   C27 8249   4.821   1.536   8.247  0.2449 -0.2042  0.2011
   78CHL1  H27A 8250   4.802   1.507   8.352 -0.1691 -0.4594  0.0593
   78CHL1  H27B 8251   4.928   1.506   8.239  0.3546  0.6338 -1.7715
   78CHL1  H27C 8252   4.814   1.646   8.239  0.9349 -0.1530  0.3128
   79CHL1    C3 8253   3.206   0.853   7.232 -0.2898 -0.3524 -0.1071
   79CHL1    H3 8254   3.167   0.954   7.258  0.3400 -0.7768  2.7047
   79CHL1    O3 8255   3.199   0.848   7.088  0.2859  0.2312  0.2276
   79CHL1   H3' 8256   3.250   0.772   7.062 -0.9810 -0.1212 -1.3181
   79CHL1    C4 8257   3.354   0.821   7.265  0.3979  0.2991  0.7064
   79CHL1   H4A 8258   3.379   0.720   7.227  1.7966  0.3874  1.3729
   79CHL1   H4B 8259   3.403   0.902   7.207  1.3790  0.0123  1.1281
   79CHL1    C5 8260   3.364   0.832   7.418  0.6769  0.1126 -0.4366
   79CHL1    C6 8261   3.458   0.909   7.473  0.3674 -0.6322  0.0429
   79CHL1    H6 8262   3.537   0.959   7.414 -0.5859 -3.0019 -3.3438
   79CHL1    C7 8263   3.470   0.913   7.620  0.2030  0.4933  0.3670
   79CHL1   H7A 8264   3.578   0.905   7.647  0.3656  0.6246 -0.2311
   79CHL1   H7B 8265   3.415   1.005   7.648  0.2522  0.3079  1.0731
   79CHL1    C8 8266   3.398   0.809   7.694  0.0438  0.0568 -0.5250
   79CHL1    H8 8267   3.453   0.713   7.686  1.3973  0.6364  1.6900
   79CHL1   C14 8268   3.386   0.853   7.836 -0.0903 -0.4816 -0.2885
   79CHL1   H14 8269   3.325   0.946   7.831 -0.3949 -0.6936 -0.4736
   79CHL1   C15 8270   3.517   0.906   7.905  0.9241  0.3107  0.2821
   79CHL1  H15A 8271   3.613   0.869   7.862  0.6310  2.7419 -2.6410
   79CHL1  H15B 8272   3.527   1.014   7.881 -0.3270  0.1704 -0.8868
   79CHL1   C16 8273   3.503   0.875   8.059  0.0942  0.0858 -0.1469
   79CHL1  H16A 8274   3.585   0.808   8.092 -0.0870  0.6021  1.3982
   79CHL1  H16B 8275   3.502   0.970   8.117  1.8827  0.9201 -1.4584
   79CHL1   C17 8276   3.356   0.813   8.075  0.1895  0.4518  0.2111
   79CHL1   H17 8277   3.285   0.896   8.097 -1.2829 -0.6304 -0.3872
   79CHL1   C13 8278   3.326   0.749   7.934  0.7528  0.0700  0.5001
   79CHL1   C18 8279   3.404   0.615   7.927 -0.7113 -0.1802 -0.4643
   79CHL1  H18A 8280   3.385   0.557   7.834 -1.7316  1.1998 -1.1324
   79CHL1  H18B 8281   3.513   0.634   7.942 -1.5982  2.3749  3.7593
   79CHL1  H18C 8282   3.365   0.554   8.011  0.2661 -0.6441 -0.3368
   79CHL1   C12 8283   3.179   0.737   7.889  0.0767 -0.4449 -0.1833
   79CHL1  H12A 8284   3.120   0.667   7.951 -3.1075  1.4174 -0.9992
   79CHL1  H12B 8285   3.129   0.837   7.887  0.5531 -0.1940  0.2017
   79CHL1   C11 8286   3.172   0.689   7.741  0.7781 -0.3678  0.2176
   79CHL1  H11A 8287   3.205   0.584   7.732 -1.1909 -0.8485 -2.1559
   79CHL1  H11B 8288   3.064   0.684   7.715  1.0719 -1.0241 -0.9242
   79CHL1    C9 8289   3.257   0.781   7.645  0.0201 -0.4220  0.3717
   79CHL1    H9 8290   3.213   0.882   7.655  0.7387  0.0123 -0.8062
   79CHL1   C10 8291   3.255   0.747   7.491  0.4482  0.8780 -0.0460
   79CHL1   C19 8292   3.301   0.599   7.469 -0.1119  0.0814  0.4529
   79CHL1  H19A 8293   3.412   0.595   7.474 -0.0810 -0.1208 -0.2764
   79CHL1  H19B 8294   3.258   0.532   7.547  0.3875  0.0052  0.6678
   79CHL1  H19C 8295   3.264   0.555   7.373  1.3083 -4.3515  1.7895
   79CHL1    C1 8296   3.111   0.767   7.435  0.5368  0.1395 -0.2058
   79CHL1   H1A 8297   3.035   0.699   7.479 -1.1005  0.9967 -1.6565
   79CHL1   H1B 8298   3.092   0.872   7.465 -2.3655 -0.4353  0.0547
   79CHL1    C2 8299   3.102   0.755   7.281 -0.0333 -0.6808 -0.1088
   79CHL1   H2A 8300   3.002   0.790   7.248  1.0569  3.2428  0.5499
   79CHL1   H2B 8301   3.122   0.648   7.256  0.1628 -0.3630 -1.3705
   79CHL1   C20 8302   3.342   0.723   8.201 -0.2001 -0.5825  0.7219
   79CHL1   H20 8303   3.376   0.618   8.188 -0.1774 -0.9097  3.1366
   79CHL1   C21 8304   3.190   0.698   8.231 -0.0582 -0.2522  0.0502
   79CHL1  H21A 8305   3.119   0.777   8.199  1.1881 -0.4495 -3.3841
   79CHL1  H21B 8306   3.173   0.686   8.340 -1.3501 -0.5427 -0.1696
   79CHL1  H21C 8307   3.153   0.601   8.190 -1.6178 -0.4619  1.8670
   79CHL1   C22 8308   3.409   0.791   8.316 -0.5300  0.4397 -0.6264
   79CHL1  H22A 8309   3.508   0.838   8.296  0.5258 -0.6217  1.8558
   79CHL1  H22B 8310   3.342   0.866   8.362 -1.2915 -0.4572 -0.2625
   79CHL1   C23 8311   3.444   0.703   8.438  0.4304  0.3325  0.3993
   79CHL1  H23A 8312   3.363   0.641   8.482  0.2539  1.5833  1.8779
   79CHL1  H23B 8313   3.522   0.629   8.410 -0.5243 -0.1256 -1.0754
   79CHL1   C24 8314   3.509   0.787   8.546 -0.6634 -0.0067  0.0822
   79CHL1  H24A 8315   3.606   0.826   8.506 -0.7194 -1.0878 -1.1733
   79CHL1  H24B 8316   3.444   0.874   8.566 -1.9095 -0.8795 -0.1185
   79CHL1   C25 8317   3.522   0.716   8.681 -0.0394 -0.3770 -0.7163
   79CHL1   H25 8318   3.423   0.671   8.703 -2.3125  4.1375 -1.1760
   79CHL1   C26 8319   3.626   0.611   8.676  0.3285 -0.4744 -0.4927
   79CHL1  H26A 8320   3.631   0.541   8.762  1.8690 -0.3040 -0.4270
   79CHL1  H26B 8321   3.609   0.560   8.579 -1.7945 -0.5139 -0.1312
   79CHL1  H26C 8322   3.728   0.653   8.667  0.8442 -1.7994 -0.8859
   79CHL1   C27 8323   3.553   0.822   8.790 -0.3826  0.7713  0.2967
   79CHL1  H27A 8324   3.636   0.890   8.758  0.7306  0.1411  1.7524
   79CHL1  H27B 8325   3.467   0.891   8.807  0.7450  2.0526  1.0234
   79CHL1  H27C 8326   3.591   0.774   8.883 -0.6331 -1.8039 -0.9071
   80CHL1    C3 8327   1.697   5.052   7.073  0.6028  0.1458 -0.7804
   80CHL1    H3 8328   1.771   5.131   7.097  1.2147 -0.6736  0.0741
   80CHL1    O3 8329   1.666   5.056   6.931 -0.2218 -0.2732 -0.2663
   80CHL1   H3' 8330   1.703   4.976   6.893  2.8400  0.3869  1.2500
   80CHL1    C4 8331   1.755   4.908   7.103  0.3799 -0.3850 -0.7964
   80CHL1   H4A 8332   1.684   4.831   7.066 -2.6924  1.8108  0.2812
   80CHL1   H4B 8333   1.854   4.896   7.055  1.2485  1.9430  0.3549
   80CHL1    C5 8334   1.768   4.896   7.255 -0.5363  0.7164 -0.1605
   80CHL1    C6 8335   1.880   4.855   7.311 -0.6379  0.6171 -0.4105
   80CHL1    H6 8336   1.957   4.814   7.244 -0.5684 -0.9760  0.6059
   80CHL1    C7 8337   1.902   4.827   7.454  0.2366 -0.0695 -0.4217
   80CHL1   H7A 8338   1.943   4.725   7.470  0.1819 -0.2441 -1.3819
   80CHL1   H7B 8339   1.971   4.902   7.498 -0.2927  0.1883 -0.0153
   80CHL1    C8 8340   1.769   4.833   7.536  0.3092  0.0443 -0.7451
   80CHL1    H8 8341   1.713   4.737   7.530 -1.4437  1.0500 -0.9794
   80CHL1   C14 8342   1.803   4.865   7.688  0.1886 -0.5728  0.1108
   80CHL1   H14 8343   1.848   4.966   7.693 -0.8533 -0.1513  1.0958
   80CHL1   C15 8344   1.904   4.778   7.756 -0.3225  0.1180  0.3466
   80CHL1  H15A 8345   1.878   4.671   7.740  0.1945  0.0823 -0.2823
   80CHL1  H15B 8346   2.007   4.791   7.717 -1.2491  0.4125 -2.0710
   80CHL1   C16 8347   1.896   4.820   7.900  0.2533 -0.2427 -0.4417
   80CHL1  H16A 8348   1.899   4.731   7.967 -1.8086 -0.8454 -1.1208
   80CHL1  H16B 8349   1.979   4.884   7.936 -1.0124  0.8991  0.4675
   80CHL1   C17 8350   1.764   4.899   7.920 -0.6982  0.1009 -0.6348
   80CHL1   H17 8351   1.794   5.006   7.918 -1.6797  0.3872 -0.6136
   80CHL1   C13 8352   1.680   4.871   7.786 -0.5182 -0.2996 -0.2565
   80CHL1   C18 8353   1.610   4.731   7.800  1.1080 -0.1934 -0.2287
   80CHL1  H18A 8354   1.684   4.662   7.848 -1.4502 -3.5981 -0.9802
   80CHL1  H18B 8355   1.521   4.741   7.865  0.6349  0.6423 -0.9895
   80CHL1  H18C 8356   1.578   4.699   7.698  1.1173  0.0024 -0.2934
   80CHL1   C12 8357   1.581   4.979   7.733 -0.4787  0.0195  0.2785
   80CHL1  H12A 8358   1.485   4.972   7.787 -0.8746 -2.0837 -0.6706
   80CHL1  H12B 8359   1.627   5.081   7.731  0.4131 -0.3867 -0.6019
   80CHL1   C11 8360   1.545   4.954   7.580  0.4481  0.5395  0.0287
   80CHL1  H11A 8361   1.487   4.860   7.570 -0.0514  0.8768 -0.2404
   80CHL1  H11B 8362   1.494   5.051   7.561 -0.5324  0.2408  1.0922
   80CHL1    C9 8363   1.671   4.941   7.491 -0.0065 -0.0368  0.0624
   80CHL1    H9 8364   1.719   5.040   7.506 -0.2806 -0.2453  2.6274
   80CHL1   C10 8365   1.640   4.936   7.338 -0.3640  0.1610 -0.2312
   80CHL1   C19 8366   1.523   4.823   7.316 -0.2137 -1.0991  0.1780
   80CHL1  H19A 8367   1.535   4.746   7.394 -0.4439  1.0994  2.4542
   80CHL1  H19B 8368   1.429   4.865   7.357  0.4751  0.6841 -0.0196
   80CHL1  H19C 8369   1.507   4.798   7.209 -3.6891  1.0217  0.1298
   80CHL1    C1 8370   1.584   5.077   7.302 -0.6608  0.3703 -0.7882
   80CHL1   H1A 8371   1.488   5.086   7.357 -0.4800  2.0556 -0.7426
   80CHL1   H1B 8372   1.647   5.161   7.336 -1.2892  0.5266  0.0170
   80CHL1    C2 8373   1.561   5.083   7.153 -0.6367  0.2361  0.1982
   80CHL1   H2A 8374   1.513   5.178   7.122  2.3842  1.7449 -0.0150
   80CHL1   H2B 8375   1.487   5.006   7.122 -0.1349  0.3509 -1.2994
   80CHL1   C20 8376   1.699   4.869   8.056 -0.2157 -0.2075 -0.1131
   80CHL1   H20 8377   1.663   4.764   8.048  2.9941 -1.3510 -0.1747
   80CHL1   C21 8378   1.586   4.964   8.074 -0.3520 -0.4421  0.0076
   80CHL1  H21A 8379   1.506   4.948   7.998  0.1576  1.3255 -0.9263
   80CHL1  H21B 8380   1.617   5.071   8.084  0.3727 -0.5566 -0.9589
   80CHL1  H21C 8381   1.541   4.947   8.175  0.8866 -0.9215  0.4847
   80CHL1   C22 8382   1.799   4.881   8.176 -0.1802 -0.3887  0.3077
   80CHL1  H22A 8383   1.903   4.864   8.141  0.0656 -0.8665  1.2501
   80CHL1  H22B 8384   1.802   4.987   8.210  3.7509 -0.3503  0.1192
   80CHL1   C23 8385   1.769   4.790   8.294 -0.0135 -0.3292  0.3548
   80CHL1  H23A 8386   1.659   4.784   8.307  0.2243 -0.3969  2.5447
   80CHL1  H23B 8387   1.813   4.690   8.273 -1.5647 -1.3479  1.7903
   80CHL1   C24 8388   1.833   4.847   8.421  0.4162 -0.4683 -0.5877
   80CHL1  H24A 8389   1.935   4.887   8.403 -0.0347 -0.2008 -2.6749
   80CHL1  H24B 8390   1.777   4.937   8.453  0.9717 -0.1741 -0.4392
   80CHL1   C25 8391   1.842   4.749   8.541  0.0585  0.3652  0.0196
   80CHL1   H25 8392   1.754   4.683   8.531  0.2075  0.5151 -2.5039
   80CHL1   C26 8393   1.965   4.665   8.521  0.1530  0.6355  0.0381
   80CHL1  H26A 8394   1.961   4.634   8.415 -0.8033  3.0863 -0.6730
   80CHL1  H26B 8395   2.052   4.733   8.532  0.4271 -0.1825  3.8254
   80CHL1  H26C 8396   1.979   4.579   8.590  1.0060 -0.3874 -1.3978
   80CHL1   C27 8397   1.853   4.822   8.674 -0.6792 -0.6936  0.7739
   80CHL1  H27A 8398   1.946   4.882   8.664  0.2565 -2.4864 -2.0849
   80CHL1  H27B 8399   1.772   4.898   8.683  2.2759  2.7290 -0.2018
   80CHL1  H27C 8400   1.864   4.760   8.765  0.6297  2.0264  2.5293
   81CHL1    C3 8401   6.108   4.883   6.755 -0.5066 -0.1551 -0.4276
   81CHL1    H3 8402   6.000   4.858   6.753 -0.6757  0.5105  0.3715
   81CHL1    O3 8403   6.172   4.843   6.635  0.0919  0.5983  0.0241
   81CHL1   H3' 8404   6.265   4.861   6.645  0.3788  0.0394 -1.5400
   81CHL1    C4 8405   6.149   5.026   6.781  0.2757  0.0937  0.2746
   81CHL1   H4A 8406   6.258   5.039   6.765  0.2269  1.0544  0.6979
   81CHL1   H4B 8407   6.100   5.080   6.698  0.1698  0.7648  0.7710
   81CHL1    C5 8408   6.106   5.081   6.916 -1.0091  0.3881 -0.2648
   81CHL1    C6 8409   6.019   5.175   6.913  0.2106 -0.2696 -0.0446
   81CHL1    H6 8410   5.980   5.217   6.819 -0.7076 -0.3660  0.2888
   81CHL1    C7 8411   5.963   5.235   7.039  0.7640  0.0233  0.2233
   81CHL1   H7A 8412   5.947   5.343   7.019 -2.2082 -0.3320  0.4243
   81CHL1   H7B 8413   5.857   5.204   7.053  1.0203 -1.8844 -1.7553
   81CHL1    C8 8414   6.043   5.203   7.169  0.0106 -0.3131 -0.4018
   81CHL1    H8 8415   6.141   5.255   7.166 -0.1135 -0.0006  0.9977
   81CHL1   C14 8416   5.970   5.238   7.292  0.0997 -0.5414 -0.2460
   81CHL1   H14 8417   5.878   5.176   7.294  0.1816 -0.6600 -0.1382
   81CHL1   C15 8418   5.928   5.386   7.296  0.6082 -0.0573 -0.7574
   81CHL1  H15A 8419   6.011   5.455   7.269  1.1822  0.3753  1.9273
   81CHL1  H15B 8420   5.843   5.401   7.226 -1.2416 -2.4469  0.8786
   81CHL1   C16 8421   5.879   5.403   7.437  0.1154 -0.6988 -0.2660
   81CHL1  H16A 8422   5.921   5.498   7.474  1.3454 -1.0764 -0.6767
   81CHL1  H16B 8423   5.768   5.405   7.436  0.1004  1.9350  1.9772
   81CHL1   C17 8424   5.933   5.280   7.516 -0.0148 -0.1246 -0.0217
   81CHL1   H17 8425   5.847   5.210   7.513 -0.7311  0.7392  0.3094
   81CHL1   C13 8426   6.038   5.204   7.423  0.4433  0.6499 -0.8513
   81CHL1   C18 8427   6.161   5.287   7.438  0.8609 -0.6041 -0.1984
   81CHL1  H18A 8428   6.201   5.276   7.541  0.9123 -2.4204 -0.3905
   81CHL1  H18B 8429   6.242   5.263   7.367  2.3197 -1.7016  1.7708
   81CHL1  H18C 8430   6.154   5.397   7.433  1.4797 -0.4814  1.1980
   81CHL1   C12 8431   6.060   5.047   7.427 -0.2501  0.1360  0.6111
   81CHL1  H12A 8432   6.118   5.016   7.517 -1.7034 -0.1814  1.4451
   81CHL1  H12B 8433   5.962   4.996   7.427 -0.7238  1.0348  1.2091
   81CHL1   C11 8434   6.141   5.010   7.300 -0.4840  0.4918 -0.2450
   81CHL1  H11A 8435   6.240   5.061   7.308  0.3047 -1.0752  0.2385
   81CHL1  H11B 8436   6.173   4.903   7.297  0.7081  0.8018  0.7485
   81CHL1    C9 8437   6.078   5.053   7.165 -0.3986  0.2075  0.4028
   81CHL1    H9 8438   5.982   4.999   7.148 -0.0039 -0.4703  0.3022
   81CHL1   C10 8439   6.157   5.007   7.040  0.8794 -0.1418  0.1685
   81CHL1   C19 8440   6.306   5.018   7.055 -0.5657 -0.5297  0.2272
   81CHL1  H19A 8441   6.334   5.121   7.085  0.2931 -1.1118  1.4585
   81CHL1  H19B 8442   6.342   4.954   7.139  1.2871  0.5128  0.2631
   81CHL1  H19C 8443   6.357   4.993   6.960 -0.4802  2.0900 -0.4563
   81CHL1    C1 8444   6.113   4.857   7.008 -0.0598  0.1998  1.0335
   81CHL1   H1A 8445   6.158   4.788   7.083  0.2128 -0.0521  0.6389
   81CHL1   H1B 8446   6.002   4.851   7.013 -0.1031 -0.6301 -0.6854
   81CHL1    C2 8447   6.168   4.805   6.872  0.3196 -0.3618 -0.4794
   81CHL1   H2A 8448   6.130   4.701   6.864 -0.1239 -0.2747  0.5025
   81CHL1   H2B 8449   6.279   4.805   6.882  0.4788 -0.9543 -2.0283
   81CHL1   C20 8450   5.966   5.313   7.662 -0.6503  0.2845 -0.5096
   81CHL1   H20 8451   6.056   5.377   7.670  0.7242 -1.9743  3.3288
   81CHL1   C21 8452   6.013   5.181   7.728 -0.1659 -0.0156  0.0727
   81CHL1  H21A 8453   6.023   5.198   7.837 -0.6732  0.6951  0.0143
   81CHL1  H21B 8454   6.111   5.157   7.681  1.0308  1.1453  1.9409
   81CHL1  H21C 8455   5.940   5.101   7.705  1.4504 -1.8522  1.1640
   81CHL1   C22 8456   5.851   5.366   7.747  0.4274  0.9727 -0.3425
   81CHL1  H22A 8457   5.779   5.428   7.688  1.2346 -0.0186 -2.4338
   81CHL1  H22B 8458   5.790   5.283   7.790  0.2457  1.1115 -0.3304
   81CHL1   C23 8459   5.918   5.455   7.852  0.7743 -0.3592  0.0905
   81CHL1  H23A 8460   5.995   5.400   7.909 -0.8274 -1.2977  1.4098
   81CHL1  H23B 8461   5.979   5.528   7.794 -0.7079 -1.1225 -2.5167
   81CHL1   C24 8462   5.815   5.532   7.926 -0.2583 -0.0450  0.5587
   81CHL1  H24A 8463   5.766   5.601   7.854 -0.0633 -1.0655 -0.5707
   81CHL1  H24B 8464   5.731   5.465   7.957  1.2279 -1.5158  1.5183
   81CHL1   C25 8465   5.851   5.614   8.058  0.6338  0.7324 -0.2761
   81CHL1   H25 8466   5.772   5.689   8.082  1.2189  0.6519  2.0099
   81CHL1   C26 8467   5.868   5.518   8.178  0.2501 -0.1238 -0.2189
   81CHL1  H26A 8468   5.776   5.458   8.196  1.0715 -1.3348  0.0538
   81CHL1  H26B 8469   5.950   5.446   8.155 -0.9044 -1.2111 -1.0174
   81CHL1  H26C 8470   5.889   5.565   8.276 -1.3351  0.5816 -0.2035
   81CHL1   C27 8471   5.980   5.692   8.029  0.0458  0.4434 -0.2470
   81CHL1  H27A 8472   5.978   5.721   7.921  1.8899 -0.1561 -0.4518
   81CHL1  H27B 8473   5.992   5.779   8.097 -0.2101 -0.6869  1.2681
   81CHL1  H27C 8474   6.066   5.626   8.051 -0.2203  0.3396  0.4804
   82CHL1    C3 8475   0.442   5.904   7.112 -0.2857  0.5775  0.7261
   82CHL1    H3 8476   0.477   6.009   7.126  0.0084  0.4893  0.6624
   82CHL1    O3 8477   0.452   5.878   6.969  0.2759 -0.0758  0.3132
   82CHL1   H3' 8478   0.474   5.784   6.965 -3.2232 -0.9616  0.3819
   82CHL1    C4 8479   0.532   5.809   7.179 -0.0290  0.2415 -0.1745
   82CHL1   H4A 8480   0.500   5.703   7.164  1.8299 -0.4535  0.5497
   82CHL1   H4B 8481   0.634   5.811   7.135  0.4227  0.3944  0.8581
   82CHL1    C5 8482   0.537   5.831   7.325  0.1170 -0.9563  0.5967
   82CHL1    C6 8483   0.653   5.858   7.385 -0.1110 -0.1373  0.0342
   82CHL1    H6 8484   0.743   5.851   7.321 -1.8327  2.7774 -2.8416
   82CHL1    C7 8485   0.667   5.871   7.535  0.1707 -0.3709  0.2451
   82CHL1   H7A 8486   0.761   5.828   7.575  2.1432  2.9844 -0.5897
   82CHL1   H7B 8487   0.678   5.981   7.547  0.3305 -0.4507  0.8375
   82CHL1    C8 8488   0.539   5.846   7.613 -0.3989 -0.0043 -0.2892
   82CHL1    H8 8489   0.532   5.737   7.628  3.4896 -0.2020  0.6330
   82CHL1   C14 8490   0.536   5.909   7.755 -0.1225 -0.3175 -0.3206
   82CHL1   H14 8491   0.540   6.020   7.747 -2.1054 -0.2801 -1.3024
   82CHL1   C15 8492   0.654   5.874   7.840 -0.2528  0.2757  0.0177
   82CHL1  H15A 8493   0.681   5.767   7.838 -0.2062  0.2892 -0.0715
   82CHL1  H15B 8494   0.744   5.933   7.812 -0.6262  0.5344 -0.6758
   82CHL1   C16 8495   0.615   5.912   7.983  0.2371 -0.3315 -0.0717
   82CHL1  H16A 8496   0.645   5.826   8.046 -2.2546 -0.7769  0.5307
   82CHL1  H16B 8497   0.665   6.007   8.012  1.7745 -1.1393 -0.0400
   82CHL1   C17 8498   0.459   5.947   7.981 -0.6744  0.5640  1.1684
   82CHL1   H17 8499   0.453   6.058   7.981  0.5529  0.7037 -1.8989
   82CHL1   C13 8500   0.410   5.885   7.842  0.3511  0.6976 -0.7811
   82CHL1   C18 8501   0.380   5.733   7.863 -0.3286  0.2594  0.1436
   82CHL1  H18A 8502   0.466   5.672   7.899  0.1618  1.0706  0.3706
   82CHL1  H18B 8503   0.290   5.714   7.925 -0.3283 -1.0473 -0.2437
   82CHL1  H18C 8504   0.352   5.693   7.763 -0.2949 -1.0141  0.6272
   82CHL1   C12 8505   0.297   5.959   7.768  0.4451 -0.6571  0.1125
   82CHL1  H12A 8506   0.201   5.944   7.822  0.2654 -0.8413 -0.2618
   82CHL1  H12B 8507   0.314   6.069   7.762  1.9198 -0.8377  0.6918
   82CHL1   C11 8508   0.284   5.908   7.623 -0.4571  0.0209  0.1747
   82CHL1  H11A 8509   0.241   5.806   7.623 -1.7191  0.5323  1.4560
   82CHL1  H11B 8510   0.221   5.982   7.569 -1.0033 -0.8371 -0.3682
   82CHL1    C9 8511   0.418   5.909   7.538  0.0232 -0.6719  0.1267
   82CHL1    H9 8512   0.447   6.015   7.521 -1.8332 -0.1372  0.1852
   82CHL1   C10 8513   0.402   5.844   7.398  0.2027 -0.4376 -0.1281
   82CHL1   C19 8514   0.347   5.701   7.404 -0.2822 -0.5199  0.3239
   82CHL1  H19A 8515   0.237   5.702   7.415 -0.4832 -4.0584 -0.5962
   82CHL1  H19B 8516   0.381   5.642   7.316 -0.9118 -0.4467  0.0348
   82CHL1  H19C 8517   0.392   5.646   7.490  1.1465  0.9470  0.5449
   82CHL1    C1 8518   0.292   5.919   7.316 -0.2324 -0.7298  0.0278
   82CHL1   H1A 8519   0.188   5.910   7.356  0.0144  0.4611  0.9775
   82CHL1   H1B 8520   0.320   6.025   7.333 -1.3431 -0.5285  0.6873
   82CHL1    C2 8521   0.297   5.887   7.165 -0.3561 -0.3210 -0.8337
   82CHL1   H2A 8522   0.233   5.953   7.103 -0.8238  0.8387  0.8641
   82CHL1   H2B 8523   0.264   5.785   7.138  2.9139 -0.9001 -2.9637
   82CHL1   C20 8524   0.394   5.897   8.109  0.2236 -0.5230 -1.0066
   82CHL1   H20 8525   0.404   5.787   8.118 -2.6337 -1.0063 -3.1873
   82CHL1   C21 8526   0.250   5.949   8.108  0.6664  0.4303 -0.1960
   82CHL1  H21A 8527   0.189   5.917   8.021 -0.6661  1.1662  0.4518
   82CHL1  H21B 8528   0.240   6.060   8.105  0.3488  0.4203  0.3834
   82CHL1  H21C 8529   0.203   5.915   8.202 -0.3842 -2.5313 -1.7430
   82CHL1   C22 8530   0.472   5.944   8.238 -0.1308  0.5515  0.2639
   82CHL1  H22A 8531   0.397   5.908   8.312 -1.6466  1.2320 -0.8950
   82CHL1  H22B 8532   0.567   5.888   8.251  0.7056  1.6836 -0.8261
   82CHL1   C23 8533   0.494   6.095   8.253 -0.5158 -0.3795  0.8196
   82CHL1  H23A 8534   0.578   6.122   8.184 -0.5728  0.0760  0.9277
   82CHL1  H23B 8535   0.412   6.162   8.218 -1.1259 -2.5635 -2.0811
   82CHL1   C24 8536   0.538   6.136   8.389 -0.5689 -1.0321  0.5873
   82CHL1  H24A 8537   0.448   6.141   8.452 -0.4571  0.2041  0.6594
   82CHL1  H24B 8538   0.605   6.055   8.426 -0.5860 -1.0654  0.5464
   82CHL1   C25 8539   0.620   6.266   8.390 -0.9299 -0.4361  0.4973
   82CHL1   H25 8540   0.700   6.253   8.314 -1.3791  1.4068 -0.3053
   82CHL1   C26 8541   0.524   6.386   8.359  0.1479 -0.0005  0.1625
   82CHL1  H26A 8542   0.584   6.480   8.362  3.0155 -1.6706 -1.8618
   82CHL1  H26B 8543   0.476   6.376   8.259 -2.3792  1.9736  1.1156
   82CHL1  H26C 8544   0.441   6.387   8.432 -0.9891  1.0697 -1.1116
   82CHL1   C27 8545   0.683   6.283   8.526  0.1471  0.2539 -0.1736
   82CHL1  H27A 8546   0.761   6.209   8.554 -0.8215 -0.7537 -0.1194
   82CHL1  H27B 8547   0.707   6.391   8.538  0.2358  0.1428  0.6501
   82CHL1  H27C 8548   0.608   6.259   8.604 -0.6518  0.3163 -0.9157
   83CHL1    C3 8549   3.272   0.077   6.977 -0.4133 -0.3707 -0.1556
   83CHL1    H3 8550   3.307  -0.028   6.961  3.5172  1.1776 -2.4308
   83CHL1    O3 8551   3.201   0.117   6.865 -0.3403 -0.2302 -0.3676
   83CHL1   H3' 8552   3.176   0.208   6.884  0.7824 -0.3747  1.9206
   83CHL1    C4 8553   3.175   0.086   7.102 -0.0498 -0.5713 -0.3004
   83CHL1   H4A 8554   3.106   0.172   7.088  1.6133  0.4243 -2.6454
   83CHL1   H4B 8555   3.109  -0.002   7.092 -1.9597  0.7251  0.5736
   83CHL1    C5 8556   3.237   0.068   7.239  0.8689 -0.1432 -0.1328
   83CHL1    C6 8557   3.186  -0.018   7.331 -0.0087  0.7010  0.0091
   83CHL1    H6 8558   3.103  -0.085   7.304  1.2224  0.2131 -2.8136
   83CHL1    C7 8559   3.232  -0.033   7.471  0.2723 -0.3996  0.5360
   83CHL1   H7A 8560   3.144  -0.039   7.538 -0.6873 -1.8321 -0.8050
   83CHL1   H7B 8561   3.288  -0.129   7.480 -1.7866 -1.9314 -2.1650
   83CHL1    C8 8562   3.321   0.085   7.513 -0.3402 -0.3275  0.3930
   83CHL1    H8 8563   3.262   0.177   7.534  0.7552  0.2783  0.9264
   83CHL1   C14 8564   3.399   0.046   7.636  0.1263 -0.0807 -0.7262
   83CHL1   H14 8565   3.477  -0.020   7.594 -0.8984 -0.7560 -1.5878
   83CHL1   C15 8566   3.327  -0.028   7.750  0.3306  0.1201  0.4371
   83CHL1  H15A 8567   3.228   0.022   7.761  0.6728  0.6123  1.2850
   83CHL1  H15B 8568   3.317  -0.136   7.728 -0.6241  0.7508 -2.4254
   83CHL1   C16 8569   3.409   0.020   7.874 -0.4530  0.1574  0.1447
   83CHL1  H16A 8570   3.337   0.078   7.936  0.3948  1.1329  0.2176
   83CHL1  H16B 8571   3.438  -0.070   7.932  0.6859 -0.6872 -1.6977
   83CHL1   C17 8572   3.538   0.104   7.827 -0.3798  0.4597 -0.3529
   83CHL1   H17 8573   3.616   0.025   7.816  0.9695  1.6310  0.5227
   83CHL1   C13 8574   3.496   0.160   7.689  0.5457  0.1091 -0.0605
   83CHL1   C18 8575   3.427   0.292   7.722  0.2270  0.2522 -0.2877
   83CHL1  H18A 8576   3.360   0.331   7.642  0.1542 -0.6134 -0.6484
   83CHL1  H18B 8577   3.369   0.299   7.817 -0.3101 -1.7103 -0.4526
   83CHL1  H18C 8578   3.506   0.370   7.728 -1.6632  2.1934  0.2018
   83CHL1   C12 8579   3.604   0.189   7.585  0.7020 -0.3831 -0.4345
   83CHL1  H12A 8580   3.660   0.280   7.617  0.6583 -1.0591  1.6515
   83CHL1  H12B 8581   3.673   0.104   7.567  1.6509  0.2604  0.0665
   83CHL1   C11 8582   3.543   0.221   7.444 -0.2070 -0.2415 -0.5694
   83CHL1  H11A 8583   3.489   0.317   7.454  0.7037  0.1778  0.3740
   83CHL1  H11B 8584   3.620   0.212   7.364  2.2294 -1.4891  1.8283
   83CHL1    C9 8585   3.424   0.124   7.402 -0.2414  0.1160 -0.2278
   83CHL1    H9 8586   3.468   0.028   7.366 -1.1399  0.0635 -1.2230
   83CHL1   C10 8587   3.352   0.159   7.271  0.8318 -0.1423  0.1086
   83CHL1   C19 8588   3.298   0.305   7.285 -0.3816  1.1835  0.5518
   83CHL1  H19A 8589   3.383   0.375   7.304 -0.4149  1.1842  0.6931
   83CHL1  H19B 8590   3.248   0.346   7.194 -3.5476 -1.0566  1.2315
   83CHL1  H19C 8591   3.225   0.313   7.368 -0.4090  0.9080  0.5542
   83CHL1    C1 8592   3.455   0.135   7.146  0.1641  0.2747  0.9078
   83CHL1   H1A 8593   3.532   0.213   7.164  1.7748 -1.0648 -0.0475
   83CHL1   H1B 8594   3.496   0.032   7.146 -0.2169  0.0410 -2.7955
   83CHL1    C2 8595   3.391   0.167   7.000 -0.5173 -0.2533  0.1106
   83CHL1   H2A 8596   3.464   0.154   6.917 -0.4117  1.0123  0.0035
   83CHL1   H2B 8597   3.355   0.272   7.005  1.2355  0.4343 -1.1422
   83CHL1   C20 8598   3.579   0.202   7.942  0.1404  0.2989  0.1791
   83CHL1   H20 8599   3.503   0.281   7.962  1.4045  1.8527 -0.9502
   83CHL1   C21 8600   3.707   0.274   7.902 -0.1743  0.0311 -0.5248
   83CHL1  H21A 8601   3.680   0.365   7.843 -2.0859 -0.3262 -0.2069
   83CHL1  H21B 8602   3.777   0.218   7.836 -0.3518 -1.0519  0.2024
   83CHL1  H21C 8603   3.759   0.313   7.992 -0.5100 -1.1513  0.1854
   83CHL1   C22 8604   3.596   0.124   8.070  0.1484  0.5335 -0.0112
   83CHL1  H22A 8605   3.503   0.068   8.092  0.5911 -0.0852  0.2948
   83CHL1  H22B 8606   3.675   0.046   8.073 -0.0357  0.4120  1.7580
   83CHL1   C23 8607   3.615   0.211   8.192  0.0550  0.6732 -0.0592
   83CHL1  H23A 8608   3.707   0.273   8.193  0.5491  0.0193 -1.9036
   83CHL1  H23B 8609   3.539   0.292   8.191 -1.9051 -1.1210  0.2834
   83CHL1   C24 8610   3.599   0.142   8.318  0.0463  0.0231  0.0776
   83CHL1  H24A 8611   3.506   0.082   8.317  0.9356 -1.4302  1.3077
   83CHL1  H24B 8612   3.687   0.075   8.333 -0.2064  0.1312  2.3593
   83CHL1   C25 8613   3.590   0.232   8.444 -1.1692 -0.2463  0.9652
   83CHL1   H25 8614   3.679   0.298   8.437  0.8115 -2.8207  1.2567
   83CHL1   C26 8615   3.454   0.307   8.449 -0.5943 -0.2737 -0.7324
   83CHL1  H26A 8616   3.374   0.229   8.448 -1.8971  1.0112  1.2344
   83CHL1  H26B 8617   3.460   0.371   8.539  0.7608 -0.1480 -0.9036
   83CHL1  H26C 8618   3.436   0.372   8.361 -3.0840 -1.3093 -1.0504
   83CHL1   C27 8619   3.616   0.145   8.558  0.1271  0.2077 -0.3571
   83CHL1  H27A 8620   3.643   0.194   8.654 -0.7514  1.9565 -0.9910
   83CHL1  H27B 8621   3.529   0.084   8.593  1.7133 -2.1471 -0.4321
   83CHL1  H27C 8622   3.690   0.064   8.542  0.1161  0.5424 -2.1631
   84CHL1    C3 8623   5.771   3.451   6.937 -0.4293 -0.5244 -0.3106
   84CHL1    H3 8624   5.711   3.358   6.943 -0.0113 -0.7859 -0.1681
   84CHL1    O3 8625   5.809   3.475   6.799  0.1669  0.2346  0.1928
   84CHL1   H3' 8626   5.847   3.563   6.799  0.3311  0.1651  0.9401
   84CHL1    C4 8627   5.677   3.558   6.983  0.4156  0.3057  0.3109
   84CHL1   H4A 8628   5.712   3.663   6.974 -0.5433  0.4698 -1.8128
   84CHL1   H4B 8629   5.582   3.561   6.926 -0.5034  0.1588  1.8120
   84CHL1    C5 8630   5.642   3.535   7.133 -0.3634  1.0434 -0.0175
   84CHL1    C6 8631   5.516   3.526   7.176  0.2820 -0.8020  0.4029
   84CHL1    H6 8632   5.429   3.530   7.108 -2.4500 -0.4258  3.7958
   84CHL1    C7 8633   5.491   3.512   7.327  0.1327  0.0448 -0.1802
   84CHL1   H7A 8634   5.395   3.566   7.344 -0.2735 -0.7377  0.0115
   84CHL1   H7B 8635   5.476   3.405   7.350  2.1772 -0.4385 -0.9425
   84CHL1    C8 8636   5.602   3.538   7.433  0.4639  0.4887  0.6187
   84CHL1    H8 8637   5.623   3.647   7.440 -0.9244  0.8841 -1.1286
   84CHL1   C14 8638   5.563   3.479   7.568 -0.7730 -0.1510  0.2066
   84CHL1   H14 8639   5.544   3.370   7.556  0.5022 -0.4379  0.6711
   84CHL1   C15 8640   5.437   3.524   7.633 -0.2043 -0.1577  0.1997
   84CHL1  H15A 8641   5.428   3.635   7.634 -0.9849 -0.2234  0.2815
   84CHL1  H15B 8642   5.341   3.495   7.586 -1.4776  3.5806  0.3629
   84CHL1   C16 8643   5.447   3.472   7.774  0.4823  0.2328  0.6479
   84CHL1  H16A 8644   5.405   3.548   7.844 -0.3095 -0.7443  1.2396
   84CHL1  H16B 8645   5.385   3.381   7.790 -0.9085  0.8343 -1.1335
   84CHL1   C17 8646   5.597   3.432   7.796  0.1961 -0.5516  0.1738
   84CHL1   H17 8647   5.607   3.323   7.779  1.1547 -0.8157  2.3720
   84CHL1   C13 8648   5.668   3.494   7.677  0.2448  0.4584 -0.5749
   84CHL1   C18 8649   5.700   3.647   7.713 -0.0175 -0.6631 -0.1848
   84CHL1  H18A 8650   5.737   3.706   7.626 -1.2734 -0.5532 -0.6484
   84CHL1  H18B 8651   5.614   3.709   7.747  0.8299  0.7017 -0.4928
   84CHL1  H18C 8652   5.774   3.667   7.794  0.6567  2.4669 -1.4806
   84CHL1   C12 8653   5.804   3.429   7.635 -0.0962  0.1157 -0.1654
   84CHL1  H12A 8654   5.892   3.451   7.700 -0.0071  0.1332 -0.2911
   84CHL1  H12B 8655   5.795   3.319   7.641 -0.4126  0.1414 -0.1604
   84CHL1   C11 8656   5.848   3.465   7.492  0.1883  0.3050 -0.3213
   84CHL1  H11A 8657   5.882   3.571   7.499  2.0913 -0.1526 -2.0124
   84CHL1  H11B 8658   5.933   3.406   7.454 -1.1225 -1.2695 -0.8495
   84CHL1    C9 8659   5.735   3.474   7.383  0.1759  0.7343  0.1496
   84CHL1    H9 8660   5.699   3.369   7.375 -0.1048  0.8057  0.4276
   84CHL1   C10 8661   5.765   3.515   7.233 -0.4411 -0.5347  0.2123
   84CHL1   C19 8662   5.835   3.649   7.244  0.3460 -0.6646  0.2502
   84CHL1  H19A 8663   5.926   3.645   7.307  0.0398  0.4714  0.7823
   84CHL1  H19B 8664   5.861   3.695   7.146  0.7626 -1.1550  0.1296
   84CHL1  H19C 8665   5.774   3.721   7.303 -0.3316 -1.7583  0.9010
   84CHL1    C1 8666   5.857   3.409   7.166  0.1566  0.2969 -1.1241
   84CHL1   H1A 8667   5.948   3.400   7.228  0.0668  1.2740 -0.8430
   84CHL1   H1B 8668   5.820   3.305   7.170  2.1215 -0.4305 -1.5845
   84CHL1    C2 8669   5.896   3.442   7.023 -0.1289  0.3673 -0.1519
   84CHL1   H2A 8670   5.957   3.360   6.980  0.5958  2.1024 -2.5031
   84CHL1   H2B 8671   5.946   3.541   7.027 -1.6675  1.2542 -2.1724
   84CHL1   C20 8672   5.631   3.465   7.942 -0.4521  0.5860  0.1002
   84CHL1   H20 8673   5.625   3.575   7.959 -0.0296  0.7197 -0.5831
   84CHL1   C21 8674   5.777   3.427   7.976 -0.1875 -0.3133  0.9098
   84CHL1  H21A 8675   5.798   3.319   7.991  2.3588  0.0394  0.1032
   84CHL1  H21B 8676   5.818   3.469   8.071 -2.2968 -0.4232  1.8904
   84CHL1  H21C 8677   5.846   3.470   7.901  0.9892 -0.4228  1.9146
   84CHL1   C22 8678   5.530   3.406   8.044  0.1329 -0.1188 -0.1511
   84CHL1  H22A 8679   5.430   3.445   8.015  0.5886  2.2357  1.3072
   84CHL1  H22B 8680   5.538   3.295   8.043  3.1343  0.0471  0.8811
   84CHL1   C23 8681   5.562   3.455   8.185 -0.2015  0.0141 -0.1503
   84CHL1  H23A 8682   5.633   3.395   8.246  0.9782  1.8164  0.3006
   84CHL1  H23B 8683   5.627   3.545   8.175 -0.6041  0.2247 -0.9777
   84CHL1   C24 8684   5.444   3.476   8.280 -0.8370 -0.1398 -0.5354
   84CHL1  H24A 8685   5.381   3.543   8.216 -2.2896  0.4004  1.4156
   84CHL1  H24B 8686   5.387   3.385   8.307  0.1050 -0.3187  0.8822
   84CHL1   C25 8687   5.477   3.549   8.414  0.2497  0.6736 -1.2778
   84CHL1   H25 8688   5.526   3.648   8.399 -1.0973  1.5236 -0.0923
   84CHL1   C26 8689   5.346   3.574   8.490  0.7050  0.3068  0.2292
   84CHL1  H26A 8690   5.276   3.632   8.427  0.7002 -1.6523 -1.6006
   84CHL1  H26B 8691   5.290   3.490   8.536 -0.9649  0.9492 -0.5859
   84CHL1  H26C 8692   5.364   3.639   8.579  1.2944  0.8434 -0.2790
   84CHL1   C27 8693   5.572   3.466   8.506  0.5863  0.1105 -0.1831
   84CHL1  H27A 8694   5.559   3.494   8.613  0.6464 -0.6145  0.0180
   84CHL1  H27B 8695   5.547   3.358   8.498  0.7245  0.0933 -0.3668
   84CHL1  H27C 8696   5.676   3.484   8.472  0.7816  1.1019  0.9146
   85CHL1    C3 8697   4.891   0.746   6.877  0.0542 -0.3640  0.8729
   85CHL1    H3 8698   5.001   0.745   6.896 -0.0705 -2.4980  1.6190
   85CHL1    O3 8699   4.866   0.718   6.742  0.2047 -0.1185  0.1223
   85CHL1   H3' 8700   4.773   0.701   6.731  0.5032 -0.0615 -3.2494
   85CHL1    C4 8701   4.834   0.630   6.959  0.5405  1.0376 -0.0650
   85CHL1   H4A 8702   4.732   0.599   6.927  0.2160  1.1539  0.8610
   85CHL1   H4B 8703   4.908   0.551   6.935  0.6520  0.6726  1.4681
   85CHL1    C5 8704   4.853   0.652   7.107  0.2194  0.3526 -0.1927
   85CHL1    C6 8705   4.908   0.556   7.185 -0.1797 -0.2487  0.5485
   85CHL1    H6 8706   4.952   0.471   7.131 -2.8481 -1.1531 -0.3186
   85CHL1    C7 8707   4.925   0.565   7.329 -0.0543  0.2813 -0.4793
   85CHL1   H7A 8708   4.900   0.468   7.376  0.1124 -0.0585 -1.1001
   85CHL1   H7B 8709   5.031   0.585   7.358 -0.4411  1.0939  0.4353
   85CHL1    C8 8710   4.859   0.687   7.401  0.3794 -0.3277  0.2794
   85CHL1    H8 8711   4.756   0.651   7.420  0.7450 -1.1773  0.6651
   85CHL1   C14 8712   4.924   0.725   7.527  0.0350  0.1041 -0.3179
   85CHL1   H14 8713   5.016   0.782   7.499  0.5079 -0.4914  0.0215
   85CHL1   C15 8714   4.970   0.615   7.627 -0.5715 -0.1536  0.2708
   85CHL1  H15A 8715   4.886   0.542   7.622  0.0374 -1.0889  3.2129
   85CHL1  H15B 8716   5.067   0.571   7.595  0.2302  1.1975  0.7948
   85CHL1   C16 8717   4.975   0.694   7.764 -0.5321  0.0259 -0.3458
   85CHL1  H16A 8718   4.911   0.645   7.841 -0.0087  1.2614  0.8999
   85CHL1  H16B 8719   5.075   0.686   7.811 -0.3177  0.5351 -0.7199
   85CHL1   C17 8720   4.931   0.844   7.731 -0.1002  0.4914 -0.3586
   85CHL1   H17 8721   5.021   0.894   7.690  2.3799 -1.3650  2.5251
   85CHL1   C13 8722   4.838   0.830   7.604  0.1591 -0.0523  0.4308
   85CHL1   C18 8723   4.698   0.777   7.655  0.3276 -0.1293  0.4541
   85CHL1  H18A 8724   4.645   0.736   7.566  1.9318 -0.9022 -0.1585
   85CHL1  H18B 8725   4.719   0.688   7.719  1.3538  0.3789  0.8319
   85CHL1  H18C 8726   4.647   0.861   7.706  0.8635  0.6214 -0.2436
   85CHL1   C12 8727   4.838   0.961   7.519 -0.4740  1.3420 -0.5239
   85CHL1  H12A 8728   4.771   1.030   7.574 -1.0394 -0.1864  0.7549
   85CHL1  H12B 8729   4.941   0.999   7.504  0.5180 -0.8148  0.5323
   85CHL1   C11 8730   4.781   0.935   7.375 -0.3534 -0.5382 -0.1885
   85CHL1  H11A 8731   4.673   0.915   7.387 -0.0233 -1.5678  1.1893
   85CHL1  H11B 8732   4.793   1.017   7.301 -0.8759 -0.8293 -0.6011
   85CHL1    C9 8733   4.844   0.811   7.304 -0.4464  0.2191  0.9110
   85CHL1    H9 8734   4.952   0.837   7.303 -0.3453 -0.1430 -1.7843
   85CHL1   C10 8735   4.798   0.784   7.160  0.1543 -0.8872 -0.9554
   85CHL1   C19 8736   4.646   0.783   7.148 -0.1751 -0.6101  0.2324
   85CHL1  H19A 8737   4.616   0.709   7.225  0.6234 -0.0965  1.0517
   85CHL1  H19B 8738   4.602   0.878   7.184 -0.3270 -0.6130  0.0525
   85CHL1  H19C 8739   4.614   0.762   7.044 -1.4833 -3.6343  1.2104
   85CHL1    C1 8740   4.854   0.899   7.066  0.0139 -0.3478  0.4371
   85CHL1   H1A 8741   4.811   0.994   7.104 -1.5826 -0.3352 -1.3603
   85CHL1   H1B 8742   4.964   0.916   7.077  0.0372  1.1043 -1.6651
   85CHL1    C2 8743   4.820   0.878   6.917  0.5111  1.0435  0.0135
   85CHL1   H2A 8744   4.865   0.961   6.858  0.1484  1.9216  0.9494
   85CHL1   H2B 8745   4.711   0.880   6.896  0.0289  0.8791  2.4031
   85CHL1   C20 8746   4.881   0.922   7.855  0.4985  0.5527 -0.8010
   85CHL1   H20 8747   4.795   0.862   7.893  1.0319 -1.2859 -2.4425
   85CHL1   C21 8748   4.840   1.068   7.824 -0.3323 -1.0892  0.3892
   85CHL1  H21A 8749   4.837   1.137   7.911 -0.2949 -1.9732  1.0955
   85CHL1  H21B 8750   4.739   1.075   7.778  0.1653 -0.0720 -0.5811
   85CHL1  H21C 8751   4.916   1.118   7.760  0.1073  1.0432  2.4937
   85CHL1   C22 8752   4.981   0.928   7.972  0.4151 -0.6970 -0.0142
   85CHL1  H22A 8753   5.058   0.849   7.983  0.6576 -0.4961 -0.2615
   85CHL1  H22B 8754   5.049   1.010   7.940  0.2425 -0.1293  1.0446
   85CHL1   C23 8755   4.912   0.937   8.103  0.3637  0.8388 -0.3005
   85CHL1  H23A 8756   4.982   0.970   8.182 -0.1119  1.0914  0.0121
   85CHL1  H23B 8757   4.832   1.013   8.096 -0.4746 -0.0658 -0.6453
   85CHL1   C24 8758   4.842   0.811   8.149 -0.1195  0.3743  0.1460
   85CHL1  H24A 8759   4.784   0.831   8.242  0.5425 -0.9003  0.8430
   85CHL1  H24B 8760   4.757   0.787   8.082 -0.8764  1.5179  0.6729
   85CHL1   C25 8761   4.937   0.686   8.164  0.4415 -0.3710  0.1203
   85CHL1   H25 8762   4.983   0.651   8.069  0.5697  0.7286 -0.2231
   85CHL1   C26 8763   5.049   0.721   8.262  0.3080 -0.5793 -0.5471
   85CHL1  H26A 8764   5.128   0.784   8.216  0.5512 -1.5915 -1.5162
   85CHL1  H26B 8765   5.004   0.776   8.347 -1.2528 -0.3373 -1.5300
   85CHL1  H26C 8766   5.102   0.628   8.294 -0.2885 -0.7064  0.0831
   85CHL1   C27 8767   4.870   0.563   8.228  0.2352 -0.2630  0.2339
   85CHL1  H27A 8768   4.783   0.534   8.166 -1.7449  2.7938  1.4713
   85CHL1  H27B 8769   4.943   0.480   8.220  1.8284  1.2362 -1.5357
   85CHL1  H27C 8770   4.834   0.581   8.332 -0.7197 -1.8049  0.1761
   86CHL1    C3 8771   0.414   5.003   6.949 -0.2311  0.3019  0.8353
   86CHL1    H3 8772   0.442   5.097   7.001  2.0308 -0.7668  1.6220
   86CHL1    O3 8773   0.413   5.035   6.810  0.0142 -0.5985 -0.6524
   86CHL1   H3' 8774   0.383   4.951   6.773 -2.0744 -0.7894  1.4133
   86CHL1    C4 8775   0.514   4.889   6.984 -0.0145  0.1610  0.7280
   86CHL1   H4A 8776   0.493   4.802   6.918  1.3394 -0.4488  1.0843
   86CHL1   H4B 8777   0.609   4.939   6.957 -0.2382  0.0965 -0.1889
   86CHL1    C5 8778   0.514   4.859   7.129 -0.0535 -0.3305  0.3623
   86CHL1    C6 8779   0.631   4.873   7.193  0.8906 -0.2849 -0.4313
   86CHL1    H6 8780   0.720   4.903   7.135  1.6215  0.8099  1.2425
   86CHL1    C7 8781   0.654   4.851   7.341  0.3969 -0.1230 -0.1688
   86CHL1   H7A 8782   0.736   4.782   7.369 -0.0781  0.2867  2.4181
   86CHL1   H7B 8783   0.673   4.957   7.369  0.1372 -0.0754 -0.1646
   86CHL1    C8 8784   0.525   4.786   7.412  0.5402  0.7142  0.1608
   86CHL1    H8 8785   0.532   4.676   7.408 -2.6317  0.5238 -0.9997
   86CHL1   C14 8786   0.530   4.827   7.561  0.2613 -0.2616 -0.0255
   86CHL1   H14 8787   0.494   4.932   7.563  0.8476 -0.0908  1.8933
   86CHL1   C15 8788   0.658   4.816   7.644 -0.8139  0.6568  0.0142
   86CHL1  H15A 8789   0.707   4.719   7.621 -1.3322  0.2916  0.4398
   86CHL1  H15B 8790   0.723   4.904   7.627  0.6759 -0.3779  0.2360
   86CHL1   C16 8791   0.603   4.827   7.792  0.6337  0.9505 -0.4673
   86CHL1  H16A 8792   0.640   4.743   7.855 -1.8945 -0.0238 -0.2471
   86CHL1  H16B 8793   0.635   4.921   7.842  1.3573 -0.3198  1.5386
   86CHL1   C17 8794   0.447   4.827   7.784  0.5076  0.1184 -0.1713
   86CHL1   H17 8795   0.412   4.932   7.796 -2.7476 -1.1468  1.7555
   86CHL1   C13 8796   0.412   4.770   7.642 -0.5008  0.1641 -0.2685
   86CHL1   C18 8797   0.415   4.615   7.645  0.1238 -0.4279 -0.5642
   86CHL1  H18A 8798   0.512   4.580   7.685 -1.5684 -2.1144  2.1626
   86CHL1  H18B 8799   0.343   4.581   7.722  0.7909 -1.0101 -0.1937
   86CHL1  H18C 8800   0.392   4.576   7.544  0.6003 -0.6015 -0.6070
   86CHL1   C12 8801   0.278   4.832   7.581 -0.8268 -0.0256  0.0566
   86CHL1  H12A 8802   0.184   4.784   7.617 -0.1185 -1.0064  0.6068
   86CHL1  H12B 8803   0.274   4.942   7.592  2.2993  0.2735 -1.3266
   86CHL1   C11 8804   0.271   4.799   7.425  0.3712 -0.7022  0.0724
   86CHL1  H11A 8805   0.252   4.693   7.401 -2.1566 -0.2478 -0.0207
   86CHL1  H11B 8806   0.187   4.864   7.391 -0.3236 -0.5668  1.9852
   86CHL1    C9 8807   0.395   4.844   7.349  0.1494 -0.0734  0.0654
   86CHL1    H9 8808   0.393   4.954   7.369 -0.3151 -0.1693  0.5664
   86CHL1   C10 8809   0.381   4.834   7.195  0.0805 -0.4999  0.0776
   86CHL1   C19 8810   0.356   4.692   7.164  0.8142  0.8103 -0.7563
   86CHL1  H19A 8811   0.360   4.662   7.057 -2.9659 -1.1089 -0.4571
   86CHL1  H19B 8812   0.421   4.628   7.227 -1.3238 -1.4062 -0.7114
   86CHL1  H19C 8813   0.260   4.650   7.203  0.9719 -2.5541 -3.7559
   86CHL1    C1 8814   0.269   4.929   7.139  0.3181  0.0062 -0.9963
   86CHL1   H1A 8815   0.168   4.893   7.169  0.5402 -0.1640 -0.4513
   86CHL1   H1B 8816   0.272   5.027   7.193 -0.7253 -1.4051  1.7359
   86CHL1    C2 8817   0.274   4.960   6.989 -0.4266  1.1609 -0.1381
   86CHL1   H2A 8818   0.214   5.049   6.960 -0.3500  0.6468 -1.8966
   86CHL1   H2B 8819   0.257   4.867   6.932 -0.1775 -0.4491  2.3200
   86CHL1   C20 8820   0.386   4.766   7.908 -0.1313  0.9305 -0.4947
   86CHL1   H20 8821   0.405   4.657   7.920  1.5300  1.2444 -0.0805
   86CHL1   C21 8822   0.231   4.777   7.892  0.8115 -0.0542 -0.8483
   86CHL1  H21A 8823   0.194   4.712   7.810  0.9553  0.7677 -1.5803
   86CHL1  H21B 8824   0.215   4.885   7.868 -1.6662 -0.9311 -3.4805
   86CHL1  H21C 8825   0.161   4.751   7.974  1.7719  1.7575  0.5850
   86CHL1   C22 8826   0.427   4.838   8.040  0.1027  0.3301  0.6410
   86CHL1  H22A 8827   0.537   4.851   8.036 -0.1128  1.6273 -2.1267
   86CHL1  H22B 8828   0.390   4.942   8.025 -1.6322 -0.5282 -1.2238
   86CHL1   C23 8829   0.384   4.759   8.167 -0.0208  0.4429 -0.5599
   86CHL1  H23A 8830   0.310   4.677   8.155  0.7204 -0.7577  2.5290
   86CHL1  H23B 8831   0.473   4.703   8.200  1.6733  2.4306 -1.6352
   86CHL1   C24 8832   0.342   4.862   8.272  0.2008  0.4385  0.6529
   86CHL1  H24A 8833   0.425   4.933   8.293 -0.1898 -0.1263  4.6526
   86CHL1  H24B 8834   0.256   4.922   8.235  0.4012  0.2673 -0.0871
   86CHL1   C25 8835   0.308   4.826   8.421 -0.3388 -0.2594  0.1985
   86CHL1   H25 8836   0.401   4.774   8.452  1.4727  1.0930 -2.6767
   86CHL1   C26 8837   0.293   4.954   8.503 -0.0504 -0.5117 -0.1556
   86CHL1  H26A 8838   0.254   4.928   8.604 -0.3546 -1.1216 -0.4253
   86CHL1  H26B 8839   0.384   5.016   8.513  0.6740 -1.7653  1.0796
   86CHL1  H26C 8840   0.219   5.025   8.460  0.1000  0.5075  1.2654
   86CHL1   C27 8841   0.178   4.740   8.427  0.2705 -0.4170  0.3318
   86CHL1  H27A 8842   0.209   4.635   8.408 -0.0401 -0.4938  0.2524
   86CHL1  H27B 8843   0.141   4.739   8.531  0.2454 -0.9714  0.3216
   86CHL1  H27C 8844   0.095   4.781   8.366 -0.5342 -1.8177  0.4747
   87CHL1    C3 8845   0.881   3.060   6.977  0.1906  0.0265  0.1708
   87CHL1    H3 8846   0.796   3.132   6.981  0.8544  0.7091  3.0570
   87CHL1    O3 8847   0.928   3.035   6.840  0.0487 -0.1541  0.6569
   87CHL1   H3' 8848   0.855   2.981   6.808  1.3271 -3.2118  2.5928
   87CHL1    C4 8849   0.998   3.122   7.056 -0.3824 -0.0156 -0.0781
   87CHL1   H4A 8850   1.081   3.049   7.045 -0.2629  0.0908  0.1096
   87CHL1   H4B 8851   1.025   3.213   6.999 -0.2261  0.1164  0.2062
   87CHL1    C5 8852   0.969   3.140   7.205 -0.5152 -0.0876 -0.1989
   87CHL1    C6 8853   0.981   3.261   7.261 -0.4360 -0.3081  0.1379
   87CHL1    H6 8854   1.014   3.350   7.205  0.1845 -0.8593 -0.3796
   87CHL1    C7 8855   0.962   3.285   7.403  0.0765 -0.0988  0.1598
   87CHL1   H7A 8856   1.041   3.347   7.451  0.8119 -2.1519  1.6886
   87CHL1   H7B 8857   0.870   3.346   7.416  0.3254  0.3440 -0.1278
   87CHL1    C8 8858   0.943   3.156   7.485  0.0480  0.3715  0.0427
   87CHL1    H8 8859   1.046   3.120   7.506  1.2535  1.2244 -4.0462
   87CHL1   C14 8860   0.883   3.178   7.621  0.4681 -0.2365 -0.1526
   87CHL1   H14 8861   0.775   3.196   7.606  0.1130 -3.0793 -1.1734
   87CHL1   C15 8862   0.929   3.300   7.709  0.0502  0.3807  0.3212
   87CHL1  H15A 8863   1.035   3.317   7.681 -0.1793 -1.5943 -1.8554
   87CHL1  H15B 8864   0.861   3.386   7.693 -0.4905 -0.3747 -1.5576
   87CHL1   C16 8865   0.923   3.247   7.857  0.3581 -0.6229  0.1720
   87CHL1  H16A 8866   1.030   3.229   7.880  1.2140  1.4538 -1.9925
   87CHL1  H16B 8867   0.870   3.314   7.927  0.0693 -2.5961  1.8958
   87CHL1   C17 8868   0.843   3.113   7.847 -0.4005  0.0613 -0.1116
   87CHL1   H17 8869   0.735   3.136   7.835 -1.0580 -2.4926  0.6671
   87CHL1   C13 8870   0.880   3.053   7.711 -0.7862  0.2489  0.8629
   87CHL1   C18 8871   1.025   2.990   7.724  0.4079 -0.0738 -0.3606
   87CHL1  H18A 8872   1.027   2.898   7.787 -3.0289  1.2038  1.6880
   87CHL1  H18B 8873   1.047   2.958   7.619  0.4994 -2.6047  0.3899
   87CHL1  H18C 8874   1.105   3.060   7.756  1.8619 -2.1725  0.7306
   87CHL1   C12 8875   0.785   2.948   7.649 -0.1183  0.0251 -0.0330
   87CHL1  H12A 8876   0.792   2.860   7.717  1.2869 -0.9150 -1.3523
   87CHL1  H12B 8877   0.680   2.984   7.648 -0.0708  0.1710  0.1623
   87CHL1   C11 8878   0.819   2.921   7.506 -0.1319  0.0101  0.2734
   87CHL1  H11A 8879   0.907   2.854   7.520 -0.8196 -1.3864 -1.7647
   87CHL1  H11B 8880   0.743   2.853   7.461 -0.1174  0.7050 -0.8056
   87CHL1    C9 8881   0.862   3.042   7.417 -0.2663 -0.0946 -0.4227
   87CHL1    H9 8882   0.765   3.089   7.388  0.3427  0.8266 -1.0047
   87CHL1   C10 8883   0.920   3.008   7.276  0.5377  0.4758  0.4573
   87CHL1   C19 8884   1.035   2.911   7.303  0.2170  0.3037  0.5685
   87CHL1  H19A 8885   1.115   2.963   7.359  0.7754  2.4063 -2.0715
   87CHL1  H19B 8886   1.006   2.812   7.345  2.7106 -0.2700  1.0003
   87CHL1  H19C 8887   1.078   2.877   7.206 -3.3797 -1.6123 -0.4370
   87CHL1    C1 8888   0.817   2.929   7.187 -0.2168 -0.0624 -0.0141
   87CHL1   H1A 8889   0.801   2.828   7.229  0.7637  0.2079  1.0417
   87CHL1   H1B 8890   0.715   2.972   7.186 -0.1237  0.1548 -0.1421
   87CHL1    C2 8891   0.848   2.929   7.032  0.1782 -0.9208  0.2647
   87CHL1   H2A 8892   0.760   2.887   6.979 -0.6598  0.7743  0.2804
   87CHL1   H2B 8893   0.932   2.858   7.019  0.0787 -0.8214 -0.9578
   87CHL1   C20 8894   0.847   3.020   7.969 -0.6969  0.5852 -0.1029
   87CHL1   H20 8895   0.821   2.918   7.933 -0.5837  0.6449 -0.3487
   87CHL1   C21 8896   0.727   3.061   8.061  0.9618  0.3369 -0.0387
   87CHL1  H21A 8897   0.722   2.987   8.144  3.9950 -1.3208 -1.2873
   87CHL1  H21B 8898   0.625   3.052   8.017  0.1247 -2.3628  2.3658
   87CHL1  H21C 8899   0.744   3.166   8.096 -3.8471  1.2157  0.0258
   87CHL1   C22 8900   0.982   3.026   8.050  0.2748  0.4851 -0.3364
   87CHL1  H22A 8901   1.068   3.012   7.981  0.1995  1.6246 -0.6810
   87CHL1  H22B 8902   1.000   3.129   8.089  0.5234  1.3776 -2.7134
   87CHL1   C23 8903   0.987   2.923   8.160 -0.6595  0.7788 -0.5373
   87CHL1  H23A 8904   0.916   2.955   8.239  0.1996  1.9730 -0.2462
   87CHL1  H23B 8905   0.951   2.824   8.124  2.7882 -0.1717 -1.4894
   87CHL1   C24 8906   1.133   2.890   8.216  1.2478 -0.0651  0.2747
   87CHL1  H24A 8907   1.199   2.878   8.128  3.0503  0.7761  1.4986
   87CHL1  H24B 8908   1.165   2.977   8.277 -0.8198  1.1877 -0.3567
   87CHL1   C25 8909   1.126   2.769   8.308 -0.1095 -0.1475  0.0127
   87CHL1   H25 8910   1.081   2.683   8.254 -1.8298  0.3144  0.6694
   87CHL1   C26 8911   1.270   2.715   8.346  0.1798  0.1650 -0.2383
   87CHL1  H26A 8912   1.333   2.798   8.383  0.6883 -0.3283  0.0081
   87CHL1  H26B 8913   1.270   2.643   8.430  3.1819  1.5865  1.0476
   87CHL1  H26C 8914   1.318   2.671   8.256 -1.9407 -2.0837 -0.3352
   87CHL1   C27 8915   1.044   2.809   8.431  0.2126 -0.2076  0.0661
   87CHL1  H27A 8916   1.041   2.718   8.495 -1.6871 -0.9721 -1.0670
   87CHL1  H27B 8917   1.085   2.898   8.483 -2.4052  2.0263 -1.4923
   87CHL1  H27C 8918   0.937   2.828   8.408  0.2247 -1.0297 -0.7056
   88CHL1    C3 8919   4.994   1.777   6.880 -0.1483 -0.6406  0.0884
   88CHL1    H3 8920   4.887   1.746   6.886 -0.4591  0.4933  0.6409
   88CHL1    O3 8921   5.041   1.756   6.750  0.1449 -0.0457  0.7831
   88CHL1   H3' 8922   5.117   1.813   6.740 -0.6781  1.4157  2.5798
   88CHL1    C4 8923   5.011   1.926   6.916  0.6492 -0.7008 -0.1407
   88CHL1   H4A 8924   5.121   1.939   6.918  0.5326  0.3828 -0.3896
   88CHL1   H4B 8925   4.969   1.980   6.829 -0.0743  0.2837  0.8085
   88CHL1    C5 8926   4.965   1.967   7.052  0.1046 -0.4789 -0.8055
   88CHL1    C6 8927   4.880   2.070   7.076  0.2571  0.0141  0.5557
   88CHL1    H6 8928   4.841   2.127   6.991 -1.5984  0.6481  1.8061
   88CHL1    C7 8929   4.828   2.116   7.207 -0.2765 -0.5287 -0.6816
   88CHL1   H7A 8930   4.836   2.226   7.215  0.9057 -0.6409 -0.2132
   88CHL1   H7B 8931   4.718   2.102   7.215 -0.6242  2.4075  0.0967
   88CHL1    C8 8932   4.915   2.044   7.325  0.1975 -0.2665  0.0235
   88CHL1    H8 8933   5.009   2.101   7.340 -0.0970 -0.2558  1.9694
   88CHL1   C14 8934   4.835   2.056   7.452 -0.2732 -0.2506  0.2991
   88CHL1   H14 8935   4.742   1.999   7.428 -0.1398 -0.3301 -0.0286
   88CHL1   C15 8936   4.782   2.196   7.500 -0.1925 -0.8956 -0.1931
   88CHL1  H15A 8937   4.858   2.276   7.510 -1.8654  0.6963 -0.0177
   88CHL1  H15B 8938   4.691   2.233   7.449 -1.6421 -1.4524  1.9363
   88CHL1   C16 8939   4.730   2.161   7.643 -0.6961 -0.0533 -0.3683
   88CHL1  H16A 8940   4.767   2.235   7.718  0.9464 -1.4276  0.2296
   88CHL1  H16B 8941   4.619   2.161   7.648 -0.6311 -2.4750  3.1013
   88CHL1   C17 8942   4.795   2.021   7.679  0.4785 -0.0707  0.4768
   88CHL1   H17 8943   4.721   1.944   7.649  0.7653 -0.3350  0.4471
   88CHL1   C13 8944   4.899   1.993   7.578  0.8795 -0.6621 -0.7296
   88CHL1   C18 8945   5.028   2.068   7.617 -0.4332 -0.1057 -0.5799
   88CHL1  H18A 8946   5.094   2.067   7.528  1.8098  2.1323  0.9782
   88CHL1  H18B 8947   5.005   2.172   7.650 -0.1908 -0.5009  0.8537
   88CHL1  H18C 8948   5.087   2.020   7.697 -1.4042 -0.1351  0.1277
   88CHL1   C12 8949   4.932   1.842   7.543 -0.4505 -0.1731  0.2134
   88CHL1  H12A 8950   4.976   1.805   7.638 -1.1195  2.1536  1.4678
   88CHL1  H12B 8951   4.836   1.789   7.532 -1.7249  2.2262 -0.6148
   88CHL1   C11 8952   5.011   1.821   7.414  0.4652  0.0795 -0.0306
   88CHL1  H11A 8953   5.111   1.867   7.428  1.2333 -2.2089  2.4926
   88CHL1  H11B 8954   5.023   1.712   7.398  0.8875  0.1584 -0.2720
   88CHL1    C9 8955   4.941   1.893   7.295  0.5215 -0.6800  0.6350
   88CHL1    H9 8956   4.839   1.848   7.292  1.0174 -1.7976  0.3014
   88CHL1   C10 8957   5.016   1.870   7.163  0.2297 -0.4485 -0.1240
   88CHL1   C19 8958   5.168   1.899   7.191  0.7712 -0.4411  0.3453
   88CHL1  H19A 8959   5.223   1.917   7.096 -0.1963  0.9055  0.0222
   88CHL1  H19B 8960   5.176   1.990   7.253 -0.5312  0.7525 -1.1738
   88CHL1  H19C 8961   5.215   1.818   7.251  0.6021 -1.3937 -0.7834
   88CHL1    C1 8962   5.009   1.719   7.125  0.8270 -0.6622 -0.2554
   88CHL1   H1A 8963   5.068   1.658   7.197  0.0948 -1.1895 -0.0928
   88CHL1   H1B 8964   4.901   1.689   7.124  0.2085  1.4754  0.4664
   88CHL1    C2 8965   5.066   1.692   6.981 -0.3318 -0.1468  0.3645
   88CHL1   H2A 8966   5.046   1.586   6.954 -1.1340 -0.1322  0.8701
   88CHL1   H2B 8967   5.176   1.705   6.974 -0.4614  0.2847 -0.9106
   88CHL1   C20 8968   4.817   1.985   7.826  0.2898  0.3383  0.2023
   88CHL1   H20 8969   4.865   1.885   7.835  0.8338  0.5708 -0.1099
   88CHL1   C21 8970   4.681   1.965   7.891  0.6458 -0.3071 -0.4454
   88CHL1  H21A 8971   4.609   1.909   7.827 -0.6758 -0.3726  1.0857
   88CHL1  H21B 8972   4.643   2.063   7.925 -1.0595 -0.9027 -0.6109
   88CHL1  H21C 8973   4.693   1.904   7.983 -0.2322 -0.3856 -0.3844
   88CHL1   C22 8974   4.903   2.084   7.905 -0.6109  0.1085 -0.0728
   88CHL1  H22A 8975   5.009   2.058   7.882 -0.6771  0.2761 -0.5601
   88CHL1  H22B 8976   4.882   2.187   7.870 -1.8330 -0.6524 -1.6148
   88CHL1   C23 8977   4.901   2.086   8.059 -0.6244 -0.0476  0.7718
   88CHL1  H23A 8978   4.795   2.107   8.084 -1.2210 -2.0766  0.0835
   88CHL1  H23B 8979   4.910   1.984   8.104  2.1761 -0.9172 -1.6209
   88CHL1   C24 8980   5.001   2.198   8.113  0.1127  0.0719 -0.0270
   88CHL1  H24A 8981   5.101   2.183   8.069  1.3225  0.5238  2.4498
   88CHL1  H24B 8982   4.966   2.296   8.074 -2.3617 -0.3469  0.9832
   88CHL1   C25 8983   4.994   2.211   8.267 -0.7360  0.4863  0.3106
   88CHL1   H25 8984   4.961   2.110   8.300  1.1034 -0.6905 -1.2988
   88CHL1   C26 8985   5.130   2.246   8.336 -0.1034  0.1527  0.7946
   88CHL1  H26A 8986   5.165   2.334   8.278 -0.8627 -0.5734 -0.7964
   88CHL1  H26B 8987   5.113   2.268   8.443  0.0165  1.6879  0.5031
   88CHL1  H26C 8988   5.204   2.163   8.331  0.2422  0.3441  2.5355
   88CHL1   C27 8989   4.884   2.307   8.304  0.3087  0.5193 -0.8166
   88CHL1  H27A 8990   4.900   2.334   8.410 -1.3029 -1.4457 -0.0371
   88CHL1  H27B 8991   4.896   2.396   8.239 -0.8195  1.3199  0.0683
   88CHL1  H27C 8992   4.781   2.267   8.294  1.0071 -0.5443 -4.9837
   89CHL1    C3 8993   0.465   4.304   7.032  0.0249 -0.0218  0.7510
   89CHL1    H3 8994   0.389   4.368   7.082  0.5847  0.4362  1.0299
   89CHL1    O3 8995   0.458   4.314   6.895  0.3000  0.5771 -0.0999
   89CHL1   H3' 8996   0.545   4.306   6.857  0.0331 -0.4363 -0.5276
   89CHL1    C4 8997   0.605   4.362   7.074  0.3711  0.4529 -0.3262
   89CHL1   H4A 8998   0.685   4.321   7.009 -0.5726 -0.9012 -0.6362
   89CHL1   H4B 8999   0.594   4.470   7.049 -3.1177 -0.0138 -1.0324
   89CHL1    C5 9000   0.627   4.349   7.222 -0.8887  0.7870 -0.1175
   89CHL1    C6 9001   0.672   4.451   7.293 -0.2191  0.4244 -0.8010
   89CHL1    H6 9002   0.702   4.550   7.256 -1.6625  1.4475  0.6771
   89CHL1    C7 9003   0.690   4.439   7.444  0.5424  0.3859 -0.1439
   89CHL1   H7A 9004   0.790   4.480   7.470  1.3490 -3.3792  3.2694
   89CHL1   H7B 9005   0.621   4.503   7.504  1.0105 -0.0857  0.9113
   89CHL1    C8 9006   0.675   4.293   7.504 -0.0085 -0.6085  0.3276
   89CHL1    H8 9007   0.772   4.244   7.481 -0.5547 -2.0086  0.9900
   89CHL1   C14 9008   0.661   4.304   7.659  0.0507 -0.4819  0.3287
   89CHL1   H14 9009   0.570   4.365   7.676  1.0322  1.2008 -0.3257
   89CHL1   C15 9010   0.770   4.388   7.736  0.7131 -0.4579 -0.7553
   89CHL1  H15A 9011   0.871   4.345   7.722 -0.4647 -3.8255  0.3718
   89CHL1  H15B 9012   0.779   4.496   7.714 -0.7994  0.3107  2.1681
   89CHL1   C16 9013   0.718   4.365   7.876  0.6991 -0.1587  0.0752
   89CHL1  H16A 9014   0.800   4.339   7.946  2.4562 -0.6451 -2.0844
   89CHL1  H16B 9015   0.670   4.449   7.931 -0.8404 -0.8155 -0.2326
   89CHL1   C17 9016   0.615   4.248   7.877  0.1521 -0.0091 -0.7072
   89CHL1   H17 9017   0.512   4.285   7.860 -0.5652 -1.9722 -0.7921
   89CHL1   C13 9018   0.635   4.173   7.735 -0.2158 -0.1469  0.5898
   89CHL1   C18 9019   0.756   4.072   7.736 -0.3741  0.5297  0.4693
   89CHL1  H18A 9020   0.720   3.980   7.786  1.3270 -0.9538 -0.9766
   89CHL1  H18B 9021   0.781   4.041   7.633 -1.5073  1.0702  0.0176
   89CHL1  H18C 9022   0.838   4.096   7.807 -2.1866  1.5270  2.2984
   89CHL1   C12 9023   0.509   4.106   7.669  0.5952 -0.1291 -0.3145
   89CHL1  H12A 9024   0.496   4.006   7.716 -2.5241  0.4895  0.2403
   89CHL1  H12B 9025   0.419   4.165   7.698  0.6281 -0.1767 -0.1151
   89CHL1   C11 9026   0.533   4.087   7.517 -0.0057  0.7663 -0.5786
   89CHL1  H11A 9027   0.626   4.033   7.491  1.3845  2.3192  1.0301
   89CHL1  H11B 9028   0.448   4.027   7.477  0.1255  0.3517 -0.2395
   89CHL1    C9 9029   0.556   4.222   7.440  0.7626  0.8099 -0.3371
   89CHL1    H9 9030   0.467   4.286   7.458 -0.9215 -2.4602  3.8956
   89CHL1   C10 9031   0.589   4.211   7.291 -0.3889  0.2957 -0.1952
   89CHL1   C19 9032   0.693   4.107   7.248  0.2452 -1.1959  0.0445
   89CHL1  H19A 9033   0.794   4.124   7.290  0.3614 -0.0946 -0.6548
   89CHL1  H19B 9034   0.659   4.006   7.278  1.7574 -1.8020 -0.2631
   89CHL1  H19C 9035   0.704   4.106   7.137  0.2060 -3.7573  0.0460
   89CHL1    C1 9036   0.452   4.170   7.227  0.6790  0.1657  0.0384
   89CHL1   H1A 9037   0.430   4.066   7.259  3.3582 -0.7957 -1.0531
   89CHL1   H1B 9038   0.371   4.234   7.267  0.5580  0.5278 -0.7806
   89CHL1    C2 9039   0.442   4.169   7.080 -0.3542  0.5503  0.4964
   89CHL1   H2A 9040   0.344   4.128   7.049  0.1531  0.5353 -1.1395
   89CHL1   H2B 9041   0.522   4.104   7.038 -1.8102 -0.2694 -1.0341
   89CHL1   C20 9042   0.602   4.150   8.004  0.0835 -0.3913 -0.7259
   89CHL1   H20 9043   0.563   4.059   7.954  0.1166 -0.9096  0.1839
   89CHL1   C21 9044   0.493   4.202   8.102  0.0621  0.0921  0.6491
   89CHL1  H21A 9045   0.397   4.209   8.046  1.0503  1.2781 -0.9559
   89CHL1  H21B 9046   0.515   4.302   8.146 -0.1149  0.4714 -0.1065
   89CHL1  H21C 9047   0.487   4.133   8.189  0.3447  0.1019  0.6743
   89CHL1   C22 9048   0.732   4.117   8.078  0.1966  0.1777 -0.6036
   89CHL1  H22A 9049   0.788   4.067   7.996  0.9934 -0.2582  0.2018
   89CHL1  H22B 9050   0.781   4.209   8.116  0.9077  0.4925 -2.2738
   89CHL1   C23 9051   0.715   4.028   8.204  0.6751 -0.4150  0.4920
   89CHL1  H23A 9052   0.686   4.105   8.279  2.0975 -0.2994  0.9524
   89CHL1  H23B 9053   0.634   3.958   8.175 -2.2333  2.1823  2.0502
   89CHL1   C24 9054   0.853   3.965   8.237  0.7417 -0.0487  0.4757
   89CHL1  H24A 9055   0.896   3.912   8.150  1.8970  0.1476  0.9193
   89CHL1  H24B 9056   0.923   4.050   8.253  1.0383  0.0318 -1.1335
   89CHL1   C25 9057   0.862   3.863   8.350 -0.1116 -0.1261  0.1738
   89CHL1   H25 9058   0.791   3.778   8.338 -0.4980  0.1029  0.8109
   89CHL1   C26 9059   1.013   3.821   8.350 -0.1997 -0.2595 -1.2885
   89CHL1  H26A 9060   1.067   3.913   8.381 -0.1277 -1.0389  0.9350
   89CHL1  H26B 9061   1.040   3.740   8.420 -1.4043  0.4911  0.0637
   89CHL1  H26C 9062   1.059   3.795   8.252  1.2946  0.9491 -0.9352
   89CHL1   C27 9063   0.842   3.919   8.484 -0.3907 -0.6804  0.2093
   89CHL1  H27A 9064   0.735   3.938   8.508 -0.0445 -0.2508  1.4290
   89CHL1  H27B 9065   0.898   3.851   8.552  0.0550 -2.3823 -1.7798
   89CHL1  H27C 9066   0.877   4.024   8.489  2.9560 -1.5921 -2.2654
   90CHL1    C3 9067   0.743   6.377   6.933 -0.4376 -0.3695 -0.3529
   90CHL1    H3 9068   0.741   6.487   6.914 -2.5766 -0.3607 -0.2003
   90CHL1    O3 9069   0.795   6.330   6.815  0.4524  0.2042 -0.4449
   90CHL1   H3' 9070   0.785   6.234   6.817 -0.4757  0.2576 -1.8231
   90CHL1    C4 9071   0.834   6.332   7.047  0.6727 -0.2823 -0.1950
   90CHL1   H4A 9072   0.847   6.222   7.042  0.2135 -0.6250  4.3420
   90CHL1   H4B 9073   0.937   6.370   7.030  0.8131 -0.0586  1.1183
   90CHL1    C5 9074   0.774   6.398   7.170 -0.2348  0.1110 -0.2067
   90CHL1    C6 9075   0.829   6.494   7.235  0.1499 -0.7275  0.5753
   90CHL1    H6 9076   0.929   6.516   7.194  0.3845  1.2146  2.1347
   90CHL1    C7 9077   0.785   6.563   7.359  0.3710 -0.2980 -0.6450
   90CHL1   H7A 9078   0.868   6.580   7.432  1.5370  0.2662 -2.0769
   90CHL1   H7B 9079   0.759   6.667   7.331  1.3569 -0.2107 -1.2491
   90CHL1    C8 9080   0.671   6.484   7.419 -0.7721  0.0023  0.0263
   90CHL1    H8 9081   0.699   6.393   7.477 -1.5357 -0.7694 -0.7909
   90CHL1   C14 9082   0.601   6.563   7.532  0.3940  0.2779  0.5417
   90CHL1   H14 9083   0.558   6.651   7.481  1.6952  1.1503  0.9328
   90CHL1   C15 9084   0.698   6.632   7.641  0.5411 -0.2778  0.5533
   90CHL1  H15A 9085   0.774   6.562   7.681 -0.4694 -1.5947  0.2145
   90CHL1  H15B 9086   0.752   6.716   7.592 -1.9847  0.3595 -1.2225
   90CHL1   C16 9087   0.603   6.675   7.750  0.3400 -0.0805 -0.1889
   90CHL1  H16A 9088   0.651   6.626   7.837  0.0111 -0.0715 -0.0045
   90CHL1  H16B 9089   0.585   6.783   7.772  1.4180  0.7585 -3.1414
   90CHL1   C17 9090   0.461   6.610   7.715 -1.0495  0.3057  0.0740
   90CHL1   H17 9091   0.411   6.691   7.658  3.8123  2.4730 -1.3861
   90CHL1   C13 9092   0.493   6.495   7.613  0.4734 -0.7004  0.2411
   90CHL1   C18 9093   0.541   6.366   7.686  0.1732  0.0657  1.0535
   90CHL1  H18A 9094   0.460   6.318   7.745 -0.7040  1.0722  0.6742
   90CHL1  H18B 9095   0.575   6.292   7.610  3.4235  0.7769  1.7525
   90CHL1  H18C 9096   0.620   6.392   7.760  0.0975 -0.0653  1.1819
   90CHL1   C12 9097   0.383   6.464   7.502  0.4352  0.6761 -0.0374
   90CHL1  H12A 9098   0.300   6.412   7.554  0.4014  0.4081 -0.3624
   90CHL1  H12B 9099   0.334   6.558   7.469  0.2848  0.8267  0.6061
   90CHL1   C11 9100   0.436   6.373   7.394  0.7020  0.5783 -0.1612
   90CHL1  H11A 9101   0.472   6.279   7.442 -0.5236  0.5493  0.7162
   90CHL1  H11B 9102   0.361   6.353   7.315 -0.9350  1.1114  1.2454
   90CHL1    C9 9103   0.563   6.439   7.322 -0.1733 -0.1120  1.0018
   90CHL1    H9 9104   0.527   6.536   7.283 -0.7240  1.4508  5.1161
   90CHL1   C10 9105   0.628   6.365   7.205  0.0979  0.1498  0.4195
   90CHL1   C19 9106   0.642   6.211   7.247  0.7474  0.0740 -0.8256
   90CHL1  H19A 9107   0.667   6.150   7.158  2.9875 -0.6862  0.2809
   90CHL1  H19B 9108   0.724   6.212   7.323  0.5276 -1.2130 -0.5434
   90CHL1  H19C 9109   0.544   6.169   7.279  0.5499  0.3800 -1.0352
   90CHL1    C1 9110   0.534   6.378   7.071 -0.1922 -0.2940 -0.5034
   90CHL1   H1A 9111   0.441   6.328   7.104  0.0238  1.9977  3.8161
   90CHL1   H1B 9112   0.516   6.487   7.061  0.8490 -0.0856 -0.2128
   90CHL1    C2 9113   0.600   6.335   6.941  0.7268 -0.0047  0.8111
   90CHL1   H2A 9114   0.538   6.360   6.852 -0.1747 -3.7936  0.2647
   90CHL1   H2B 9115   0.596   6.224   6.946 -1.6072  0.1397  3.2805
   90CHL1   C20 9116   0.373   6.583   7.837 -0.0456  0.5375 -0.0555
   90CHL1   H20 9117   0.404   6.487   7.884 -0.6567  0.9922  1.2938
   90CHL1   C21 9118   0.232   6.583   7.782 -0.1691 -0.2225 -0.3480
   90CHL1  H21A 9119   0.206   6.675   7.725 -0.7360  0.2915  0.7155
   90CHL1  H21B 9120   0.155   6.569   7.861  1.0397 -1.7472  0.5785
   90CHL1  H21C 9121   0.211   6.502   7.710 -1.1323 -0.3139  0.0309
   90CHL1   C22 9122   0.395   6.680   7.957 -0.3600 -0.9888  1.6347
   90CHL1  H22A 9123   0.504   6.685   7.979 -0.2109 -0.8664  0.8994
   90CHL1  H22B 9124   0.361   6.780   7.922 -0.1408 -1.3194  0.4321
   90CHL1   C23 9125   0.312   6.656   8.087  0.0234 -0.4338 -0.0425
   90CHL1  H23A 9126   0.204   6.660   8.059 -0.1078  1.5128  0.6804
   90CHL1  H23B 9127   0.338   6.562   8.140 -2.1727 -0.5891  0.8318
   90CHL1   C24 9128   0.328   6.773   8.191  0.1888 -0.1515  0.9946
   90CHL1  H24A 9129   0.434   6.783   8.222  0.5579  2.4253 -0.9262
   90CHL1  H24B 9130   0.304   6.868   8.138  0.9571 -0.9361 -0.8027
   90CHL1   C25 9131   0.227   6.762   8.307  0.1125 -0.6906 -0.0727
   90CHL1   H25 9132   0.137   6.719   8.259  0.7691 -0.6462 -1.3652
   90CHL1   C26 9133   0.288   6.659   8.407 -0.3531  0.1932 -0.0393
   90CHL1  H26A 9134   0.397   6.673   8.419 -0.4712 -1.2692  3.1674
   90CHL1  H26B 9135   0.241   6.664   8.507 -0.2373  0.4441  0.0024
   90CHL1  H26C 9136   0.261   6.562   8.361  1.8550 -0.1718 -0.6175
   90CHL1   C27 9137   0.205   6.905   8.360 -0.2861 -0.8261 -0.9644
   90CHL1  H27A 9138   0.118   6.900   8.429 -0.2051 -2.3880 -0.9516
   90CHL1  H27B 9139   0.292   6.961   8.401  0.6896 -1.8300 -1.6487
   90CHL1  H27C 9140   0.168   6.974   8.281  1.9065 -0.9843 -2.1596
   91CHL1    C3 9141   2.550   0.844   7.275  0.0369  0.6248  0.4882
   91CHL1    H3 9142   2.615   0.933   7.289  0.0047  0.8360 -0.6774
   91CHL1    O3 9143   2.558   0.812   7.140 -0.3641 -0.5227  0.4210
   91CHL1   H3' 9144   2.516   0.726   7.128  0.2712 -0.7133 -0.4955
   91CHL1    C4 9145   2.607   0.734   7.356 -0.4689  0.2077 -0.6490
   91CHL1   H4A 9146   2.553   0.641   7.326 -1.5633  0.8256 -0.6250
   91CHL1   H4B 9147   2.715   0.716   7.339 -0.3666 -1.8787  1.8648
   91CHL1    C5 9148   2.591   0.750   7.503 -0.2088  0.4437  0.1993
   91CHL1    C6 9149   2.692   0.765   7.586 -0.5778 -0.1079  0.2620
   91CHL1    H6 9150   2.793   0.770   7.541 -1.0556  3.1480 -0.6093
   91CHL1    C7 9151   2.675   0.780   7.734  0.8229  0.1410  0.2068
   91CHL1   H7A 9152   2.746   0.709   7.781 -0.9745 -1.1195  1.0892
   91CHL1   H7B 9153   2.701   0.885   7.757  1.4319  0.6232 -2.4786
   91CHL1    C8 9154   2.536   0.733   7.777 -0.5673 -0.0221 -0.1525
   91CHL1    H8 9155   2.527   0.623   7.764 -0.4539  0.1951 -2.2396
   91CHL1   C14 9156   2.521   0.782   7.919  0.9081  0.8872  0.1721
   91CHL1   H14 9157   2.524   0.893   7.926 -0.0279  0.7834  3.0943
   91CHL1   C15 9158   2.626   0.745   8.028  0.5778  0.0512 -0.6273
   91CHL1  H15A 9159   2.650   0.640   8.002  2.3423  0.7260 -1.8076
   91CHL1  H15B 9160   2.717   0.806   8.009  0.9832 -0.3731 -0.0250
   91CHL1   C16 9161   2.553   0.763   8.165  0.0583 -0.3690  0.0768
   91CHL1  H16A 9162   2.566   0.669   8.223 -2.5087 -1.2942 -0.7320
   91CHL1  H16B 9163   2.598   0.844   8.226  1.1488  0.8625 -2.2992
   91CHL1   C17 9164   2.409   0.810   8.134 -0.0794 -0.2700  0.0717
   91CHL1   H17 9165   2.415   0.920   8.131  1.3102 -0.3431  0.0166
   91CHL1   C13 9166   2.385   0.759   7.991  0.4407  0.9334  0.1555
   91CHL1   C18 9167   2.339   0.609   7.995  0.2682  0.1170 -0.1654
   91CHL1  H18A 9168   2.228   0.606   8.006  0.1268  1.5012 -1.1591
   91CHL1  H18B 9169   2.368   0.560   7.900  0.6183  0.4245 -0.2163
   91CHL1  H18C 9170   2.395   0.549   8.070  2.1973  1.6263 -0.3648
   91CHL1   C12 9171   2.295   0.851   7.903 -0.4680  0.0127  0.2279
   91CHL1  H12A 9172   2.189   0.831   7.927 -0.2593 -1.7203 -0.2589
   91CHL1  H12B 9173   2.320   0.958   7.921  1.8178 -0.6361  1.0625
   91CHL1   C11 9174   2.294   0.815   7.750  0.0193 -0.2028  0.2785
   91CHL1  H11A 9175   2.260   0.710   7.748  2.5930 -1.0562 -1.0602
   91CHL1  H11B 9176   2.231   0.886   7.693 -0.2811 -1.6354 -1.2079
   91CHL1    C9 9177   2.441   0.815   7.691  0.0552 -0.6950  0.4473
   91CHL1    H9 9178   2.474   0.921   7.700 -0.8048 -0.4732  0.9554
   91CHL1   C10 9179   2.442   0.768   7.544 -0.4881  0.0769  0.0464
   91CHL1   C19 9180   2.368   0.632   7.511  0.1614 -0.4978  1.0685
   91CHL1  H19A 9181   2.390   0.558   7.591  2.1011 -1.7336 -0.5472
   91CHL1  H19B 9182   2.259   0.652   7.520  0.5960  2.3711  0.4641
   91CHL1  H19C 9183   2.395   0.597   7.409  0.7237  0.0278  1.0361
   91CHL1    C1 9184   2.384   0.886   7.453 -0.6565 -0.3508 -0.1337
   91CHL1   H1A 9185   2.276   0.891   7.478 -0.7238  2.1155 -0.7628
   91CHL1   H1B 9186   2.422   0.989   7.470  1.3932 -0.9094 -1.1373
   91CHL1    C2 9187   2.407   0.869   7.301 -0.5459 -0.0706 -0.0594
   91CHL1   H2A 9188   2.376   0.960   7.245 -1.1101 -0.4552 -0.3761
   91CHL1   H2B 9189   2.348   0.782   7.266 -4.1101  2.6884 -1.1173
   91CHL1   C20 9190   2.308   0.766   8.241  0.8177  0.2404  0.3031
   91CHL1   H20 9191   2.308   0.655   8.248 -2.7374  0.1348 -0.7665
   91CHL1   C21 9192   2.162   0.816   8.203 -0.1056 -0.6479 -0.0370
   91CHL1  H21A 9193   2.154   0.925   8.183 -0.7607 -1.0127 -1.7899
   91CHL1  H21B 9194   2.085   0.787   8.277  0.7577 -0.3366  1.0025
   91CHL1  H21C 9195   2.130   0.759   8.114  0.1506 -0.7631 -0.0566
   91CHL1   C22 9196   2.344   0.819   8.374  0.4301  0.4876 -0.9520
   91CHL1  H22A 9197   2.279   0.776   8.453  0.3186  0.3266 -1.1340
   91CHL1  H22B 9198   2.442   0.774   8.401 -0.0548 -0.5058 -0.8597
   91CHL1   C23 9199   2.357   0.977   8.386  0.0071 -0.1603 -0.1670
   91CHL1  H23A 9200   2.451   0.999   8.331  0.1267  0.0547  0.1166
   91CHL1  H23B 9201   2.278   1.046   8.349 -0.3976  0.2244  1.3492
   91CHL1   C24 9202   2.377   1.000   8.536  0.7700  1.1849 -0.2681
   91CHL1  H24A 9203   2.299   0.951   8.598  1.5318 -0.5039 -0.5865
   91CHL1  H24B 9204   2.471   0.956   8.576 -0.4304  0.0196  1.2888
   91CHL1   C25 9205   2.397   1.147   8.581  0.0816  0.3362  0.6233
   91CHL1   H25 9206   2.311   1.202   8.537 -0.7553 -1.0528  0.4982
   91CHL1   C26 9207   2.408   1.164   8.726  0.0236 -0.9908  0.1363
   91CHL1  H26A 9208   2.317   1.127   8.777 -1.1880 -0.3946 -1.5250
   91CHL1  H26B 9209   2.502   1.127   8.771  1.0000  2.1476  0.8353
   91CHL1  H26C 9210   2.412   1.274   8.746  0.0994 -0.8934 -0.3876
   91CHL1   C27 9211   2.522   1.199   8.519  0.0729  0.5777  0.6915
   91CHL1  H27A 9212   2.534   1.305   8.549 -3.4132  1.6701 -1.4217
   91CHL1  H27B 9213   2.604   1.130   8.550 -0.7937 -0.5752  0.4613
   91CHL1  H27C 9214   2.505   1.208   8.409  0.2773 -1.4084  0.4683
   92CHL1    C3 9215   5.319   2.960   6.618 -0.2882 -0.9010  0.2121
   92CHL1    H3 9216   5.248   2.876   6.625  0.0546 -1.1681  0.5034
   92CHL1    O3 9217   5.392   2.961   6.490  0.0031 -0.6689  0.0138
   92CHL1   H3' 9218   5.349   2.898   6.432 -0.4230  1.4053 -2.0027
   92CHL1    C4 9219   5.263   3.093   6.645  0.4223  0.2765 -0.1964
   92CHL1   H4A 9220   5.335   3.176   6.632  1.9674 -1.1827 -1.0927
   92CHL1   H4B 9221   5.173   3.115   6.585 -1.1566 -0.6728  1.7518
   92CHL1    C5 9222   5.215   3.120   6.790 -0.3382  0.1247  0.3549
   92CHL1    C6 9223   5.086   3.162   6.818 -0.5118  0.6106 -0.2028
   92CHL1    H6 9224   5.027   3.199   6.734 -0.4571  0.7573 -0.1778
   92CHL1    C7 9225   5.036   3.184   6.959 -0.1921  0.3763 -0.2054
   92CHL1   H7A 9226   4.992   3.285   6.947 -1.1852 -0.0908 -0.5010
   92CHL1   H7B 9227   4.943   3.126   6.978 -0.5253  1.5060  1.7669
   92CHL1    C8 9228   5.135   3.161   7.072 -0.2773 -0.7086  0.0422
   92CHL1    H8 9229   5.197   3.251   7.091 -1.2421  0.1190 -0.6400
   92CHL1   C14 9230   5.063   3.136   7.205 -0.1406  0.1950  0.2713
   92CHL1   H14 9231   5.004   3.043   7.187 -0.3524 -0.0560  2.2025
   92CHL1   C15 9232   4.952   3.228   7.243 -0.4516 -0.0577 -0.1188
   92CHL1  H15A 9233   4.978   3.327   7.201 -0.4416  0.1676  0.4180
   92CHL1  H15B 9234   4.852   3.191   7.211 -1.3889  0.6382  1.9097
   92CHL1   C16 9235   4.940   3.216   7.403  0.0399 -0.4203  0.0759
   92CHL1  H16A 9236   4.973   3.313   7.445  2.4184 -1.1911  0.0482
   92CHL1  H16B 9237   4.840   3.189   7.442  0.6382  0.1304  2.0101
   92CHL1   C17 9238   5.043   3.104   7.434 -0.2513 -0.0370 -0.2825
   92CHL1   H17 9239   4.989   3.008   7.418 -1.1642  0.4609 -0.1748
   92CHL1   C13 9240   5.151   3.115   7.325  0.3492  0.2576 -0.0634
   92CHL1   C18 9241   5.235   3.238   7.357  0.1747 -1.1085  0.4943
   92CHL1  H18A 9242   5.172   3.330   7.365  0.9455 -0.3401 -1.7296
   92CHL1  H18B 9243   5.290   3.214   7.450  0.2943 -1.1046  0.4255
   92CHL1  H18C 9244   5.315   3.258   7.283 -0.0019  1.1329  0.8598
   92CHL1   C12 9245   5.239   2.992   7.299  0.1643  0.8762  0.2671
   92CHL1  H12A 9246   5.302   2.959   7.384  1.0576  1.6231 -0.1079
   92CHL1  H12B 9247   5.170   2.907   7.277  1.4098 -0.1428  0.2533
   92CHL1   C11 9248   5.314   3.007   7.160 -0.7247  0.4208 -0.7325
   92CHL1  H11A 9249   5.393   3.079   7.190  0.8256 -0.8384 -1.7098
   92CHL1  H11B 9250   5.374   2.915   7.149 -0.3548  0.4136  1.1018
   92CHL1    C9 9251   5.231   3.046   7.037  0.1717 -0.3478 -0.2835
   92CHL1    H9 9252   5.162   2.961   7.023  1.0280 -1.2022  0.6133
   92CHL1   C10 9253   5.307   3.076   6.901 -0.1936  0.4922 -0.8199
   92CHL1   C19 9254   5.418   3.183   6.929 -1.0786  0.0422  0.6117
   92CHL1  H19A 9255   5.508   3.141   6.978  0.3925 -0.0504 -2.0721
   92CHL1  H19B 9256   5.449   3.223   6.830  0.0904 -0.2473  0.8549
   92CHL1  H19C 9257   5.385   3.254   7.008 -1.2162 -0.4328  0.9833
   92CHL1    C1 9258   5.381   2.943   6.859  0.5076  0.3715 -0.2649
   92CHL1   H1A 9259   5.455   2.927   6.940 -0.7451  1.6884  1.1785
   92CHL1   H1B 9260   5.298   2.870   6.872  0.9261  0.2636  2.0854
   92CHL1    C2 9261   5.436   2.934   6.712  0.1505 -0.5956 -0.5747
   92CHL1   H2A 9262   5.479   2.832   6.700  0.4804 -0.4619 -0.5298
   92CHL1   H2B 9263   5.516   3.009   6.695 -2.2951  2.4814  1.0884
   92CHL1   C20 9264   5.084   3.092   7.585  0.4227  0.2311 -0.5335
   92CHL1   H20 9265   5.185   3.131   7.606  0.1720  0.6037 -0.0131
   92CHL1   C21 9266   5.087   2.945   7.631 -0.6894  0.0317  0.1877
   92CHL1  H21A 9267   5.114   2.876   7.548 -0.1816 -0.8685  1.0843
   92CHL1  H21B 9268   4.994   2.915   7.683 -0.1998  1.3081  1.8490
   92CHL1  H21C 9269   5.168   2.936   7.707 -0.4057  3.2576  0.3544
   92CHL1   C22 9270   4.990   3.172   7.690  0.2689  0.6320 -0.2539
   92CHL1  H22A 9271   4.997   3.281   7.671 -2.5844  1.2693  2.0569
   92CHL1  H22B 9272   4.888   3.137   7.665  0.4113  1.5305 -2.1787
   92CHL1   C23 9273   5.024   3.149   7.842 -0.2355  0.3422  0.1525
   92CHL1  H23A 9274   4.958   3.220   7.898  0.6974 -0.5327  2.4443
   92CHL1  H23B 9275   5.012   3.043   7.874 -0.8235  0.1137 -0.8133
   92CHL1   C24 9276   5.172   3.186   7.872 -0.1519 -0.1530  0.3200
   92CHL1  H24A 9277   5.228   3.096   7.839  1.3113  0.5325  0.9274
   92CHL1  H24B 9278   5.206   3.270   7.809  0.9424  0.0260  1.1225
   92CHL1   C25 9279   5.208   3.216   8.020 -0.5802  0.3177  0.4951
   92CHL1   H25 9280   5.314   3.247   8.020 -1.0277  1.9265 -0.1944
   92CHL1   C26 9281   5.133   3.336   8.077  0.3663 -0.3936 -0.8957
   92CHL1  H26A 9282   5.182   3.368   8.171 -0.2130  0.9908 -1.0564
   92CHL1  H26B 9283   5.131   3.418   8.002  0.9720  0.9738  0.5584
   92CHL1  H26C 9284   5.025   3.315   8.098 -0.2080  3.5846  0.5538
   92CHL1   C27 9285   5.190   3.094   8.114  0.1208 -0.2346  0.0141
   92CHL1  H27A 9286   5.239   3.115   8.212 -1.3733 -0.0767  0.7311
   92CHL1  H27B 9287   5.086   3.055   8.120 -0.2207  0.7523  0.6430
   92CHL1  H27C 9288   5.248   3.008   8.075 -0.7425 -0.8373  0.0657
   93CHL1    C3 9289   3.776   0.271   6.922  0.1673 -0.1695 -0.4160
   93CHL1    H3 9290   3.700   0.218   6.982  0.0627 -0.0808 -0.4689
   93CHL1    O3 9291   3.773   0.245   6.781  0.4446  0.4569  0.5009
   93CHL1   H3' 9292   3.857   0.277   6.748  0.9199 -1.9654 -0.7995
   93CHL1    C4 9293   3.735   0.417   6.956  0.1679  0.1166 -0.5275
   93CHL1   H4A 9294   3.798   0.472   6.883 -0.7399  1.6419 -0.1683
   93CHL1   H4B 9295   3.633   0.436   6.919 -0.1233  1.0040  0.7143
   93CHL1    C5 9296   3.752   0.453   7.108 -0.7688  0.2060  0.3468
   93CHL1    C6 9297   3.656   0.510   7.183 -0.2768  0.6396  0.5960
   93CHL1    H6 9298   3.552   0.528   7.151 -0.3513 -0.7322  0.0291
   93CHL1    C7 9299   3.679   0.540   7.323  0.2968 -0.7773 -0.2797
   93CHL1   H7A 9300   3.612   0.627   7.343  0.0054 -1.1688  0.4702
   93CHL1   H7B 9301   3.641   0.459   7.390 -0.1386 -0.0714  0.3401
   93CHL1    C8 9302   3.820   0.557   7.364 -0.3970 -0.0223 -0.3899
   93CHL1    H8 9303   3.853   0.648   7.310 -0.2314  1.1260  1.5857
   93CHL1   C14 9304   3.837   0.573   7.515  0.1494 -0.6814 -0.9108
   93CHL1   H14 9305   3.797   0.479   7.558  0.3215 -0.8234 -1.0603
   93CHL1   C15 9306   3.762   0.691   7.592  0.5114 -0.3444 -0.3451
   93CHL1  H15A 9307   3.798   0.779   7.534 -1.0264  0.0142 -0.7663
   93CHL1  H15B 9308   3.652   0.679   7.599  0.4735  0.9095  1.9877
   93CHL1   C16 9309   3.834   0.690   7.731  0.1078  0.7171  0.0883
   93CHL1  H16A 9310   3.855   0.793   7.768  2.5266  0.8103 -1.4125
   93CHL1  H16B 9311   3.762   0.644   7.802  0.6187 -0.8255 -0.3878
   93CHL1   C17 9312   3.962   0.593   7.717  0.8805 -0.4243  0.7814
   93CHL1   H17 9313   3.929   0.499   7.766  1.6713  0.2847  2.7406
   93CHL1   C13 9314   3.985   0.573   7.564 -0.1424 -0.4063  0.3439
   93CHL1   C18 9315   4.068   0.690   7.504 -0.3575 -0.2544  0.4962
   93CHL1  H18A 9316   4.020   0.786   7.531 -0.6205  0.5992 -2.7230
   93CHL1  H18B 9317   4.177   0.687   7.521 -0.4430 -0.9633  0.9491
   93CHL1  H18C 9318   4.048   0.686   7.394 -1.3168 -1.4674  0.6964
   93CHL1   C12 9319   4.043   0.436   7.527  0.0615  1.0404 -0.2710
   93CHL1  H12A 9320   4.149   0.424   7.557 -0.4916  0.4703  1.4621
   93CHL1  H12B 9321   3.975   0.365   7.579  1.8504 -0.7966 -0.3420
   93CHL1   C11 9322   4.042   0.408   7.376 -0.0112 -0.7083  0.2666
   93CHL1  H11A 9323   4.113   0.482   7.335 -0.4327 -0.1326  0.5682
   93CHL1  H11B 9324   4.063   0.301   7.357 -1.4149 -1.3053  1.8734
   93CHL1    C9 9325   3.903   0.441   7.313 -0.6929  0.4624 -0.0054
   93CHL1    H9 9326   3.848   0.352   7.350  0.1510 -0.6033 -1.2626
   93CHL1   C10 9327   3.898   0.422   7.154 -0.4919  0.0808 -0.3720
   93CHL1   C19 9328   3.992   0.527   7.085 -0.2105  1.2708  0.3006
   93CHL1  H19A 9329   3.996   0.520   6.974  0.3168  1.9177  0.2787
   93CHL1  H19B 9330   3.953   0.627   7.112  1.5253  1.4184  2.4011
   93CHL1  H19C 9331   4.094   0.519   7.127 -0.5290 -1.7418  0.6489
   93CHL1    C1 9332   3.937   0.273   7.118 -0.7251  0.2022  0.2196
   93CHL1   H1A 9333   4.047   0.261   7.127 -0.7144  0.3435  0.2697
   93CHL1   H1B 9334   3.886   0.206   7.191 -2.5412  0.1156 -1.0738
   93CHL1    C2 9335   3.916   0.234   6.971 -0.3214 -1.2667 -0.2510
   93CHL1   H2A 9336   3.915   0.124   6.956  2.1053 -1.5856  1.5825
   93CHL1   H2B 9337   3.999   0.279   6.912  0.8515 -1.0298  1.5522
   93CHL1   C20 9338   4.081   0.638   7.807 -0.6683  0.9982 -0.6390
   93CHL1   H20 9339   4.111   0.738   7.770 -0.4394  2.0145  2.1893
   93CHL1   C21 9340   4.206   0.541   7.800 -0.6104 -0.1118  0.4568
   93CHL1  H21A 9341   4.274   0.566   7.885  0.2771 -2.4265  0.4687
   93CHL1  H21B 9342   4.252   0.555   7.700  1.4854  0.9127  1.5328
   93CHL1  H21C 9343   4.174   0.436   7.817 -0.0492 -0.3912 -0.2021
   93CHL1   C22 9344   4.044   0.669   7.960  0.7119  0.5554 -0.0557
   93CHL1  H22A 9345   4.129   0.714   8.015  1.9153  0.2531 -1.6197
   93CHL1  H22B 9346   3.970   0.751   7.964  0.6805  0.4737  1.0470
   93CHL1   C23 9347   3.989   0.548   8.034 -0.6760  0.0681  0.2732
   93CHL1  H23A 9348   3.935   0.485   7.961  2.4478  0.0179 -2.0749
   93CHL1  H23B 9349   4.079   0.493   8.068 -0.4350  0.1672 -0.1927
   93CHL1   C24 9350   3.880   0.587   8.136 -0.2593  0.1913 -0.2357
   93CHL1  H24A 9351   3.801   0.644   8.082  0.4396  1.0331 -0.3818
   93CHL1  H24B 9352   3.832   0.488   8.156 -0.7592  0.9380  2.4908
   93CHL1   C25 9353   3.935   0.646   8.266  0.5772 -0.0542  0.5655
   93CHL1   H25 9354   4.004   0.727   8.235 -0.3979  1.1907  1.6187
   93CHL1   C26 9355   3.820   0.700   8.361  0.3325 -0.1942  0.6108
   93CHL1  H26A 9356   3.775   0.610   8.408 -2.0918  1.2797  1.1692
   93CHL1  H26B 9357   3.869   0.753   8.446  0.7754 -1.2457  1.0313
   93CHL1  H26C 9358   3.741   0.758   8.311  0.2898 -0.0588  0.8344
   93CHL1   C27 9359   4.009   0.544   8.353  0.5851  0.1972 -0.4492
   93CHL1  H27A 9360   4.098   0.505   8.299  1.8198  2.1399  0.1123
   93CHL1  H27B 9361   4.029   0.595   8.450  1.1954 -2.1935  0.7338
   93CHL1  H27C 9362   3.951   0.452   8.376 -2.6938  0.9839 -5.1040
   94CHL1    C3 9363   6.313   3.053   6.908  0.2343  0.5987 -0.8731
   94CHL1    H3 9364   6.205   3.070   6.888 -0.0210  0.0933  0.0681
   94CHL1    O3 9365   6.381   3.069   6.783  0.7023  0.4444  0.1707
   94CHL1   H3' 9366   6.339   2.999   6.733 -2.2320  1.0695  1.6296
   94CHL1    C4 9367   6.372   3.158   7.009 -0.4773  0.1127  0.4730
   94CHL1   H4A 9368   6.482   3.151   6.994 -0.3406 -1.4513  2.0412
   94CHL1   H4B 9369   6.336   3.246   6.952 -0.5357 -0.3101 -0.1543
   94CHL1    C5 9370   6.316   3.144   7.149  0.5119 -0.0900 -0.3932
   94CHL1    C6 9371   6.258   3.243   7.210 -0.0824 -0.0275 -0.2960
   94CHL1    H6 9372   6.253   3.339   7.157 -0.9146  0.3445  0.4257
   94CHL1    C7 9373   6.200   3.224   7.350 -0.2311  0.3928  0.0643
   94CHL1   H7A 9374   6.207   3.314   7.415  0.2538 -0.0238  0.5881
   94CHL1   H7B 9375   6.095   3.194   7.327 -1.4911  2.7679  2.4523
   94CHL1    C8 9376   6.244   3.105   7.440 -0.2112  0.2375  0.6773
   94CHL1    H8 9377   6.349   3.117   7.476  0.7066 -2.8103 -0.8817
   94CHL1   C14 9378   6.149   3.089   7.563 -0.4400  0.0502  0.3614
   94CHL1   H14 9379   6.050   3.075   7.515  0.1638  1.2871 -1.2812
   94CHL1   C15 9380   6.131   3.204   7.667 -0.3991 -0.1086  0.4478
   94CHL1  H15A 9381   6.230   3.254   7.673 -0.1968 -0.4983  0.3507
   94CHL1  H15B 9382   6.055   3.273   7.624  0.9595 -0.8567 -3.3551
   94CHL1   C16 9383   6.084   3.129   7.794  0.2752 -0.0863  0.4167
   94CHL1  H16A 9384   6.164   3.150   7.869  1.6123 -0.4889 -0.8645
   94CHL1  H16B 9385   5.979   3.154   7.818  0.3143  1.5017 -0.9925
   94CHL1   C17 9386   6.072   2.976   7.754 -0.8849  0.0093 -0.0515
   94CHL1   H17 9387   5.970   2.971   7.709 -0.2726 -0.9346 -1.3492
   94CHL1   C13 9388   6.176   2.955   7.640 -0.0403 -0.3490 -0.0830
   94CHL1   C18 9389   6.311   2.940   7.699 -0.3105 -0.0190 -0.4329
   94CHL1  H18A 9390   6.327   2.837   7.737  1.8885  0.6862  0.6432
   94CHL1  H18B 9391   6.399   2.949   7.632 -0.6596 -0.0183 -0.9023
   94CHL1  H18C 9392   6.324   3.011   7.783  3.8293 -1.8516  0.5759
   94CHL1   C12 9393   6.151   2.837   7.552 -0.0400 -0.4080  0.3819
   94CHL1  H12A 9394   6.163   2.736   7.597  1.0253 -0.7884 -0.7350
   94CHL1  H12B 9395   6.044   2.847   7.526  0.7112  1.9148 -1.9917
   94CHL1   C11 9396   6.236   2.851   7.424 -0.3700  0.1816 -0.3786
   94CHL1  H11A 9397   6.343   2.847   7.452 -0.0755  2.5704 -1.1140
   94CHL1  H11B 9398   6.226   2.765   7.354  3.0717 -0.5952 -0.0062
   94CHL1    C9 9399   6.230   2.985   7.347 -0.1967  0.0008  0.1764
   94CHL1    H9 9400   6.127   2.993   7.307  0.7586 -1.6062 -2.7966
   94CHL1   C10 9401   6.313   2.997   7.213  0.4255  0.0768  0.5751
   94CHL1   C19 9402   6.456   2.972   7.247 -0.1096  0.0224  0.2062
   94CHL1  H19A 9403   6.484   3.033   7.336 -0.1130 -0.3410  0.4571
   94CHL1  H19B 9404   6.474   2.863   7.263  0.3020  0.2276  1.1710
   94CHL1  H19C 9405   6.533   2.998   7.170 -0.4607  1.3481  0.2877
   94CHL1    C1 9406   6.263   2.900   7.102  0.0429 -0.3675  0.4125
   94CHL1   H1A 9407   6.270   2.794   7.133  2.6338 -0.5386 -0.6865
   94CHL1   H1B 9408   6.155   2.912   7.076 -0.1461  1.7320  1.9786
   94CHL1    C2 9409   6.333   2.911   6.964  0.2698 -0.1400  0.0515
   94CHL1   H2A 9410   6.274   2.838   6.905 -0.4818 -0.4520  1.1764
   94CHL1   H2B 9411   6.437   2.877   6.979 -0.6981 -1.8047  3.6402
   94CHL1   C20 9412   6.053   2.874   7.869  0.4771  0.2731 -0.2396
   94CHL1   H20 9413   6.083   2.773   7.831  1.2192 -0.1955  1.5492
   94CHL1   C21 9414   5.899   2.880   7.897  0.0312  0.8627  0.0695
   94CHL1  H21A 9415   5.856   2.980   7.873 -0.6710  0.3907 -0.6589
   94CHL1  H21B 9416   5.881   2.856   8.004  1.8930  1.0331  0.4513
   94CHL1  H21C 9417   5.855   2.806   7.828 -1.3155  0.2400  1.5928
   94CHL1   C22 9418   6.140   2.898   7.989  0.1016  0.2671  0.1045
   94CHL1  H22A 9419   6.249   2.906   7.969 -0.3178  2.3336 -1.5386
   94CHL1  H22B 9420   6.119   2.999   8.031  0.4407  0.8001 -0.9840
   94CHL1   C23 9421   6.107   2.787   8.097 -0.1155 -0.2364 -0.4029
   94CHL1  H23A 9422   6.010   2.798   8.150  0.1634 -0.2903  0.1231
   94CHL1  H23B 9423   6.115   2.692   8.040  1.3819 -0.0973 -0.4531
   94CHL1   C24 9424   6.219   2.794   8.195 -0.1434 -0.0266  0.2431
   94CHL1  H24A 9425   6.314   2.748   8.160 -0.8008 -1.0124 -0.2387
   94CHL1  H24B 9426   6.249   2.901   8.206  3.6720 -0.8544 -1.1706
   94CHL1   C25 9427   6.199   2.725   8.334  0.5574 -0.1674  0.1829
   94CHL1   H25 9428   6.148   2.627   8.320 -3.4459  1.8016  0.2525
   94CHL1   C26 9429   6.332   2.712   8.412 -0.2647 -0.0292 -0.3328
   94CHL1  H26A 9430   6.313   2.665   8.511 -0.9699  0.0673 -0.4227
   94CHL1  H26B 9431   6.408   2.657   8.352 -0.1825  0.0504 -0.3019
   94CHL1  H26C 9432   6.375   2.814   8.421  1.0532 -0.6051  0.1453
   94CHL1   C27 9433   6.095   2.800   8.424  0.7094 -0.1764 -0.6059
   94CHL1  H27A 9434   6.085   2.739   8.516  0.0164 -1.2444 -1.3696
   94CHL1  H27B 9435   6.133   2.903   8.442  0.5192 -0.3143  0.5970
   94CHL1  H27C 9436   5.995   2.801   8.377  0.4053 -0.0086  0.0410
   95CHL1    C3 9437   5.745   2.437   6.610 -0.4679 -0.1799  0.3381
   95CHL1    H3 9438   5.667   2.362   6.633 -0.8879 -0.0375 -0.6029
   95CHL1    O3 9439   5.758   2.451   6.469 -0.7388  0.2413 -0.0491
   95CHL1   H3' 9440   5.833   2.510   6.462 -0.0845 -0.6147 -0.3649
   95CHL1    C4 9441   5.707   2.574   6.674  0.9311  0.5932  0.3471
   95CHL1   H4A 9442   5.766   2.663   6.642  0.3386  0.3831 -1.3526
   95CHL1   H4B 9443   5.598   2.587   6.654  0.9648  0.5244  0.1215
   95CHL1    C5 9444   5.725   2.573   6.827  0.2703 -0.4790  0.1993
   95CHL1    C6 9445   5.621   2.612   6.902 -0.3634  0.2401  0.1637
   95CHL1    H6 9446   5.533   2.651   6.848 -0.1143 -1.1095 -1.2690
   95CHL1    C7 9447   5.622   2.597   7.054 -0.4674 -0.0521  0.4947
   95CHL1   H7A 9448   5.566   2.688   7.086 -0.5901  0.0983 -0.1361
   95CHL1   H7B 9449   5.568   2.505   7.085 -0.8505  0.5323  1.6120
   95CHL1    C8 9450   5.761   2.590   7.122 -0.5529  0.1242  0.3665
   95CHL1    H8 9451   5.808   2.691   7.116  0.7972 -0.5105  0.2163
   95CHL1   C14 9452   5.740   2.541   7.266  0.2549  0.1983  0.2463
   95CHL1   H14 9453   5.693   2.441   7.262 -3.2904  1.8469 -1.4083
   95CHL1   C15 9454   5.651   2.627   7.355 -0.6424  0.3460 -0.0609
   95CHL1  H15A 9455   5.678   2.735   7.355 -0.8755  0.4814 -3.6149
   95CHL1  H15B 9456   5.541   2.612   7.341 -0.2934 -1.5313 -0.9225
   95CHL1   C16 9457   5.687   2.573   7.496 -0.5274 -0.4109  0.1429
   95CHL1  H16A 9458   5.714   2.660   7.560 -1.0616 -0.0870 -0.0658
   95CHL1  H16B 9459   5.604   2.514   7.539 -0.5267 -0.9822 -0.6335
   95CHL1   C17 9460   5.817   2.484   7.473 -0.3960 -0.4106  0.2012
   95CHL1   H17 9461   5.763   2.388   7.460 -1.3261  0.0823  0.3459
   95CHL1   C13 9462   5.876   2.517   7.338  0.0199 -0.5549  0.4704
   95CHL1   C18 9463   5.953   2.649   7.346 -0.4491  0.1135 -0.2762
   95CHL1  H18A 9464   5.901   2.734   7.393  0.4058  0.2114  0.5194
   95CHL1  H18B 9465   6.057   2.629   7.381  0.0735 -0.2636 -1.9966
   95CHL1  H18C 9466   5.971   2.683   7.242  0.3740 -0.0691 -0.2019
   95CHL1   C12 9467   5.953   2.407   7.258 -0.1402  0.3653  0.0886
   95CHL1  H12A 9468   6.054   2.383   7.295 -1.8534 -3.2108  2.7433
   95CHL1  H12B 9469   5.897   2.312   7.269  1.3844 -0.6673 -0.9295
   95CHL1   C11 9470   5.972   2.451   7.107 -0.0448  0.1166 -0.1389
   95CHL1  H11A 9471   6.037   2.540   7.099 -1.4560  1.1188 -0.6691
   95CHL1  H11B 9472   6.025   2.368   7.055 -1.5720 -0.1054 -1.3790
   95CHL1    C9 9473   5.840   2.491   7.033 -0.5640 -0.8270 -0.1315
   95CHL1    H9 9474   5.783   2.397   7.045 -1.5379 -0.3091 -0.6396
   95CHL1   C10 9475   5.855   2.524   6.882  0.4202 -0.0132  0.6473
   95CHL1   C19 9476   5.978   2.627   6.879  0.7537 -0.0579  0.3344
   95CHL1  H19A 9477   5.966   2.712   6.950  0.3191  1.5242 -1.5867
   95CHL1  H19B 9478   6.069   2.568   6.905 -0.4856 -1.7208  1.0157
   95CHL1  H19C 9479   5.991   2.672   6.778  1.3370 -1.0938 -0.0612
   95CHL1    C1 9480   5.883   2.386   6.811 -0.7713 -0.3304 -0.5787
   95CHL1   H1A 9481   5.983   2.344   6.838 -0.1984  0.6339 -1.1800
   95CHL1   H1B 9482   5.800   2.325   6.853 -0.9250  1.5488  1.9295
   95CHL1    C2 9483   5.883   2.395   6.658  0.0573  0.2333  0.5060
   95CHL1   H2A 9484   5.911   2.294   6.621 -0.5717  0.4660 -0.6067
   95CHL1   H2B 9485   5.963   2.467   6.632 -0.7635  1.1607  0.5399
   95CHL1   C20 9486   5.898   2.478   7.601 -0.0674  1.0956  0.0133
   95CHL1   H20 9487   5.949   2.577   7.606  1.4768  0.4102 -1.8758
   95CHL1   C21 9488   6.005   2.368   7.581  0.6912 -0.6344  0.3977
   95CHL1  H21A 9489   5.959   2.268   7.565 -0.4739  0.0082 -0.3579
   95CHL1  H21B 9490   6.068   2.352   7.671  1.7930 -0.8295 -0.4035
   95CHL1  H21C 9491   6.078   2.400   7.504  0.1518 -0.9120 -0.2308
   95CHL1   C22 9492   5.817   2.452   7.726 -0.7841 -0.1360 -0.1326
   95CHL1  H22A 9493   5.737   2.528   7.739 -0.4223 -0.3940  4.0844
   95CHL1  H22B 9494   5.750   2.364   7.724 -3.0656  1.5243  1.0270
   95CHL1   C23 9495   5.897   2.473   7.857 -0.4932  0.3037  0.4418
   95CHL1  H23A 9496   5.972   2.393   7.869  0.1964  1.0966  1.4959
   95CHL1  H23B 9497   5.956   2.568   7.853  0.1535 -0.0716  1.0277
   95CHL1   C24 9498   5.810   2.482   7.978  0.1309  0.5661  0.5995
   95CHL1  H24A 9499   5.739   2.567   7.976 -1.7469 -0.9457  1.0862
   95CHL1  H24B 9500   5.757   2.384   7.980  0.8688  0.1606  0.4076
   95CHL1   C25 9501   5.879   2.488   8.115 -0.0440  0.2960  0.2667
   95CHL1   H25 9502   5.962   2.562   8.115 -0.0933  0.3517  0.1470
   95CHL1   C26 9503   5.778   2.529   8.232 -0.0917  0.2348  0.6226
   95CHL1  H26A 9504   5.726   2.621   8.198  1.0795  0.9163  0.6784
   95CHL1  H26B 9505   5.705   2.450   8.262  1.1769 -1.3015 -0.2781
   95CHL1  H26C 9506   5.839   2.541   8.323  1.3766 -1.1009 -0.1626
   95CHL1   C27 9507   5.939   2.346   8.154 -0.7082 -0.1067  0.0525
   95CHL1  H27A 9508   5.984   2.288   8.072 -1.1920 -0.4088  0.0007
   95CHL1  H27B 9509   6.004   2.357   8.244 -0.1354  1.2113 -0.5141
   95CHL1  H27C 9510   5.854   2.279   8.178 -0.6352 -1.0404 -2.2671
   96CHL1    C3 9511   5.863   1.352   6.582  0.1139 -0.9886 -0.3917
   96CHL1    H3 9512   5.766   1.391   6.622  0.8899  1.2526 -0.6162
   96CHL1    O3 9513   5.877   1.361   6.445  0.6338  0.8467 -0.1990
   96CHL1   H3' 9514   5.963   1.320   6.429  0.6031  0.8240 -0.3073
   96CHL1    C4 9515   5.970   1.432   6.657 -0.4219  0.7068 -0.0619
   96CHL1   H4A 9516   6.064   1.375   6.646 -2.2165 -2.6498  1.3201
   96CHL1   H4B 9517   5.967   1.530   6.604 -0.0975  0.9675  0.3964
   96CHL1    C5 9518   5.937   1.445   6.809  0.1234 -0.1731 -0.1349
   96CHL1    C6 9519   5.897   1.561   6.864 -0.1540  0.4646  0.4949
   96CHL1    H6 9520   5.879   1.648   6.799  0.6688 -1.0080 -1.7675
   96CHL1    C7 9521   5.870   1.581   7.013  0.5095 -0.1239 -0.2395
   96CHL1   H7A 9522   5.918   1.675   7.047 -1.3916  1.3418 -1.5830
   96CHL1   H7B 9523   5.760   1.589   7.022  0.5821  2.7603 -1.4689
   96CHL1    C8 9524   5.914   1.462   7.100 -0.3536 -0.0256  0.0444
   96CHL1    H8 9525   6.022   1.477   7.120 -0.3838  0.5051 -0.1873
   96CHL1   C14 9526   5.845   1.469   7.229  0.6416  0.1222 -0.1246
   96CHL1   H14 9527   5.741   1.445   7.198  0.0650  0.3355  1.5756
   96CHL1   C15 9528   5.831   1.604   7.302 -0.0915  0.7169 -0.6939
   96CHL1  H15A 9529   5.928   1.657   7.302 -0.5479  1.5742 -1.4634
   96CHL1  H15B 9530   5.752   1.669   7.259  1.1878  2.5500 -0.3079
   96CHL1   C16 9531   5.788   1.572   7.448 -0.4872  0.2390  0.2596
   96CHL1  H16A 9532   5.866   1.611   7.517 -0.3282  0.9346 -0.3070
   96CHL1  H16B 9533   5.691   1.619   7.471 -0.1270  1.2009 -0.1661
   96CHL1   C17 9534   5.794   1.416   7.459 -0.4874 -0.3629  0.5833
   96CHL1   H17 9535   5.689   1.390   7.433 -1.0758  3.2088 -0.8776
   96CHL1   C13 9536   5.878   1.369   7.338  0.1579 -0.0349 -0.7009
   96CHL1   C18 9537   6.032   1.401   7.368 -0.8795  0.7456 -0.6157
   96CHL1  H18A 9538   6.093   1.352   7.288 -0.5509  2.8897 -1.7028
   96CHL1  H18B 9539   6.052   1.508   7.388  1.2577  0.3606 -0.5666
   96CHL1  H18C 9540   6.050   1.337   7.457  0.0666  0.6692 -0.8526
   96CHL1   C12 9541   5.857   1.223   7.274  0.4367  0.1599  0.2404
   96CHL1  H12A 9542   5.893   1.148   7.349 -0.5464  0.5643  1.1360
   96CHL1  H12B 9543   5.748   1.200   7.265  0.2630  0.7281  0.8419
   96CHL1   C11 9544   5.924   1.199   7.130 -0.2443 -0.4643  0.5504
   96CHL1  H11A 9545   6.034   1.194   7.144 -0.1278 -0.7072 -0.4149
   96CHL1  H11B 9546   5.901   1.093   7.105  0.3900 -0.5681  0.3925
   96CHL1    C9 9547   5.887   1.316   7.038 -0.7012 -0.0865 -0.6436
   96CHL1    H9 9548   5.777   1.316   7.019 -0.5107 -2.1816 -1.8378
   96CHL1   C10 9549   5.940   1.311   6.891 -0.7673 -0.5063 -0.3472
   96CHL1   C19 9550   6.091   1.282   6.911  0.2014 -0.0046 -0.9893
   96CHL1  H19A 9551   6.150   1.292   6.817  2.8611  0.3372  0.6805
   96CHL1  H19B 9552   6.135   1.352   6.985 -0.1660 -0.8610  0.0502
   96CHL1  H19C 9553   6.099   1.173   6.933 -1.0406  0.4302  1.7550
   96CHL1    C1 9554   5.865   1.204   6.798 -0.4037 -0.2935  0.0540
   96CHL1   H1A 9555   5.890   1.101   6.829  0.6455 -0.6966 -2.0325
   96CHL1   H1B 9556   5.755   1.212   6.812 -0.3822  0.0358  0.0307
   96CHL1    C2 9557   5.880   1.208   6.637  0.0126  0.6368  0.1631
   96CHL1   H2A 9558   5.805   1.139   6.592  1.4433  0.8331 -2.6301
   96CHL1   H2B 9559   5.982   1.171   6.615 -0.4449 -0.1918 -0.5984
   96CHL1   C20 9560   5.827   1.358   7.600  0.2142 -0.1189 -0.0668
   96CHL1   H20 9561   5.929   1.383   7.635  0.2229  2.8701 -2.0358
   96CHL1   C21 9562   5.809   1.208   7.594 -0.1156  0.4134 -0.0342
   96CHL1  H21A 9563   5.808   1.162   7.695  2.7351 -1.3662 -0.7448
   96CHL1  H21B 9564   5.909   1.179   7.555  1.5522  5.2222  0.3350
   96CHL1  H21C 9565   5.723   1.177   7.531  1.1223 -1.1108 -1.0291
   96CHL1   C22 9566   5.727   1.418   7.708  0.3965 -0.0993  0.8373
   96CHL1  H22A 9567   5.694   1.524   7.701 -1.1059 -0.6510 -0.6946
   96CHL1  H22B 9568   5.636   1.356   7.694 -0.9094  2.3331 -2.0271
   96CHL1   C23 9569   5.791   1.396   7.855 -0.0564 -0.5615 -0.3990
   96CHL1  H23A 9570   5.798   1.287   7.875  0.8975 -0.0596  2.1190
   96CHL1  H23B 9571   5.890   1.444   7.869 -0.8585  1.3328 -1.0364
   96CHL1   C24 9572   5.698   1.460   7.963  0.1601  0.2411  0.5854
   96CHL1  H24A 9573   5.701   1.571   7.966  1.0639  0.2562 -0.3811
   96CHL1  H24B 9574   5.594   1.431   7.937  0.8522 -0.1835 -1.8029
   96CHL1   C25 9575   5.726   1.407   8.105  0.9735  0.0247  0.3715
   96CHL1   H25 9576   5.809   1.335   8.087  1.1917  0.4332 -0.2586
   96CHL1   C26 9577   5.775   1.523   8.196  0.0206 -0.7990 -0.1598
   96CHL1  H26A 9578   5.814   1.494   8.296  0.6293 -1.0337 -0.4578
   96CHL1  H26B 9579   5.859   1.574   8.143 -0.7073 -0.0302 -0.5743
   96CHL1  H26C 9580   5.701   1.605   8.188 -1.5458 -2.2960 -1.1873
   96CHL1   C27 9581   5.608   1.345   8.171 -0.1766  0.7699 -0.1792
   96CHL1  H27A 9582   5.624   1.313   8.276 -2.1854 -0.2730 -0.1684
   96CHL1  H27B 9583   5.523   1.417   8.169 -0.8655 -0.0441 -0.6627
   96CHL1  H27C 9584   5.584   1.255   8.111  2.0120  0.3137 -0.4180
   97OSM      N 9585   3.449   2.721  11.252 -0.5465 -0.4060 -0.1641
   97OSM    C15 9586   3.582   2.649  11.277 -0.3930 -0.3209 -0.3385
   97OSM   H15A 9587   3.613   2.677  11.377 -2.1720 -2.2320  0.7908
   97OSM   H15B 9588   3.658   2.684  11.209 -1.4537  0.3528 -1.1982
   97OSM   H15C 9589   3.574   2.541  11.280 -2.8680 -0.2578 -2.6575
   97OSM    C14 9590   3.352   2.669  11.351  0.1849 -0.1057  0.2264
   97OSM   H14A 9591   3.384   2.686  11.453 -1.2376 -0.2716  0.7204
   97OSM   H14B 9592   3.335   2.563  11.340  0.7331 -0.0950 -0.7120
   97OSM   H14C 9593   3.257   2.718  11.335  0.4751  0.0565 -1.0513
   97OSM    C13 9594   3.469   2.864  11.279  0.2170 -0.5159  0.0077
   97OSM   H13A 9595   3.378   2.921  11.273 -0.3259 -1.3618  0.1849
   97OSM   H13B 9596   3.532   2.901  11.199 -0.3909 -1.1072 -0.7528
   97OSM   H13C 9597   3.519   2.880  11.373  2.1513 -0.2066 -1.0242
   97OSM    C12 9598   3.404   2.695  11.109 -1.2421 -0.3555  0.7358
   97OSM   H12A 9599   3.485   2.700  11.037 -3.7065  1.0154 -2.0877
   97OSM   H12B 9600   3.333   2.774  11.086 -0.8010 -0.2264 -0.2306
   97OSM    C11 9601   3.342   2.557  11.083 -0.5688  0.5003 -0.5528
   97OSM   H11A 9602   3.411   2.484  11.132 -1.7807  0.9440  1.9078
   97OSM   H11B 9603   3.345   2.535  10.975 -1.0598 -2.0227 -0.1016
   97OSM      P 9604   3.093   2.612  11.114 -0.0649  0.1137  0.0881
   97OSM    O13 9605   2.976   2.540  11.161  0.0478 -0.2857 -0.6878
   97OSM    O14 9606   3.111   2.751  11.172 -0.1436  0.5798  0.4669
   97OSM    O11 9607   3.103   2.630  10.953  0.3270 -0.3748  0.3646
   97OSM    O12 9608   3.215   2.533  11.146  0.5939  1.2153 -0.3204
   97OSM    C1S 9609   2.977   2.654  10.890 -0.8573  0.6699  0.8019
   97OSM    H1S 9610   2.960   2.763  10.905 -1.0040  0.6755  0.6009
   97OSM    H1T 9611   2.894   2.587  10.919  1.4874 -2.7295  0.0666
   97OSM     NF 9612   2.898   2.704  10.657 -0.1307  0.1271  0.6985
   97OSM    HNF 9613   2.821   2.656  10.615 -0.1244  0.7546 -0.0178
   97OSM    C2S 9614   2.995   2.625  10.738 -0.4139  0.6995  0.8140
   97OSM    H2S 9615   3.095   2.669  10.717 -1.8817  4.2609  0.9370
   97OSM    C3S 9616   2.987   2.472  10.713 -0.1937  0.0114  0.2417
   97OSM    H3S 9617   2.880   2.446  10.728 -0.3965  1.0274  0.5508
   97OSM     O3 9618   3.070   2.395  10.801  0.0767 -0.0468  0.0064
   97OSM    HO3 9619   3.087   2.466  10.864 -1.4629  1.3620 -1.1214
   97OSM    C4S 9620   3.009   2.443  10.565 -0.5114 -0.7137  0.4483
   97OSM    H4S 9621   2.909   2.461  10.523  0.0437 -1.2615 -1.1678
   97OSM    C5S 9622   3.118   2.416  10.489 -0.4345  0.7179 -0.1838
   97OSM    H5S 9623   3.214   2.426  10.541  0.1788 -0.0806 -1.1503
   97OSM    C6S 9624   3.120   2.395  10.344 -0.1287 -0.5976 -0.2052
   97OSM    H6S 9625   3.167   2.297  10.323  3.3394  1.1523 -0.9854
   97OSM    H6T 9626   3.195   2.466  10.304  2.4107 -2.6434  0.7778
   97OSM    C7S 9627   2.991   2.394  10.262 -0.5044 -0.2782  0.1426
   97OSM    H7S 9628   2.945   2.495  10.247 -1.0791 -0.7895 -1.6061
   97OSM    H7T 9629   2.907   2.329  10.295  1.0482 -2.5728 -0.3352
   97OSM    C8S 9630   3.025   2.335  10.121 -0.3986 -0.0376  0.0830
   97OSM    H8S 9631   3.074   2.236  10.129 -1.0609 -0.4679 -1.0435
   97OSM    H8T 9632   3.102   2.398  10.071 -0.5087 -0.7512 -0.9959
   97OSM    C9S 9633   2.897   2.310  10.040  0.7407  0.4473  0.0748
   97OSM    H9S 9634   2.850   2.410  10.029 -1.3055 -0.5811 -0.6519
   97OSM    H9T 9635   2.825   2.247  10.096  1.1161  0.3589  0.4584
   97OSM   C10S 9636   2.915   2.238   9.912 -0.2056 -0.0710 -0.2691
   97OSM   H10S 9637   2.965   2.140   9.928 -0.5247  0.2150  2.8224
   97OSM   H10T 9638   2.993   2.296   9.858  0.3924 -0.7223 -0.1108
   97OSM   C11S 9639   2.781   2.233   9.836  0.1155 -0.6643 -0.4797
   97OSM   H11S 9640   2.730   2.331   9.825 -0.5606 -0.9751 -0.1317
   97OSM   H11T 9641   2.702   2.175   9.889  0.0186  0.5958  0.7642
   97OSM   C12S 9642   2.792   2.177   9.691 -0.0410  0.0437  0.1149
   97OSM   H12S 9643   2.851   2.084   9.704  3.0082  1.8216 -0.5674
   97OSM   H12T 9644   2.849   2.243   9.622 -0.7014 -2.7211 -3.2108
   97OSM   C13S 9645   2.660   2.147   9.619  0.0214 -0.1968 -0.1632
   97OSM   H13S 9646   2.618   2.250   9.611  2.0700  0.6476 -0.3364
   97OSM   H13T 9647   2.592   2.087   9.683 -0.3016  0.6570  0.3089
   97OSM   C14S 9648   2.688   2.085   9.482 -0.1154 -0.1556  0.5167
   97OSM   H14S 9649   2.603   2.018   9.456 -1.3636  1.2064  0.9958
   97OSM   H14T 9650   2.782   2.028   9.494  0.8584  1.1131 -0.9609
   97OSM   C15S 9651   2.712   2.177   9.361 -0.3720 -0.1897 -0.8816
   97OSM   H15S 9652   2.814   2.222   9.362 -0.3280 -0.2950 -0.3097
   97OSM   H15T 9653   2.641   2.262   9.367  0.2611  0.3071 -0.2706
   97OSM   C16S 9654   2.697   2.109   9.225  0.4220  0.4960  0.9300
   97OSM   H16S 9655   2.597   2.065   9.204  1.3506 -2.4253  2.3938
   97OSM   H16T 9656   2.776   2.031   9.227 -0.1179 -0.0393  1.5360
   97OSM   C17S 9657   2.736   2.206   9.105 -0.7509 -1.0372  0.7830
   97OSM   H17S 9658   2.785   2.296   9.149 -0.9465 -0.3843 -0.3274
   97OSM   H17T 9659   2.641   2.226   9.052  0.1346 -0.9870 -0.8131
   97OSM   C18S 9660   2.831   2.151   9.000  0.9244  0.5134 -0.3418
   97OSM   H18S 9661   2.934   2.140   9.039  0.5354 -0.8185  0.3486
   97OSM   H18T 9662   2.839   2.223   8.916 -0.4338  2.2247  0.9486
   97OSM   H18U 9663   2.811   2.046   8.968 -4.6853  1.3694 -0.2587
   97OSM    C1F 9664   2.912   2.842  10.648  0.1640 -0.5407 -0.2068
   97OSM     OF 9665   2.999   2.903  10.711 -0.1861  0.0123 -0.2439
   97OSM    C2F 9666   2.809   2.909  10.560  0.4257 -0.1701  0.0703
   97OSM    H2F 9667   2.789   3.000  10.619  1.0701  0.0330 -0.0270
   97OSM    H2G 9668   2.721   2.840  10.556 -0.0940  0.5450 -1.7280
   97OSM    C3F 9669   2.873   2.946  10.428 -0.0494  0.5056 -0.0440
   97OSM    H3F 9670   2.960   3.012  10.446 -0.3216  1.0773 -0.8277
   97OSM    H3G 9671   2.798   3.008  10.374 -0.0583 -0.0135 -0.6254
   97OSM    C4F 9672   2.894   2.822  10.339  0.7640 -0.1757  0.1515
   97OSM    H4F 9673   2.807   2.754  10.353 -1.4207  1.7837 -3.2484
   97OSM    H4G 9674   2.992   2.776  10.366  0.8133  0.0003  0.2723
   97OSM    C5F 9675   2.910   2.860  10.194 -0.6031 -0.6794  0.3794
   97OSM    H5F 9676   2.988   2.939  10.193  0.3382 -1.5832  0.8692
   97OSM    H5G 9677   2.813   2.903  10.162 -0.1694  0.1670  0.1918
   97OSM    C6F 9678   2.950   2.732  10.110  0.2695 -0.3310  0.1064
   97OSM    H6F 9679   2.862   2.666  10.094 -0.5636  1.2365 -2.2127
   97OSM    H6G 9680   3.034   2.681  10.160 -0.6272  0.4533  2.4890
   97OSM    C7F 9681   3.000   2.776   9.973 -0.0452  0.2582  0.0760
   97OSM    H7F 9682   3.075   2.857   9.986 -2.4009  2.3039  1.1356
   97OSM    H7G 9683   2.923   2.818   9.905  0.1306 -0.5623 -0.6463
   97OSM    C8F 9684   3.052   2.658   9.889 -0.1009  0.2337  0.5499
   97OSM    H8F 9685   2.966   2.588   9.876  0.1789  0.1447 -0.8430
   97OSM    H8G 9686   3.130   2.604   9.947 -1.5953 -2.7303 -0.0619
   97OSM    C9F 9687   3.106   2.712   9.757  0.4763  0.6207  1.2299
   97OSM    H9F 9688   3.204   2.760   9.771  1.2464 -1.4433  3.2558
   97OSM   C10F 9689   3.036   2.711   9.639  0.6231  0.1697 -0.6522
   97OSM   H10F 9690   3.092   2.747   9.551 -0.1012  0.3018 -1.0674
   97OSM   C11F 9691   2.895   2.665   9.606  0.1953  0.1005 -0.0464
   97OSM   H11F 9692   2.845   2.742   9.543  0.0351 -1.8046 -2.3397
   97OSM   H11G 9693   2.834   2.646   9.697  1.8569 -2.8665  0.5111
   97OSM   C12F 9694   2.875   2.538   9.524  0.2128  0.5738  1.3165
   97OSM   H12F 9695   2.767   2.519   9.542 -0.2800  0.1463 -1.7695
   97OSM   H12G 9696   2.934   2.457   9.573  1.6804  1.5828  1.2308
   97OSM   C13F 9697   2.923   2.540   9.378  0.2908  0.0717 -0.0741
   97OSM   H13F 9698   2.898   2.445   9.326 -1.4791  0.6120 -0.2682
   97OSM   H13G 9699   3.033   2.545   9.388 -0.0498  0.7840  4.0580
   97OSM   C14F 9700   2.881   2.663   9.297 -0.2106 -0.0323 -0.6885
   97OSM   H14F 9701   2.921   2.756   9.344  2.9800 -1.3943 -0.5825
   97OSM   H14G 9702   2.774   2.661   9.326 -0.2595  1.0986 -0.7796
   97OSM   C15F 9703   2.905   2.643   9.152 -0.2117  0.3266  0.7085
   97OSM   H15F 9704   2.848   2.556   9.112  0.9391 -0.1543  0.1138
   97OSM   H15G 9705   3.011   2.617   9.136 -0.3070 -0.0001  0.5973
   97OSM   C16F 9706   2.878   2.769   9.063  0.0736  0.5194  0.0494
   97OSM   H16F 9707   2.967   2.833   9.077  0.3933 -0.3624  2.1946
   97OSM   H16G 9708   2.792   2.825   9.106  0.5453  0.3594  1.2136
   97OSM   C17F 9709   2.846   2.737   8.919 -0.6301 -0.9988  0.2283
   97OSM   H17F 9710   2.827   2.831   8.863  2.0231 -0.9585 -0.6600
   97OSM   H17G 9711   2.746   2.689   8.928 -0.6067 -1.3256 -1.0598
   97OSM   C18F 9712   2.922   2.638   8.832 -0.3223 -0.2734 -0.4537
   97OSM   H18F 9713   2.913   2.533   8.867  1.1304  0.1111  1.1667
   97OSM   H18G 9714   3.027   2.674   8.833 -0.7723  1.0487  1.6526
   97OSM   H18H 9715   2.880   2.635   8.730 -0.2175  0.2947 -0.5145
   98OSM      N 9716   2.532   2.440  11.314 -0.6424  0.1555 -0.2662
   98OSM    C15 9717   2.523   2.586  11.319  0.0253 -0.1111 -0.4393
   98OSM   H15A 9718   2.424   2.614  11.351  0.3031 -0.1237  0.4556
   98OSM   H15B 9719   2.543   2.629  11.222 -0.0827 -1.6034 -1.1367
   98OSM   H15C 9720   2.593   2.623  11.393  1.0069  1.3956 -2.0694
   98OSM    C14 9721   2.526   2.386  11.457  0.9038 -0.4928  0.2741
   98OSM   H14A 9722   2.611   2.426  11.509 -0.4662  0.2393  1.9975
   98OSM   H14B 9723   2.520   2.278  11.462 -3.9055 -0.3831 -0.8136
   98OSM   H14C 9724   2.436   2.419  11.506  1.0953  1.7854 -0.8416
   98OSM    C13 9725   2.412   2.368  11.260 -0.2071  0.0085  0.5266
   98OSM   H13A 9726   2.402   2.374  11.152  2.8755  1.6948  0.2791
   98OSM   H13B 9727   2.329   2.413  11.313  0.1337  1.0771  0.1656
   98OSM   H13C 9728   2.407   2.263  11.287 -1.1640 -0.2937 -0.7704
   98OSM    C12 9729   2.657   2.385  11.249  0.2783 -0.3661 -0.0508
   98OSM   H12A 9730   2.666   2.278  11.264 -0.8078 -0.2261  1.6937
   98OSM   H12B 9731   2.739   2.445  11.283 -0.5494  0.4632  0.4970
   98OSM    C11 9732   2.667   2.397  11.090  0.7129 -0.6747 -0.5287
   98OSM   H11A 9733   2.770   2.378  11.054  0.7845 -0.6651 -0.3277
   98OSM   H11B 9734   2.646   2.503  11.065  0.1711 -0.2028  1.7950
   98OSM      P 9735   2.593   2.155  11.013  0.2365 -0.2754  0.3548
   98OSM    O13 9736   2.662   2.099  11.133  0.3339 -0.3919 -0.2804
   98OSM    O14 9737   2.462   2.099  10.968  0.7683 -0.0837  0.6185
   98OSM    O11 9738   2.695   2.156  10.892  0.5265 -0.5503 -0.2820
   98OSM    O12 9739   2.571   2.312  11.018  0.4852 -0.1458 -0.2127
   98OSM    C1S 9740   2.665   2.126  10.758  0.1345 -0.0557 -0.3330
   98OSM    H1S 9741   2.602   2.205  10.711 -2.5845 -1.8340  0.1944
   98OSM    H1T 9742   2.617   2.027  10.747  0.5801 -0.3426  0.2936
   98OSM     NF 9743   2.734   2.082  10.520 -0.8970  0.3323  0.7703
   98OSM    HNF 9744   2.746   1.987  10.492 -2.9932 -0.2427  1.7522
   98OSM    C2S 9745   2.782   2.117  10.656 -0.9859 -0.3371  0.1242
   98OSM    H2S 9746   2.833   2.215  10.643  0.0628 -0.6358  1.7677
   98OSM    C3S 9747   2.899   2.023  10.703 -0.3270  0.1345 -0.4069
   98OSM    H3S 9748   2.859   1.920  10.704 -2.6895  1.0126 -0.6014
   98OSM     O3 9749   2.943   2.042  10.841 -0.2362 -0.1671 -0.1570
   98OSM    HO3 9750   2.883   2.105  10.882  1.2514  2.1351 -1.4231
   98OSM    C4S 9751   3.015   2.048  10.613 -0.0723  0.4207 -0.6513
   98OSM    H4S 9752   3.060   2.148  10.619  1.3012 -0.1687 -0.8608
   98OSM    C5S 9753   3.057   1.956  10.525  0.0373  0.0164 -1.0034
   98OSM    H5S 9754   3.014   1.857  10.504 -3.5834  1.0462  1.2125
   98OSM    C6S 9755   3.186   1.984  10.448 -0.3373  0.0192 -0.0108
   98OSM    H6S 9756   3.263   1.905  10.462  1.2459  1.3091 -1.2441
   98OSM    H6T 9757   3.225   2.083  10.481  0.3871  0.3293 -1.7483
   98OSM    C7S 9758   3.171   1.996  10.293 -0.6715 -0.9720 -0.0445
   98OSM    H7S 9759   3.273   2.020  10.255  0.1466 -1.9778  1.4431
   98OSM    H7T 9760   3.105   2.083  10.272 -0.0848 -0.8010 -1.2337
   98OSM    C8S 9761   3.113   1.875  10.220  0.7399  0.1602  0.9825
   98OSM    H8S 9762   3.022   1.848  10.279  1.0443 -1.2488  0.8138
   98OSM    H8T 9763   3.188   1.794  10.229  1.3286  0.6103  0.1741
   98OSM    C9S 9764   3.072   1.914  10.083 -0.1530  0.0631 -0.5120
   98OSM    H9S 9765   3.165   1.938  10.027 -0.3007 -0.9924 -1.2241
   98OSM    H9T 9766   2.997   1.996  10.082  1.4867  1.6604  1.3240
   98OSM   C10S 9767   3.003   1.794  10.014 -0.1941 -0.1375 -0.3084
   98OSM   H10S 9768   2.917   1.769  10.080 -1.4137  1.5398 -1.2283
   98OSM   H10T 9769   3.067   1.704  10.021  0.4470  0.4781  1.9320
   98OSM   C11S 9770   2.939   1.819   9.873 -0.5142  0.2457 -0.0768
   98OSM   H11S 9771   2.897   1.921   9.861  2.3140  1.1940 -2.7368
   98OSM   H11T 9772   2.863   1.739   9.869 -0.1770 -0.1115  0.5338
   98OSM   C12S 9773   3.036   1.801   9.756 -1.1102  0.2292  0.1089
   98OSM   H12S 9774   3.092   1.706   9.766  1.3141  1.6873  0.7533
   98OSM   H12T 9775   3.116   1.873   9.780  0.6653 -1.1905 -1.3464
   98OSM   C13S 9776   2.978   1.820   9.615 -0.0426  0.3951  0.7308
   98OSM   H13S 9777   2.930   1.918   9.598 -2.3491 -0.7879  0.3087
   98OSM   H13T 9778   2.900   1.743   9.602  0.3021 -0.2798  2.5205
   98OSM   C14S 9779   3.072   1.782   9.504 -0.3819  0.3885  0.6724
   98OSM   H14S 9780   3.072   1.671   9.497 -3.9172  0.2264  1.9781
   98OSM   H14T 9781   3.171   1.820   9.536  0.5588  0.4768 -2.2438
   98OSM   C15S 9782   3.028   1.821   9.363  0.1145 -0.0730 -0.2040
   98OSM   H15S 9783   3.031   1.930   9.344  1.9046  0.2795  1.9002
   98OSM   H15T 9784   2.927   1.780   9.343  1.2775 -4.0100  1.4941
   98OSM   C16S 9785   3.123   1.757   9.247 -0.1469 -0.7257 -0.0386
   98OSM   H16S 9786   3.109   1.648   9.263 -2.2057 -0.2803  1.4606
   98OSM   H16T 9787   3.226   1.777   9.283 -0.8522  1.4686  0.8711
   98OSM   C17S 9788   3.091   1.822   9.114  0.0832 -0.1175  0.2608
   98OSM   H17S 9789   3.174   1.794   9.046  0.5474  1.5184  0.1301
   98OSM   H17T 9790   3.102   1.931   9.128  2.0585  0.0467 -2.2566
   98OSM   C18S 9791   2.953   1.779   9.055  0.3436  0.1023  0.0476
   98OSM   H18S 9792   2.869   1.814   9.119 -0.0364  1.8055 -1.3501
   98OSM   H18T 9793   2.944   1.668   9.055 -0.7043  0.1780 -0.2384
   98OSM   H18U 9794   2.957   1.814   8.950 -3.0361  3.1064  0.8407
   98OSM    C1F 9795   2.676   2.171  10.447  0.6251  0.4830 -0.5389
   98OSM     OF 9796   2.672   2.291  10.475  0.5636  0.8256  0.0322
   98OSM    C2F 9797   2.615   2.112  10.325 -0.2813 -0.0506  0.5569
   98OSM    H2F 9798   2.648   2.181  10.243  0.3951 -0.7304  0.2495
   98OSM    H2G 9799   2.507   2.134  10.332 -0.3147 -0.5089  1.4950
   98OSM    C3F 9800   2.641   1.969  10.278  0.9006  0.3313  0.0283
   98OSM    H3F 9801   2.603   1.897  10.354  2.5338  0.5334  1.0521
   98OSM    H3G 9802   2.751   1.955  10.265  0.9598  2.0976 -1.4582
   98OSM    C4F 9803   2.580   1.936  10.140 -0.0552 -0.0538  0.1550
   98OSM    H4F 9804   2.621   1.987  10.050 -0.8241 -1.4496 -1.0179
   98OSM    H4G 9805   2.475   1.971  10.148 -0.1277 -0.4254  0.9310
   98OSM    C5F 9806   2.589   1.791  10.115 -0.0858 -0.2107  0.1643
   98OSM    H5F 9807   2.554   1.725  10.198 -1.5483  0.4601  0.1054
   98OSM    H5G 9808   2.697   1.782  10.093 -0.0342 -0.9894  0.7246
   98OSM    C6F 9809   2.524   1.762   9.974  0.4253  0.6806  0.2537
   98OSM    H6F 9810   2.556   1.844   9.907  2.0678 -0.9169 -0.9514
   98OSM    H6G 9811   2.413   1.771   9.977  0.3720  0.3523 -0.7495
   98OSM    C7F 9812   2.558   1.625   9.908 -0.6257  0.1828  0.2611
   98OSM    H7F 9813   2.539   1.538   9.974  0.2963  0.1010  0.4170
   98OSM    H7G 9814   2.663   1.632   9.873 -0.4920 -0.3230  0.5629
   98OSM    C8F 9815   2.477   1.610   9.780 -0.1886 -0.6194  0.4945
   98OSM    H8F 9816   2.366   1.606   9.789 -0.3848  1.6068 -0.5068
   98OSM    H8G 9817   2.494   1.514   9.728 -0.0381  0.1230 -0.8364
   98OSM    C9F 9818   2.516   1.719   9.683  0.3693  0.0869 -0.6633
   98OSM    H9F 9819   2.438   1.797   9.684 -2.1166 -2.3110 -1.1948
   98OSM   C10F 9820   2.608   1.703   9.582 -0.0420 -0.5635 -0.4208
   98OSM   H10F 9821   2.614   1.785   9.509  1.3342  0.5017  0.8534
   98OSM   C11F 9822   2.682   1.581   9.542 -0.6089 -0.0302 -1.1897
   98OSM   H11F 9823   2.671   1.489   9.604 -1.1261  1.4940  1.0379
   98OSM   H11G 9824   2.792   1.594   9.542 -0.4933 -0.9876 -1.6789
   98OSM   C12F 9825   2.644   1.529   9.396  0.0013 -0.5992 -0.7289
   98OSM   H12F 9826   2.724   1.458   9.365  1.8508  0.7708  0.7582
   98OSM   H12G 9827   2.645   1.607   9.317  0.8290  1.3891  1.1850
   98OSM   C13F 9828   2.503   1.479   9.386 -1.0860  1.0737  0.2852
   98OSM   H13F 9829   2.439   1.569   9.378 -3.9870 -0.9132  0.3234
   98OSM   H13G 9830   2.481   1.427   9.482 -0.6336 -1.1210 -0.7835
   98OSM   C14F 9831   2.481   1.379   9.275  0.1613 -0.5823 -0.1333
   98OSM   H14F 9832   2.550   1.294   9.297 -0.0833 -0.0488  2.9839
   98OSM   H14G 9833   2.506   1.423   9.177  0.1223 -1.7615 -0.6805
   98OSM   C15F 9834   2.340   1.320   9.257  0.0691 -0.1675  0.0263
   98OSM   H15F 9835   2.263   1.391   9.295  0.7433  0.4630  0.2310
   98OSM   H15G 9836   2.331   1.230   9.320  1.5267 -1.3665 -1.4497
   98OSM   C16F 9837   2.300   1.287   9.112  0.0249  0.0801 -0.4480
   98OSM   H16F 9838   2.363   1.204   9.072 -0.0591 -0.8350  1.2769
   98OSM   H16G 9839   2.303   1.380   9.051 -2.1265  1.5053  1.5575
   98OSM   C17F 9840   2.146   1.243   9.102  0.1545 -0.2697 -0.7166
   98OSM   H17F 9841   2.090   1.315   9.165  1.2072  0.4987 -0.6306
   98OSM   H17G 9842   2.133   1.145   9.151  4.0777 -1.3009 -1.5775
   98OSM   C18F 9843   2.088   1.251   8.964 -0.3166 -0.1826  0.3067
   98OSM   H18F 9844   2.084   1.360   8.943  0.1514  0.0105  1.1816
   98OSM   H18G 9845   1.988   1.203   8.967 -0.6604  0.3326 -2.2466
   98OSM   H18H 9846   2.153   1.189   8.899  0.9476  1.0775  0.3486
   99OSM      N 9847   5.510   3.148  10.987 -0.1072 -1.1491  0.4603
   99OSM    C15 9848   5.585   3.238  11.070  0.7925 -0.2749  0.0221
   99OSM   H15A 9849   5.518   3.273  11.148  1.3342 -1.3260  0.9710
   99OSM   H15B 9850   5.619   3.326  11.016 -0.4193  0.6750  0.7668
   99OSM   H15C 9851   5.665   3.185  11.118  2.2405  1.7611 -0.0600
   99OSM    C14 9852   5.449   3.041  11.073  0.4971  0.2808 -0.2028
   99OSM   H14A 9853   5.524   2.984  11.127 -0.8219 -0.8118  0.5038
   99OSM   H14B 9854   5.392   2.978  11.007 -0.2467  1.5096 -0.7506
   99OSM   H14C 9855   5.377   3.080  11.143 -0.7241 -0.5062 -1.0024
   99OSM    C13 9856   5.397   3.229  10.922  0.4909 -0.2445 -0.3982
   99OSM   H13A 9857   5.441   3.294  10.847  1.5998  1.6014  1.8043
   99OSM   H13B 9858   5.337   3.289  10.988 -3.3549 -2.9243 -1.2879
   99OSM   H13C 9859   5.322   3.170  10.871  0.9128  0.0747 -1.3886
   99OSM    C12 9860   5.596   3.088  10.872  0.5260 -0.0332 -1.0959
   99OSM   H12A 9861   5.665   3.025  10.925  3.1941  2.9797 -0.8278
   99OSM   H12B 9862   5.652   3.164  10.819  1.1277  0.4868  0.2677
   99OSM    C11 9863   5.526   3.007  10.752 -0.4393  0.3808 -0.1292
   99OSM   H11A 9864   5.611   2.988  10.684  1.0705  0.0876  1.7894
   99OSM   H11B 9865   5.453   3.078  10.707 -2.2016  0.0928  2.1210
   99OSM      P 9866   5.527   2.766  10.836 -0.3320  0.0105  0.5081
   99OSM    O13 9867   5.658   2.805  10.888  0.0207 -0.7310 -0.2822
   99OSM    O14 9868   5.442   2.690  10.926 -0.3262 -0.9333 -0.2463
   99OSM    O11 9869   5.547   2.683  10.701  0.2050 -0.1568 -0.3368
   99OSM    O12 9870   5.445   2.890  10.782 -0.3043 -0.6261  0.1238
   99OSM    C1S 9871   5.451   2.592  10.642  0.1844  0.2350  0.2044
   99OSM    H1S 9872   5.352   2.615  10.686 -0.0048  0.9862 -0.6136
   99OSM    H1T 9873   5.484   2.490  10.672  2.0636  0.9233  0.5541
   99OSM     NF 9874   5.325   2.532  10.441  0.9112 -0.5505  0.2026
   99OSM    HNF 9875   5.340   2.440  10.406 -0.4539 -0.8054  0.2684
   99OSM    C2S 9876   5.449   2.599  10.493 -0.2658 -0.2416  0.1134
   99OSM    H2S 9877   5.453   2.708  10.473 -1.7595 -0.2904 -0.4875
   99OSM    C3S 9878   5.583   2.539  10.434 -0.1105 -0.4914  0.5897
   99OSM    H3S 9879   5.569   2.429  10.443 -3.2949 -0.3429 -1.8154
   99OSM     O3 9880   5.693   2.564  10.516 -0.3163 -0.1074 -0.0288
   99OSM    HO3 9881   5.673   2.618  10.593 -0.3015 -0.7739  0.4435
   99OSM    C4S 9882   5.598   2.571  10.290 -0.1657 -0.1498 -0.3442
   99OSM    H4S 9883   5.577   2.677  10.273 -0.5788 -0.0774  0.6386
   99OSM    C5S 9884   5.622   2.488  10.186 -0.9729 -0.1250 -0.1847
   99OSM    H5S 9885   5.632   2.381  10.210  2.9367  0.4517  1.1177
   99OSM    C6S 9886   5.633   2.520  10.041 -0.1295 -0.5744  0.1713
   99OSM    H6S 9887   5.616   2.435   9.971  0.8993  0.5063 -1.4266
   99OSM    H6T 9888   5.737   2.550  10.016  0.5518 -2.9846 -0.0059
   99OSM    C7S 9889   5.549   2.643   9.996 -0.1777 -0.5383  0.2149
   99OSM    H7S 9890   5.560   2.668   9.889  0.5534  2.6052  0.9510
   99OSM    H7T 9891   5.577   2.733  10.055 -1.8246  1.9920 -2.7549
   99OSM    C8S 9892   5.390   2.626  10.022 -0.5470 -0.1861 -0.2758
   99OSM    H8S 9893   5.351   2.730  10.027  1.3087  0.4458  2.2642
   99OSM    H8T 9894   5.371   2.585  10.124  0.1637  1.6987  0.6432
   99OSM    C9S 9895   5.317   2.531   9.930  0.3487 -0.7877  0.2134
   99OSM    H9S 9896   5.249   2.460   9.983  0.0896 -0.7705 -0.0906
   99OSM    H9T 9897   5.399   2.476   9.880  0.0546 -0.4067 -0.7009
   99OSM   C10S 9898   5.226   2.604   9.827  0.1231 -0.3058 -0.3191
   99OSM   H10S 9899   5.286   2.692   9.795 -0.7011  1.5626  3.0288
   99OSM   H10T 9900   5.130   2.642   9.868  0.2754  0.1848 -0.4113
   99OSM   C11S 9901   5.203   2.515   9.707 -0.4215  0.3453 -0.6457
   99OSM   H11S 9902   5.137   2.427   9.725 -0.5965  0.5260 -0.4076
   99OSM   H11T 9903   5.301   2.476   9.673 -0.7206 -1.4683  0.4973
   99OSM   C12S 9904   5.129   2.588   9.595 -0.4545  0.2986  0.6162
   99OSM   H12S 9905   5.038   2.627   9.645 -0.9847 -0.3178  0.1230
   99OSM   H12T 9906   5.187   2.677   9.559 -0.9471  0.1395 -0.5873
   99OSM   C13S 9907   5.084   2.502   9.480  0.5641  0.0199  0.2719
   99OSM   H13S 9908   5.013   2.561   9.418 -0.2173 -1.8881 -0.7005
   99OSM   H13T 9909   5.012   2.429   9.523  1.2570  0.8560  2.9048
   99OSM   C14S 9910   5.195   2.459   9.375  0.6470  0.1334 -0.0818
   99OSM   H14S 9911   5.286   2.423   9.426 -0.1189 -1.0203  0.4825
   99OSM   H14T 9912   5.221   2.547   9.313  2.1083 -0.1339  0.1410
   99OSM   C15S 9913   5.148   2.340   9.289  0.3446  0.0078  0.1477
   99OSM   H15S 9914   5.141   2.242   9.343  0.8234  0.2175  0.5961
   99OSM   H15T 9915   5.219   2.314   9.208  1.2148 -0.4445  1.0398
   99OSM   C16S 9916   5.008   2.364   9.225  0.1563  0.3133  0.0090
   99OSM   H16S 9917   5.032   2.438   9.146 -1.2707 -0.1297 -0.8522
   99OSM   H16T 9918   4.925   2.409   9.284  0.8950  2.8421 -0.8001
   99OSM   C17S 9919   4.943   2.233   9.165  1.0119 -0.3579 -0.3704
   99OSM   H17S 9920   4.909   2.169   9.249 -3.2835 -0.2430 -1.8946
   99OSM   H17T 9921   5.030   2.183   9.118 -1.2951 -3.7795 -1.1906
   99OSM   C18S 9922   4.838   2.257   9.064 -0.0758  0.0241 -0.7548
   99OSM   H18S 9923   4.855   2.341   8.993 -1.5670  0.1277 -1.0115
   99OSM   H18T 9924   4.744   2.290   9.113  0.3070 -1.7558  1.2425
   99OSM   H18U 9925   4.821   2.163   9.007 -1.2143 -0.7941  0.9202
   99OSM    C1F 9926   5.204   2.577  10.468  0.0804  0.9209  0.2035
   99OSM     OF 9927   5.192   2.688  10.527 -0.1764  0.3173 -0.0921
   99OSM    C2F 9928   5.091   2.483  10.441  0.0012 -0.3979  0.3867
   99OSM    H2F 9929   5.061   2.431  10.535 -0.1281 -0.1657  0.4780
   99OSM    H2G 9930   5.127   2.401  10.375  0.1160  0.4205 -0.5790
   99OSM    C3F 9931   4.980   2.551  10.365 -0.3872  0.6739  0.9838
   99OSM    H3F 9932   4.892   2.484  10.373 -1.2049  1.3526 -1.7699
   99OSM    H3G 9933   4.953   2.648  10.413 -0.8507  1.3178 -0.5506
   99OSM    C4F 9934   5.034   2.567  10.216  0.1258 -0.6919 -0.8318
   99OSM    H4F 9935   5.071   2.465  10.193 -0.4875 -0.3846 -3.2551
   99OSM    H4G 9936   5.117   2.640  10.205 -0.9010  0.2654 -2.3673
   99OSM    C5F 9937   4.926   2.614  10.120  0.0001 -0.1379 -0.9219
   99OSM    H5F 9938   4.843   2.540  10.114  1.9276 -2.2091 -3.4317
   99OSM    H5G 9939   4.965   2.605  10.016 -1.0066 -0.4762 -1.2719
   99OSM    C6F 9940   4.876   2.759  10.125 -0.0606  0.4491 -0.1855
   99OSM    H6F 9941   4.954   2.826  10.168  1.6041 -0.6149 -1.5085
   99OSM    H6G 9942   4.792   2.777  10.197 -0.3385  1.5052 -0.7680
   99OSM    C7F 9943   4.829   2.806   9.991 -0.4058  0.2472 -0.2930
   99OSM    H7F 9944   4.779   2.719   9.944  3.7612 -3.7002  2.1647
   99OSM    H7G 9945   4.919   2.828   9.930  0.8962  1.6183  2.0260
   99OSM    C8F 9946   4.734   2.923   9.998  0.3095 -0.0178  0.5950
   99OSM    H8F 9947   4.653   2.902  10.071  0.4947  1.9737  1.4253
   99OSM    H8G 9948   4.684   2.932   9.899  0.8449  2.5285  0.5228
   99OSM    C9F 9949   4.805   3.055  10.024  0.6113  0.7503 -0.3205
   99OSM    H9F 9950   4.835   3.073  10.128  0.0688 -0.3995  0.0424
   99OSM   C10F 9951   4.839   3.147   9.936  0.7207 -0.0576  0.3328
   99OSM   H10F 9952   4.901   3.230   9.973  0.9373  0.0126 -0.1769
   99OSM   C11F 9953   4.827   3.149   9.783 -0.5751  0.5920  0.2091
   99OSM   H11F 9954   4.821   3.255   9.749 -0.5920  0.2844 -0.7683
   99OSM   H11G 9955   4.741   3.084   9.758 -0.8870  0.8732  0.5534
   99OSM   C12F 9956   4.946   3.088   9.713  1.0857  0.1630  0.3064
   99OSM   H12F 9957   4.948   2.977   9.717  0.4995  0.1037 -0.9228
   99OSM   H12G 9958   5.039   3.133   9.754  0.7416  1.3871 -0.2327
   99OSM   C13F 9959   4.941   3.119   9.560 -0.3881 -0.4634 -0.3436
   99OSM   H13F 9960   4.945   3.229   9.544 -2.3777 -0.0373  1.7069
   99OSM   H13G 9961   4.843   3.081   9.525 -1.2911  0.3903  1.1927
   99OSM   C14F 9962   5.025   3.027   9.476 -0.0182  0.3319  0.5052
   99OSM   H14F 9963   5.080   2.945   9.527 -0.0312 -0.6485 -1.0113
   99OSM   H14G 9964   5.099   3.078   9.411 -0.4166  1.9318  1.2735
   99OSM   C15F 9965   4.949   2.940   9.373  0.0372  0.0132  0.4523
   99OSM   H15F 9966   4.887   3.000   9.304 -2.7582 -1.0372  1.9642
   99OSM   H15G 9967   4.879   2.868   9.421  0.3811 -0.9662 -0.5106
   99OSM   C16F 9968   5.043   2.854   9.285 -0.0405 -0.1573 -0.0648
   99OSM   H16F 9969   5.111   2.795   9.350  1.9497 -1.5437 -3.2799
   99OSM   H16G 9970   5.102   2.934   9.235 -1.4343  1.8334  1.4086
   99OSM   C17F 9971   4.973   2.754   9.185  0.1186  0.2484 -0.0297
   99OSM   H17F 9972   4.910   2.684   9.244  1.4065 -0.3368  0.6942
   99OSM   H17G 9973   5.048   2.705   9.119  0.1039  2.4089 -1.6898
   99OSM   C18F 9974   4.882   2.812   9.084 -0.4585  0.5781  1.2381
   99OSM   H18F 9975   4.811   2.883   9.132 -1.0135  0.3851  0.7214
   99OSM   H18G 9976   4.834   2.731   9.024  0.0867  1.6408 -0.6782
   99OSM   H18H 9977   4.938   2.875   9.012 -0.7113  1.1483  1.5367
  100OSM      N 9978   0.118   3.602  11.176 -0.3476 -0.7592 -0.4746
  100OSM    C15 9979   0.030   3.540  11.076  0.2440 -0.6048  0.0288
  100OSM   H15A 9980   0.065   3.442  11.046  2.9328  0.6689 -1.1730
  100OSM   H15B 9981   0.039   3.591  10.981  1.7130 -1.6707 -0.4270
  100OSM   H15C 9982  -0.073   3.537  11.110  1.0768  2.5697  3.0529
  100OSM    C14 9983   0.053   3.730  11.224  0.0921  0.4787 -0.2315
  100OSM   H14A 9984  -0.047   3.713  11.259  0.1088 -2.3477 -1.4327
  100OSM   H14B 9985   0.051   3.807  11.147  0.3918  1.0513  0.3302
  100OSM   H14C 9986   0.112   3.787  11.294 -1.2542  1.0675  0.4357
  100OSM    C13 9987   0.139   3.503  11.290  0.5443 -0.1834  0.7658
  100OSM   H13A 9988   0.219   3.537  11.354 -0.1966  1.3164  0.9155
  100OSM   H13B 9989   0.148   3.401  11.258  3.1518  1.0494 -2.6993
  100OSM   H13C 9990   0.055   3.509  11.359  0.3588  0.5979  0.4877
  100OSM    C12 9991   0.256   3.632  11.112  0.2872 -0.6607  0.2267
  100OSM   H12A 9992   0.296   3.543  11.065 -1.2773 -0.8517 -0.7511
  100OSM   H12B 9993   0.326   3.652  11.193 -2.4711 -2.4396  3.1721
  100OSM    C11 9994   0.256   3.743  11.001 -0.0329 -0.4583 -0.5539
  100OSM   H11A 9995   0.356   3.760  10.956 -0.5999 -0.5625 -1.8938
  100OSM   H11B 9996   0.250   3.842  11.052 -1.6891 -1.8131  1.9774
  100OSM      P 9997   0.195   3.674  10.756 -0.5217 -0.0035  0.1857
  100OSM    O13 9998   0.088   3.579  10.719 -0.4147 -0.1757  0.1636
  100OSM    O14 9999   0.223   3.792  10.675 -0.2416 -0.0131  0.1443
  100OSM    O1110000   0.340   3.605  10.769 -0.1559  0.3864 -0.3184
  100OSM    O1210001   0.161   3.724  10.904 -0.0550  0.8382 -0.0879
  100OSM    C1S10002   0.360   3.506  10.665 -0.2135 -0.3982 -0.0712
  100OSM    H1S10003   0.284   3.425  10.663 -0.0156 -0.6331  1.4935
  100OSM    H1T10004   0.452   3.452  10.694 -1.7292 -1.9554  1.9657
  100OSM     NF10005   0.410   3.450  10.434 -0.4700  0.0467 -0.7153
  100OSM    HNF10006   0.505   3.437  10.407 -0.6726 -1.4413 -0.7839
  100OSM    C2S10007   0.393   3.564  10.524  0.4266  0.3329 -0.8520
  100OSM    H2S10008   0.293   3.609  10.503  0.6220  0.0065 -2.6005
  100OSM    C3S10009   0.509   3.674  10.531  1.1424  0.5818 -0.0621
  100OSM    H3S10010   0.603   3.615  10.536 -1.0711 -3.2389 -1.5195
  100OSM     O310011   0.524   3.749  10.643 -0.0988 -0.1653  0.3532
  100OSM    HO310012   0.444   3.726  10.691  2.6987 -2.9332  4.0357
  100OSM    C4S10013   0.501   3.766  10.406  0.3922 -0.2398  0.5355
  100OSM    H4S10014   0.568   3.744  10.322 -0.4483 -0.4794 -0.0797
  100OSM    C5S10015   0.418   3.877  10.407  0.0622  0.2461 -0.3771
  100OSM    H5S10016   0.361   3.893  10.499  1.3160 -0.1134  0.4685
  100OSM    C6S10017   0.402   3.974  10.301 -0.8991  0.3282 -0.0498
  100OSM    H6S10018   0.463   4.065  10.323 -1.9366  1.4344 -1.6803
  100OSM    H6T10019   0.297   4.006  10.290 -1.2323 -0.6596  0.2213
  100OSM    C7S10020   0.437   3.931  10.151 -0.4880  0.1484  0.1181
  100OSM    H7S10021   0.352   3.867  10.120 -0.6188 -0.6621  2.0821
  100OSM    H7T10022   0.540   3.888  10.148  0.0669  1.4787 -0.5476
  100OSM    C8S10023   0.440   4.068  10.067 -0.5966  0.8311  0.4979
  100OSM    H8S10024   0.529   4.124  10.103 -1.5331  2.2852  0.5919
  100OSM    H8T10025   0.351   4.128  10.096 -0.3903  0.2940  2.3200
  100OSM    C9S10026   0.452   4.044   9.918 -0.5687  0.1899  0.2449
  100OSM    H9S10027   0.445   4.141   9.864  0.0841  0.4596  0.6388
  100OSM    H9T10028   0.365   3.987   9.878 -1.2814  0.1756  1.7900
  100OSM   C10S10029   0.576   3.972   9.870  0.2085  0.0822  0.1145
  100OSM   H10S10030   0.557   3.863   9.866  1.2303 -0.1985  2.3875
  100OSM   H10T10031   0.662   3.987   9.938  0.4810  0.0569 -0.2259
  100OSM   C11S10032   0.626   4.018   9.732  0.4706 -0.3161 -0.2638
  100OSM   H11S10033   0.724   3.970   9.715  0.8308  0.6295 -0.9097
  100OSM   H11T10034   0.655   4.125   9.745 -1.3801  0.2260 -0.4852
  100OSM   C12S10035   0.532   3.983   9.619 -0.2819  0.2754  0.4233
  100OSM   H12S10036   0.426   3.991   9.652 -1.9603 -1.2247 -4.2744
  100OSM   H12T10037   0.538   3.874   9.598 -0.6997  0.3011  0.1693
  100OSM   C13S10038   0.549   4.062   9.488 -0.7897  0.3002 -0.2374
  100OSM   H13S10039   0.656   4.052   9.459 -0.4748  0.2566  0.9235
  100OSM   H13T10040   0.521   4.169   9.494 -2.2384 -0.1604  1.4194
  100OSM   C14S10041   0.467   3.996   9.376  0.1138  1.0478 -0.0440
  100OSM   H14S10042   0.359   4.014   9.395 -0.3073 -0.5655 -0.8933
  100OSM   H14T10043   0.480   3.886   9.385 -1.6533  0.8103 -0.2515
  100OSM   C15S10044   0.509   4.032   9.233 -0.4378 -0.0898  0.2351
  100OSM   H15S10045   0.617   4.007   9.228 -0.3464  0.4344 -0.5378
  100OSM   H15T10046   0.498   4.141   9.216 -2.7912 -0.5928 -1.8241
  100OSM   C16S10047   0.427   3.959   9.118  0.1351 -0.1401 -0.1668
  100OSM   H16S10048   0.429   3.849   9.136 -1.1470  0.2570  2.5851
  100OSM   H16T10049   0.464   3.986   9.016 -0.0988 -0.0904 -0.2407
  100OSM   C17S10050   0.282   4.010   9.119  0.3171  0.1807  0.5361
  100OSM   H17S10051   0.237   3.992   9.220 -1.3738  2.8243  0.2988
  100OSM   H17T10052   0.222   3.946   9.051  1.4006 -0.3936  0.1106
  100OSM   C18S10053   0.279   4.154   9.070  0.1327 -0.6090  0.9000
  100OSM   H18S10054   0.179   4.195   9.042 -0.6374 -0.8622  3.1924
  100OSM   H18T10055   0.347   4.156   8.982 -2.1593  0.3846 -0.9239
  100OSM   H18U10056   0.316   4.223   9.148  0.2012  1.5712 -0.9924
  100OSM    C1F10057   0.313   3.363  10.404  0.2900  0.1841 -0.6223
  100OSM     OF10058   0.197   3.380  10.434 -0.1439 -0.2703 -0.1801
  100OSM    C2F10059   0.348   3.237  10.330 -0.7836  0.2178 -0.1734
  100OSM    H2F10060   0.356   3.150  10.399  0.1076  0.6762  0.3132
  100OSM    H2G10061   0.447   3.253  10.282  0.6555 -0.4294  2.5028
  100OSM    C3F10062   0.239   3.190  10.229  0.6952 -0.5346  0.1266
  100OSM    H3F10063   0.135   3.204  10.264  1.1334  1.1004  0.8166
  100OSM    H3G10064   0.246   3.079  10.219 -0.8309 -0.6504  0.3147
  100OSM    C4F10065   0.255   3.269  10.095 -0.5279 -0.1935  0.5410
  100OSM    H4F10066   0.359   3.267  10.058 -0.4283  1.1363  0.7205
  100OSM    H4G10067   0.234   3.378  10.102 -2.0991 -0.3698 -1.0098
  100OSM    C5F10068   0.183   3.200   9.980  0.5568  1.0872  0.4624
  100OSM    H5F10069   0.074   3.218   9.987  0.6518  2.8896 -2.1237
  100OSM    H5G10070   0.197   3.090   9.986  2.1173  1.0779 -2.4045
  100OSM    C6F10071   0.227   3.244   9.840  0.6373 -0.0935  0.4462
  100OSM    H6F10072   0.333   3.220   9.819  0.1925 -0.9427 -0.9535
  100OSM    H6G10073   0.219   3.354   9.830  1.3056 -0.1775 -1.1736
  100OSM    C7F10074   0.118   3.187   9.740 -0.3095 -0.1694  0.1259
  100OSM    H7F10075   0.020   3.224   9.776 -0.9159 -1.8747  0.2888
  100OSM    H7G10076   0.124   3.077   9.752 -1.4985 -0.2141  0.3465
  100OSM    C8F10077   0.138   3.227   9.586 -0.3270 -0.0934 -0.0298
  100OSM    H8F10078   0.155   3.337   9.597  0.7042 -0.2282 -0.2619
  100OSM    H8G10079   0.045   3.208   9.527 -0.5107 -1.4614  0.6899
  100OSM    C9F10080   0.257   3.155   9.528  0.2214  0.5027  0.4490
  100OSM    H9F10081   0.342   3.143   9.597  3.6122  0.8795 -3.4855
  100OSM   C10F10082   0.259   3.106   9.399  0.5772  0.1067  0.5563
  100OSM   H10F10083   0.349   3.057   9.358 -1.4202 -0.2065 -3.7801
  100OSM   C11F10084   0.147   3.138   9.306  0.1122 -0.5367  0.2823
  100OSM   H11F10085   0.137   3.249   9.301  1.9940 -0.4278 -2.0150
  100OSM   H11G10086   0.048   3.107   9.344 -0.1847  0.0572  0.0023
  100OSM   C12F10087   0.174   3.075   9.173 -0.0628 -0.0222 -0.4169
  100OSM   H12F10088   0.077   3.053   9.123 -0.1586  1.2890 -0.8337
  100OSM   H12G10089   0.229   2.980   9.181 -1.0913 -0.5363  0.7772
  100OSM   C13F10090   0.257   3.158   9.066  0.6164 -0.1769 -0.2911
  100OSM   H13F10091   0.268   3.082   8.986 -0.0901  1.1449 -1.6636
  100OSM   H13G10092   0.360   3.174   9.106 -0.5295  1.3837  2.1944
  100OSM   C14F10093   0.197   3.287   9.001 -0.5000  0.5154 -0.1553
  100OSM   H14F10094   0.190   3.371   9.073 -1.4370 -0.8201  1.3314
  100OSM   H14G10095   0.092   3.265   8.972 -0.1564  1.7927 -2.5173
  100OSM   C15F10096   0.277   3.318   8.870  0.3219 -0.0038 -0.0007
  100OSM   H15F10097   0.275   3.225   8.810  0.0876 -0.4781  0.7292
  100OSM   H15G10098   0.377   3.339   8.914  1.2173 -1.1960 -1.4365
  100OSM   C16F10099   0.235   3.442   8.786 -0.3242 -0.3552  0.5387
  100OSM   H16F10100   0.124   3.440   8.788 -0.3220  0.0618  1.2788
  100OSM   H16G10101   0.292   3.427   8.692 -0.1916  1.7855  0.2626
  100OSM   C17F10102   0.275   3.574   8.849 -0.0641  0.4826 -0.7839
  100OSM   H17F10103   0.375   3.568   8.899 -0.6981 -2.4701  0.2312
  100OSM   H17G10104   0.222   3.605   8.941 -1.5992 -2.1959 -0.7299
  100OSM   C18F10105   0.267   3.702   8.767 -0.0263  0.4450  0.0531
  100OSM   H18F10106   0.292   3.788   8.833 -0.6660  0.8276 -0.1925
  100OSM   H18G10107   0.166   3.699   8.721 -0.1561  1.0104  0.2927
  100OSM   H18H10108   0.336   3.693   8.681  0.6696  0.4718  0.6091
  101OSM      N10109   2.982   3.660  11.089  0.1536 -0.2445 -0.6987
  101OSM    C1510110   2.884   3.547  11.069  0.1399  0.5080 -0.4872
  101OSM   H15A10111   2.825   3.529  11.157 -2.1585  0.5075 -1.9591
  101OSM   H15B10112   2.928   3.454  11.036 -0.9589  0.7340 -2.7727
  101OSM   H15C10113   2.803   3.572  11.001  0.2240  1.5584 -0.2013
  101OSM    C1410114   2.922   3.769  11.155  0.4254 -0.5812  0.0303
  101OSM   H14A10115   2.890   3.742  11.255  1.5282  1.2193  0.8914
  101OSM   H14B10116   2.832   3.805  11.107 -0.5453  0.2521  2.3876
  101OSM   H14C10117   2.988   3.853  11.170  0.1424 -0.3621  0.0418
  101OSM    C1310118   3.088   3.620  11.184 -0.4926 -0.2929 -0.9305
  101OSM   H13A10119   3.130   3.524  11.156  1.3470 -0.8349  3.2891
  101OSM   H13B10120   3.048   3.593  11.280  0.0429  0.8705 -0.3749
  101OSM   H13C10121   3.173   3.687  11.187 -0.4952 -0.3690  2.2157
  101OSM    C1210122   3.032   3.705  10.957 -0.8675  0.2488 -0.0402
  101OSM   H12A10123   2.953   3.758  10.906 -0.6276  2.0223  1.3677
  101OSM   H12B10124   3.061   3.619  10.899 -1.4601 -0.1162  0.1919
  101OSM    C1110125   3.140   3.810  10.946 -0.4084 -0.4006 -0.4796
  101OSM   H11A10126   3.107   3.897  11.005  0.6191 -0.9980  1.0139
  101OSM   H11B10127   3.147   3.856  10.845 -0.2609  0.7175  0.0386
  101OSM      P10128   3.363   3.695  10.892  0.3648 -0.2283 -0.3402
  101OSM    O1310129   3.497   3.719  10.930  0.1479  0.0121  0.0407
  101OSM    O1410130   3.316   3.557  10.872 -0.1546  0.3680  0.1743
  101OSM    O1110131   3.331   3.760  10.752 -0.3683  0.1495  0.3437
  101OSM    O1210132   3.266   3.759  10.995  0.0477  0.0487 -0.4482
  101OSM    C1S10133   3.425   3.816  10.657  0.1112 -0.2419  0.4984
  101OSM    H1S10134   3.531   3.794  10.683  0.2240 -2.3853 -1.6005
  101OSM    H1T10135   3.424   3.927  10.658 -0.8191 -0.2460  1.1422
  101OSM     NF10136   3.491   3.806  10.418 -0.1292  0.8039  0.5782
  101OSM    HNF10137   3.472   3.873  10.346 -1.8236 -1.5910 -1.2918
  101OSM    C2S10138   3.384   3.780  10.510  0.5578  0.0749  0.3114
  101OSM    H2S10139   3.371   3.670  10.507 -0.1987  0.1315  1.2532
  101OSM    C3S10140   3.254   3.842  10.463  0.2764 -0.2828  0.2266
  101OSM    H3S10141   3.271   3.949  10.442 -0.0690 -0.1448  0.6333
  101OSM     O310142   3.145   3.843  10.551 -0.3598  0.1682 -0.6408
  101OSM    HO310143   3.178   3.820  10.638 -1.1359 -0.1240 -0.4229
  101OSM    C4S10144   3.203   3.788  10.333  0.4085  0.1794  0.1331
  101OSM    H4S10145   3.188   3.679  10.336 -0.2301  0.2231 -1.0799
  101OSM    C5S10146   3.158   3.864  10.231  0.1438  0.8818 -0.0175
  101OSM    H5S10147   3.158   3.971  10.257 -3.8486  0.6407  1.2529
  101OSM    C6S10148   3.094   3.815  10.104 -0.2123  0.6219 -0.2162
  101OSM    H6S10149   3.020   3.889  10.065  1.0040  2.4492  0.8731
  101OSM    H6T10150   3.035   3.724  10.127  0.2007  1.0405  2.6270
  101OSM    C7S10151   3.190   3.792   9.986  0.1333  0.1005 -0.2324
  101OSM    H7S10152   3.259   3.707  10.005  0.0256  0.0529 -0.0585
  101OSM    H7T10153   3.249   3.883   9.961  0.0030 -0.2967 -2.0605
  101OSM    C8S10154   3.110   3.758   9.859 -0.6263 -0.3469 -0.4150
  101OSM    H8S10155   3.049   3.846   9.828 -0.3235 -0.2545 -0.7477
  101OSM    H8T10156   3.043   3.678   9.897 -2.1280  0.3015 -1.6472
  101OSM    C9S10157   3.194   3.726   9.741  0.3304 -0.1427 -0.1314
  101OSM    H9S10158   3.197   3.615   9.740 -1.4752 -0.2114 -2.6450
  101OSM    H9T10159   3.297   3.763   9.759 -0.7993  2.7587  0.6113
  101OSM   C10S10160   3.149   3.786   9.610 -1.3466 -0.3331  0.0482
  101OSM   H10S10161   3.102   3.885   9.629 -1.0346 -0.3452  0.9070
  101OSM   H10T10162   3.058   3.734   9.575 -0.9314  0.8826 -2.9380
  101OSM   C11S10163   3.245   3.787   9.487 -0.1309  0.2047 -0.0833
  101OSM   H11S10164   3.337   3.840   9.522  1.1530 -0.5017 -2.2523
  101OSM   H11T10165   3.201   3.855   9.410  0.4636  1.7365  0.9028
  101OSM   C12S10166   3.285   3.649   9.430 -0.3468 -0.0022  0.3004
  101OSM   H12S10167   3.193   3.598   9.392 -0.2647 -0.2227  0.3943
  101OSM   H12T10168   3.326   3.599   9.520  2.2989  2.6445  0.6129
  101OSM   C13S10169   3.393   3.666   9.312  0.2446 -0.1663 -1.1206
  101OSM   H13S10170   3.487   3.712   9.350  0.1423 -1.1291  0.3381
  101OSM   H13T10171   3.354   3.726   9.227  2.4080  0.6586 -1.5625
  101OSM   C14S10172   3.447   3.533   9.255 -1.0086  0.2674  0.1781
  101OSM   H14S10173   3.540   3.553   9.197 -0.1559 -0.0358  1.4128
  101OSM   H14T10174   3.374   3.485   9.188 -0.4344 -1.4336  0.7558
  101OSM   C15S10175   3.483   3.425   9.358 -0.7083 -0.6141  0.1038
  101OSM   H15S10176   3.391   3.375   9.395 -1.3281 -1.2045 -2.0970
  101OSM   H15T10177   3.532   3.485   9.437  0.7305 -2.1520  0.4144
  101OSM   C16S10178   3.583   3.322   9.300  0.3311 -0.4908  0.3473
  101OSM   H16S10179   3.646   3.267   9.373  2.0128 -0.0547 -0.7371
  101OSM   H16T10180   3.665   3.380   9.252  1.4682 -0.9385  1.7319
  101OSM   C17S10181   3.526   3.232   9.188  0.0388  0.9602  0.1535
  101OSM   H17S10182   3.478   3.296   9.111  0.1938  0.9393  0.0373
  101OSM   H17T10183   3.446   3.166   9.227 -1.2806  0.2850 -3.5705
  101OSM   C18S10184   3.638   3.145   9.121  0.3278 -0.4495 -0.6143
  101OSM   H18S10185   3.696   3.208   9.051 -0.2486  0.8240  0.0151
  101OSM   H18T10186   3.589   3.068   9.058  0.4946  0.1744 -1.5035
  101OSM   H18U10187   3.703   3.094   9.195  1.8917  0.9234 -1.0185
  101OSM    C1F10188   3.613   3.753  10.419  0.3496 -0.3234 -0.1895
  101OSM     OF10189   3.645   3.655  10.486  0.0316 -0.4991 -0.1688
  101OSM    C2F10190   3.710   3.824  10.329  0.4022  0.2091  0.4518
  101OSM    H2F10191   3.812   3.783  10.339  0.7680  0.7915 -0.7436
  101OSM    H2G10192   3.706   3.933  10.347  0.7218  0.4532 -0.9063
  101OSM    C3F10193   3.663   3.802  10.178  0.2336  0.3348  0.2918
  101OSM    H3F10194   3.714   3.866  10.103  3.0450  0.7499  2.4679
  101OSM    H3G10195   3.559   3.834  10.155 -0.0294 -1.9741 -2.0416
  101OSM    C4F10196   3.674   3.655  10.133 -0.7417  0.1190  0.8602
  101OSM    H4F10197   3.605   3.603  10.203 -1.8753  1.7339  0.9654
  101OSM    H4G10198   3.773   3.605  10.144 -1.3365 -1.6383 -1.3854
  101OSM    C5F10199   3.637   3.625   9.984  0.3913  0.8124  0.4951
  101OSM    H5F10200   3.694   3.678   9.905  0.7035 -1.4836 -0.8468
  101OSM    H5G10201   3.535   3.668   9.979 -0.3649 -0.9946  0.1157
  101OSM    C6F10202   3.646   3.482   9.948  0.6227  0.1698 -0.0632
  101OSM    H6F10203   3.752   3.451   9.934  1.2122  2.8897 -1.9944
  101OSM    H6G10204   3.600   3.415  10.024  1.7796 -0.0061  0.4814
  101OSM    C7F10205   3.578   3.461   9.822  0.2253 -0.2443 -0.4806
  101OSM    H7F10206   3.614   3.541   9.755 -0.6104  1.1421  0.6946
  101OSM    H7G10207   3.468   3.480   9.819  0.1581 -0.5459  0.0092
  101OSM    C8F10208   3.594   3.324   9.763 -0.4878 -0.5746 -0.0703
  101OSM    H8F10209   3.520   3.311   9.681 -0.5605 -0.3572 -0.0399
  101OSM    H8G10210   3.564   3.257   9.847 -0.8651 -0.6298 -0.2498
  101OSM    C9F10211   3.732   3.294   9.711 -0.4181  0.4597  0.1392
  101OSM    H9F10212   3.773   3.370   9.643 -0.6999  1.6716  1.3023
  101OSM   C10F10213   3.809   3.185   9.737  0.2295  1.0134 -0.1031
  101OSM   H10F10214   3.912   3.182   9.696 -0.7450 -1.9054 -2.5674
  101OSM   C11F10215   3.779   3.070   9.832 -0.2023 -0.7465 -0.9035
  101OSM   H11F10216   3.827   2.980   9.789  0.7263 -0.7036  0.0339
  101OSM   H11G10217   3.674   3.033   9.831  0.6354 -3.2209 -0.8292
  101OSM   C12F10218   3.826   3.094   9.978  0.2634 -0.1916  0.4648
  101OSM   H12F10219   3.762   3.170  10.028  0.4162 -1.4747  2.6704
  101OSM   H12G10220   3.934   3.119   9.976  0.0514  0.6926 -0.5033
  101OSM   C13F10221   3.801   2.973  10.063 -0.5055 -0.5598 -0.1970
  101OSM   H13F10222   3.816   2.879  10.006 -0.5089 -2.0858  2.2252
  101OSM   H13G10223   3.699   2.975  10.106 -0.8138  1.3921 -0.9723
  101OSM   C14F10224   3.888   2.966  10.184  0.5881 -0.2697  0.2810
  101OSM   H14F10225   3.899   3.072  10.217 -2.9124 -0.1678  1.3210
  101OSM   H14G10226   3.989   2.929  10.159  0.3272 -0.7543 -0.0592
  101OSM   C15F10227   3.832   2.904  10.309  0.1098 -0.8072  0.4742
  101OSM   H15F10228   3.809   2.797  10.287 -1.7895  0.1097 -2.3205
  101OSM   H15G10229   3.731   2.949  10.323  0.5477  0.0134  1.0056
  101OSM   C16F10230   3.927   2.919  10.429  0.5585 -0.3486  0.3928
  101OSM   H16F10231   3.949   3.025  10.454 -0.5108 -0.3048  1.1602
  101OSM   H16G10232   4.025   2.879  10.393  1.1610  1.4999 -0.0742
  101OSM   C17F10233   3.908   2.839  10.557 -0.2532 -0.1119 -0.2726
  101OSM   H17F10234   4.007   2.826  10.606 -0.4788 -0.4574  0.0935
  101OSM   H17G10235   3.875   2.737  10.527 -1.4939 -0.2649  1.5488
  101OSM   C18F10236   3.805   2.884  10.658 -0.5323 -0.4936 -0.3862
  101OSM   H18F10237   3.701   2.855  10.630 -0.5496 -1.0164  0.1873
  101OSM   H18G10238   3.787   2.992  10.675 -1.2228 -0.7780  0.7574
  101OSM   H18H10239   3.831   2.833  10.754 -1.8563 -1.2670 -0.4295
  102OSM      N10240   5.807   5.029  10.873 -0.2009  0.7558 -0.1812
  102OSM    C1510241   5.688   5.053  10.785  0.1614 -0.1689  0.1120
  102OSM   H15A10242   5.667   5.158  10.775 -3.9532 -1.1317 -2.5927
  102OSM   H15B10243   5.603   4.990  10.808  0.2975 -0.1786  0.6070
  102OSM   H15C10244   5.707   5.018  10.685 -1.7245  0.7859 -0.6073
  102OSM    C1410245   5.778   5.063  11.018  0.1818 -0.1215  0.1057
  102OSM   H14A10246   5.859   5.034  11.083 -0.5721  1.7324  1.9253
  102OSM   H14B10247   5.695   4.996  11.036  0.7328 -1.1352 -1.0323
  102OSM   H14C10248   5.753   5.164  11.044 -1.3942 -0.6159  0.5351
  102OSM    C1310249   5.844   4.884  10.871  0.1705 -0.2152  0.7054
  102OSM   H13A10250   5.765   4.821  10.910 -1.1267 -0.2059 -1.8378
  102OSM   H13B10251   5.926   4.859  10.936  1.5485 -1.0420 -1.3348
  102OSM   H13C10252   5.859   4.850  10.770 -0.8810 -0.2217  0.5418
  102OSM    C1210253   5.922   5.113  10.829  0.2502  0.0775  0.2144
  102OSM   H12A10254   5.972   5.067  10.745  0.0764  0.9870 -0.3903
  102OSM   H12B10255   5.999   5.121  10.904 -1.1461 -3.0257  2.0913
  102OSM    C1110256   5.890   5.256  10.793  0.6247 -0.0529  0.6838
  102OSM   H11A10257   5.844   5.302  10.883 -0.4620 -1.1819  0.7265
  102OSM   H11B10258   5.817   5.271  10.710  1.4837 -1.8109 -0.4225
  102OSM      P10259   6.050   5.336  10.610  0.3442  0.1676  0.3683
  102OSM    O1310260   6.185   5.399  10.598 -0.3048  0.0594 -0.5280
  102OSM    O1410261   6.039   5.201  10.545  0.2631 -0.1937  0.0956
  102OSM    O1110262   5.938   5.424  10.554  0.6233 -0.1938 -0.0237
  102OSM    O1210263   6.010   5.323  10.763 -0.2365  0.2766  0.0267
  102OSM    C1S10264   5.944   5.495  10.435  0.6445  0.4255 -0.5623
  102OSM    H1S10265   6.047   5.534  10.424  1.0942 -0.6815 -0.3764
  102OSM    H1T10266   5.894   5.594  10.447 -0.4916 -0.2026  0.0486
  102OSM     NF10267   5.939   5.471  10.189 -0.1322  0.3124 -0.4022
  102OSM    HNF10268   5.872   5.506  10.123 -0.6516  0.1175  0.0149
  102OSM    C2S10269   5.889   5.415  10.311  0.4349  0.5378  0.5966
  102OSM    H2S10270   5.926   5.312  10.329  0.5406  0.4331 -0.1953
  102OSM    C3S10271   5.736   5.415  10.327 -0.2718  0.2657  0.5822
  102OSM    H3S10272   5.705   5.521  10.320 -0.0710  0.3381  0.7563
  102OSM     O310273   5.685   5.370  10.451 -0.3488  0.4161  0.4946
  102OSM    HO310274   5.763   5.370  10.506  0.2458 -2.5202 -0.2630
  102OSM    C4S10275   5.678   5.341  10.215  1.0069 -0.0312 -0.1260
  102OSM    H4S10276   5.713   5.237  10.203  0.2923 -0.1050 -1.8149
  102OSM    C5S10277   5.592   5.381  10.124 -0.7656 -0.2596 -0.2449
  102OSM    H5S10278   5.556   5.484  10.112  0.7300  0.0801 -1.9777
  102OSM    C6S10279   5.536   5.274  10.027  0.3113 -0.2839 -0.1620
  102OSM    H6S10280   5.435   5.244  10.060 -0.1574  0.9526 -0.4411
  102OSM    H6T10281   5.602   5.185  10.016  2.7785  1.6894 -1.8217
  102OSM    C7S10282   5.519   5.337   9.889  0.1728  0.0438  0.7379
  102OSM    H7S10283   5.611   5.396   9.866  0.2859 -0.1943  0.5768
  102OSM    H7T10284   5.438   5.411   9.874  0.2788 -0.2080 -1.3017
  102OSM    C8S10285   5.496   5.236   9.775  0.3748  0.3939 -0.1853
  102OSM    H8S10286   5.404   5.179   9.800  0.4989  0.7415  1.1108
  102OSM    H8T10287   5.578   5.161   9.772  0.5239  0.4349  2.1534
  102OSM    C9S10288   5.482   5.303   9.639  0.5680  0.2814  0.5344
  102OSM    H9S10289   5.569   5.362   9.603 -0.4061 -0.2055 -2.8072
  102OSM    H9T10290   5.401   5.377   9.658  1.3488  1.3656 -0.2649
  102OSM   C10S10291   5.460   5.211   9.523 -0.3897 -0.1123  0.1995
  102OSM   H10S10292   5.385   5.135   9.555 -1.5247  0.6871 -0.5002
  102OSM   H10T10293   5.560   5.165   9.508  0.4429  0.8933  2.4891
  102OSM   C11S10294   5.420   5.289   9.405  0.3186 -0.5505  0.4627
  102OSM   H11S10295   5.359   5.373   9.443  0.3111 -0.9834  1.4198
  102OSM   H11T10296   5.369   5.226   9.328 -0.7292  0.4260  0.3487
  102OSM   C12S10297   5.537   5.356   9.332 -0.1551 -0.3980 -0.2598
  102OSM   H12S10298   5.606   5.271   9.316 -0.6450 -0.7529 -0.5077
  102OSM   H12T10299   5.591   5.425   9.400  0.1282  0.1468 -1.0382
  102OSM   C13S10300   5.497   5.432   9.201 -0.1124  0.5923  0.0132
  102OSM   H13S10301   5.592   5.474   9.163 -0.1286 -2.1407 -3.3361
  102OSM   H13T10302   5.431   5.511   9.242  1.8333  1.0351  2.3865
  102OSM   C14S10303   5.442   5.342   9.097 -0.5117 -0.2060  0.4334
  102OSM   H14S10304   5.347   5.299   9.135 -0.4378 -0.0311  0.8208
  102OSM   H14T10305   5.506   5.258   9.061 -0.1221 -0.3504  1.4493
  102OSM   C15S10306   5.418   5.425   8.970 -0.2578  0.3838 -0.8313
  102OSM   H15S10307   5.516   5.419   8.916  0.4491  3.0100  0.1268
  102OSM   H15T10308   5.389   5.528   8.996  0.4278  0.5161 -0.5922
  102OSM   C16S10309   5.317   5.357   8.875  0.0034  0.1324  0.5393
  102OSM   H16S10310   5.221   5.348   8.931  0.5072  3.2369  2.0087
  102OSM   H16T10311   5.349   5.254   8.848 -0.4131 -0.2785  1.5843
  102OSM   C17S10312   5.296   5.453   8.752  0.5304  0.1699 -0.4713
  102OSM   H17S10313   5.304   5.555   8.797  0.4102 -0.2444  0.5019
  102OSM   H17T10314   5.197   5.434   8.705 -0.7384  2.1441  1.2754
  102OSM   C18S10315   5.414   5.433   8.652  0.0330 -0.3548  0.1170
  102OSM   H18S10316   5.438   5.325   8.638 -0.3748 -0.2201 -1.7647
  102OSM   H18T10317   5.502   5.480   8.700 -0.2735 -0.3953  0.7188
  102OSM   H18U10318   5.389   5.474   8.552  1.1743  1.0493  0.4017
  102OSM    C1F10319   6.064   5.487  10.153 -0.7233 -0.4505  0.4873
  102OSM     OF10320   6.157   5.438  10.221  0.6631  0.1446  0.0534
  102OSM    C2F10321   6.087   5.572  10.035 -0.1050 -0.0561 -0.2286
  102OSM    H2F10322   6.040   5.672  10.046 -0.3637 -0.3813  1.9673
  102OSM    H2G10323   6.031   5.519   9.955  0.4431 -0.7504 -0.1600
  102OSM    C3F10324   6.223   5.576   9.982 -0.4352 -0.4105  0.8142
  102OSM    H3F10325   6.239   5.467   9.966 -1.9452 -0.4316 -0.6776
  102OSM    H3G10326   6.294   5.610  10.060  0.6679  0.5144 -0.5478
  102OSM    C4F10327   6.240   5.661   9.854  0.9575  0.1366  0.6609
  102OSM    H4F10328   6.214   5.767   9.874  0.7959  0.7119 -2.3158
  102OSM    H4G10329   6.178   5.620   9.771  2.6479 -0.4049 -0.3598
  102OSM    C5F10330   6.381   5.647   9.786 -0.0963 -0.0708 -0.2955
  102OSM    H5F10331   6.405   5.539   9.788  0.2212 -0.0015 -0.3728
  102OSM    H5G10332   6.462   5.684   9.853 -0.6589 -2.4903  1.7992
  102OSM    C6F10333   6.393   5.684   9.634  0.0501 -0.0151  0.2878
  102OSM    H6F10334   6.365   5.791   9.622  0.2097 -0.2924 -3.2373
  102OSM    H6G10335   6.321   5.626   9.572  0.6085 -0.3538 -0.0485
  102OSM    C7F10336   6.539   5.660   9.581 -0.0703 -0.2141  0.4664
  102OSM    H7F10337   6.550   5.551   9.599  0.3710 -0.3770 -0.7218
  102OSM    H7G10338   6.614   5.716   9.640 -0.3038  1.3794 -0.6936
  102OSM    C8F10339   6.556   5.660   9.433  0.2203  0.3663 -0.0525
  102OSM    H8F10340   6.476   5.600   9.385  0.1207  1.3950 -1.2312
  102OSM    H8G10341   6.657   5.624   9.403 -0.1510  0.0519 -0.9632
  102OSM    C9F10342   6.553   5.804   9.375 -0.4897  0.4169  0.0939
  102OSM    H9F10343   6.643   5.861   9.401 -1.3275  1.5305  0.5873
  102OSM   C10F10344   6.450   5.860   9.318  0.8433  0.4109  0.5012
  102OSM   H10F10345   6.467   5.951   9.258  3.0556 -2.3602 -3.3039
  102OSM   C11F10346   6.319   5.790   9.293 -0.9932 -0.2743 -0.0739
  102OSM   H11F10347   6.261   5.776   9.387  2.6573  0.8451  2.4737
  102OSM   H11G10348   6.333   5.688   9.252  0.2447 -0.2223  0.1950
  102OSM   C12F10349   6.236   5.864   9.186  0.0293 -0.2569  0.7728
  102OSM   H12F10350   6.225   5.967   9.225 -2.7977 -1.4694  3.4323
  102OSM   H12G10351   6.133   5.822   9.177 -1.1351  2.7285 -0.3262
  102OSM   C13F10352   6.305   5.867   9.053 -0.2385  0.2434  0.2837
  102OSM   H13F10353   6.322   5.759   9.032 -1.2438  0.0874  0.2503
  102OSM   H13G10354   6.404   5.917   9.045 -0.9536  1.1710 -3.8699
  102OSM   C14F10355   6.209   5.928   8.942 -0.1978  0.5035  0.4885
  102OSM   H14F10356   6.205   6.038   8.959 -0.4736  0.5266  0.2617
  102OSM   H14G10357   6.103   5.898   8.958 -0.3075 -0.1755 -1.3968
  102OSM   C15F10358   6.247   5.885   8.803 -0.5985  0.0738 -0.4286
  102OSM   H15F10359   6.274   5.778   8.806 -1.0454 -0.1236 -2.5787
  102OSM   H15G10360   6.340   5.926   8.759 -0.9492  2.3406  0.8348
  102OSM   C16F10361   6.133   5.931   8.701 -0.0625  0.6835 -0.2348
  102OSM   H16F10362   6.125   6.040   8.721 -0.1162  0.7448 -0.5975
  102OSM   H16G10363   6.040   5.882   8.738  1.2689  0.4342  3.0094
  102OSM   C17F10364   6.165   5.908   8.556  0.2561 -0.0249  0.7324
  102OSM   H17F10365   6.162   5.801   8.525 -3.2865  0.4901 -1.0148
  102OSM   H17G10366   6.268   5.949   8.547  0.3890 -0.3716  0.6916
  102OSM   C18F10367   6.079   5.983   8.446  0.2416 -0.0060  0.0520
  102OSM   H18F10368   6.050   6.078   8.497 -0.1832 -1.2575  2.2377
  102OSM   H18G10369   5.987   5.925   8.422 -1.2936  2.5978 -0.4906
  102OSM   H18H10370   6.137   6.004   8.354 -1.8031  0.2916 -1.1926
  103OSM      N10371   4.478   1.643  11.144  0.2489 -0.3576 -0.4115
  103OSM    C1510372   4.429   1.778  11.175  0.0506 -0.2976 -0.2161
  103OSM   H15A10373   4.454   1.838  11.089  0.2134  3.0765  2.0901
  103OSM   H15B10374   4.497   1.819  11.248  0.7755 -0.8696 -0.5695
  103OSM   H15C10375   4.325   1.786  11.205 -0.1158  1.5552 -1.1825
  103OSM    C1410376   4.629   1.646  11.129  0.2098  0.1264  0.8954
  103OSM   H14A10377   4.676   1.550  11.140  2.5235  0.8270 -1.9991
  103OSM   H14B10378   4.677   1.701  11.208 -2.8079  0.8561  2.2959
  103OSM   H14C10379   4.659   1.701  11.040 -1.9163  1.2100  0.8043
  103OSM    C1310380   4.448   1.556  11.262 -0.7595  0.4046 -0.0748
  103OSM   H13A10381   4.494   1.593  11.353 -2.1110  2.0165 -0.0200
  103OSM   H13B10382   4.468   1.453  11.236  1.8484  1.2807 -1.7307
  103OSM   H13C10383   4.343   1.556  11.287 -1.6264  1.3795 -3.4818
  103OSM    C1210384   4.411   1.592  11.017  0.3838 -0.0081  0.7847
  103OSM   H12A10385   4.309   1.569  11.042  0.4504  0.7826  1.8153
  103OSM   H12B10386   4.452   1.494  10.996 -0.6162 -0.1841 -0.4254
  103OSM    C1110387   4.419   1.693  10.895 -0.2214 -0.0137 -0.4443
  103OSM   H11A10388   4.352   1.777  10.926  0.2160  0.8360 -1.7757
  103OSM   H11B10389   4.394   1.631  10.807 -1.5134 -1.6746  1.0415
  103OSM      P10390   4.556   1.880  10.791  0.2468 -0.0228 -0.1104
  103OSM    O1310391   4.594   1.982  10.888 -0.6597 -0.5652  0.4052
  103OSM    O1410392   4.643   1.855  10.674  0.5648 -0.5862  0.2597
  103OSM    O1110393   4.408   1.910  10.727  0.3803  0.3056  0.6080
  103OSM    O1210394   4.548   1.742  10.877  0.1277 -0.1777  0.1018
  103OSM    C1S10395   4.385   2.024  10.640  0.3117 -0.1167  0.4726
  103OSM    H1S10396   4.481   2.067  10.603 -0.2456  1.9862  1.3919
  103OSM    H1T10397   4.328   2.110  10.682 -0.6428 -0.8475  0.6722
  103OSM     NF10398   4.277   2.097  10.432  0.6252 -0.2843  0.0084
  103OSM    HNF10399   4.196   2.151  10.452  2.5965  2.9619 -0.3805
  103OSM    C2S10400   4.290   1.984  10.523 -0.0564 -0.7292  0.4835
  103OSM    H2S10401   4.340   1.898  10.473  0.7317  0.6420 -1.1489
  103OSM    C3S10402   4.153   1.926  10.578  0.5629  0.0839  0.3374
  103OSM    H3S10403   4.100   2.000  10.642  0.7540  1.0742 -0.6406
  103OSM     O310404   4.177   1.810  10.665 -0.0658  0.1341  0.0580
  103OSM    HO310405   4.273   1.803  10.668 -0.2282 -3.0490 -0.8309
  103OSM    C4S10406   4.072   1.877  10.467 -0.1188 -0.5889  0.0285
  103OSM    H4S10407   4.104   1.777  10.433 -0.8284 -0.8035 -0.0160
  103OSM    C5S10408   3.966   1.938  10.421 -0.5126 -0.2556  0.1181
  103OSM    H5S10409   3.933   2.024  10.482 -1.4170 -1.1803  0.9525
  103OSM    C6S10410   3.884   1.897  10.303  0.5155  0.3270 -0.0968
  103OSM    H6S10411   3.782   1.889  10.344  0.2047  2.3016 -0.4539
  103OSM    H6T10412   3.919   1.804  10.253 -0.3771 -1.1771  2.0205
  103OSM    C7S10413   3.890   2.009  10.195  0.2222 -0.3366  0.3272
  103OSM    H7S10414   3.851   2.109  10.225 -2.2546 -1.9037  2.5407
  103OSM    H7T10415   3.830   1.983  10.105 -0.6340  0.0448  0.7753
  103OSM    C8S10416   4.034   2.039  10.147  0.3780  1.1184  0.3919
  103OSM    H8S10417   4.079   1.941  10.119 -4.0357 -0.1214 -3.0434
  103OSM    H8T10418   4.091   2.094  10.224 -0.1111 -3.2820  4.0433
  103OSM    C9S10419   4.033   2.130  10.020  0.3339  0.5416  0.3396
  103OSM    H9S10420   4.001   2.231  10.053 -3.3353  0.1722 -1.8505
  103OSM    H9T10421   3.952   2.095   9.953 -0.4406  1.8227  0.5835
  103OSM   C10S10422   4.164   2.119   9.944  0.3116  0.5437 -0.5346
  103OSM   H10S10423   4.177   2.015   9.908 -0.2117  1.1777 -2.5960
  103OSM   H10T10424   4.244   2.151  10.014 -0.5283  0.9781  0.2434
  103OSM   C11S10425   4.176   2.207   9.817 -0.5329  0.1996 -0.2798
  103OSM   H11S10426   4.281   2.218   9.781 -0.2171 -0.6478  0.3487
  103OSM   H11T10427   4.149   2.308   9.854 -0.3875 -0.7211  2.4647
  103OSM   C12S10428   4.084   2.169   9.703  0.1627 -0.3777 -0.6077
  103OSM   H12S10429   3.982   2.181   9.744  1.2635 -1.1996  2.5209
  103OSM   H12T10430   4.108   2.063   9.680  4.0815  0.7052 -1.9176
  103OSM   C13S10431   4.093   2.254   9.573  0.0637  0.0842  0.6079
  103OSM   H13S10432   4.192   2.243   9.525  0.0141  1.5668  0.1403
  103OSM   H13T10433   4.069   2.360   9.597 -0.2783  0.6717 -2.1545
  103OSM   C14S10434   3.970   2.221   9.482 -0.6072  0.3427 -0.0234
  103OSM   H14S10435   3.873   2.250   9.529 -0.3313 -1.8137  1.9697
  103OSM   H14T10436   3.972   2.114   9.455  1.6846  1.0050 -2.7059
  103OSM   C15S10437   3.962   2.316   9.357 -0.1246  0.5999 -0.4605
  103OSM   H15S10438   4.057   2.303   9.301 -1.2328 -2.8199 -1.6865
  103OSM   H15T10439   3.946   2.420   9.392 -0.6580  0.9571 -1.7214
  103OSM   C16S10440   3.847   2.278   9.262  0.0134 -0.4233  0.1652
  103OSM   H16S10441   3.757   2.270   9.327  0.9818 -2.3753  1.3102
  103OSM   H16T10442   3.869   2.179   9.217  1.1784 -1.2508  2.4936
  103OSM   C17S10443   3.828   2.378   9.144 -0.5803 -0.6659 -0.2796
  103OSM   H17S10444   3.825   2.478   9.193 -1.3418  0.7415 -3.1270
  103OSM   H17T10445   3.725   2.353   9.111 -0.0657  0.2266 -2.6437
  103OSM   C18S10446   3.937   2.372   9.034 -0.0579 -0.3983 -0.2519
  103OSM   H18S10447   4.034   2.394   9.084  1.1990 -2.8915 -1.5148
  103OSM   H18T10448   3.907   2.433   8.946 -0.8377 -0.4381 -0.0124
  103OSM   H18U10449   3.946   2.268   8.996 -0.8625 -0.9202  0.9820
  103OSM    C1F10450   4.387   2.130  10.359 -0.1234 -0.0472  0.0483
  103OSM     OF10451   4.481   2.052  10.360 -0.6457  0.1180  0.5992
  103OSM    C2F10452   4.388   2.249  10.279  0.4574 -0.4460 -0.3564
  103OSM    H2F10453   4.368   2.332  10.351 -1.3669 -0.5477 -0.7024
  103OSM    H2G10454   4.296   2.256  10.216  1.1691 -1.2119 -1.5030
  103OSM    C3F10455   4.503   2.267  10.185 -0.9308  0.3793  0.0011
  103OSM    H3F10456   4.498   2.190  10.105 -0.2859 -0.8475  1.1161
  103OSM    H3G10457   4.597   2.249  10.241 -1.0416  0.8353  0.3299
  103OSM    C4F10458   4.517   2.399  10.113  0.1814 -0.1468  0.6023
  103OSM    H4F10459   4.614   2.392  10.060 -0.7376 -0.2245 -1.1163
  103OSM    H4G10460   4.530   2.483  10.185 -0.5699 -2.0166  3.0136
  103OSM    C5F10461   4.410   2.423  10.003 -0.3102  0.2795 -0.0698
  103OSM    H5F10462   4.310   2.423  10.051 -0.3818 -0.3100 -0.2242
  103OSM    H5G10463   4.412   2.338   9.932 -1.0257 -2.1038  2.7075
  103OSM    C6F10464   4.434   2.559   9.938  0.0242 -0.9961 -0.4130
  103OSM    H6F10465   4.453   2.626  10.024 -0.2869 -0.9580 -0.3710
  103OSM    H6G10466   4.333   2.579   9.896  0.2731 -0.7563 -0.9113
  103OSM    C7F10467   4.543   2.583   9.840  0.5126  0.1245 -0.4678
  103OSM    H7F10468   4.638   2.552   9.890  0.8959 -0.9711 -1.8452
  103OSM    H7G10469   4.547   2.693   9.824  1.0860  0.3439  1.0300
  103OSM    C8F10470   4.536   2.504   9.706  0.3424  0.4142 -0.2017
  103OSM    H8F10471   4.535   2.396   9.728  1.2918 -0.2580 -3.1714
  103OSM    H8G10472   4.630   2.513   9.648 -0.0234  2.2367 -0.5669
  103OSM    C9F10473   4.426   2.553   9.621 -0.3410  0.6698 -0.2029
  103OSM    H9F10474   4.328   2.513   9.652  0.4071  0.1152  1.4710
  103OSM   C10F10475   4.426   2.620   9.503 -0.1947 -0.1650 -0.7056
  103OSM   H10F10476   4.335   2.634   9.443  0.9204  1.1811 -2.1245
  103OSM   C11F10477   4.559   2.659   9.429 -0.1867 -0.4836 -0.0097
  103OSM   H11F10478   4.639   2.589   9.461 -0.2684 -1.5576 -2.1021
  103OSM   H11G10479   4.598   2.762   9.446 -1.8527  0.2151 -0.3504
  103OSM   C12F10480   4.536   2.621   9.276  0.3845  0.1724  0.1532
  103OSM   H12F10481   4.509   2.513   9.275  1.1814 -0.0250 -1.5627
  103OSM   H12G10482   4.639   2.638   9.239 -0.5267 -0.8309 -2.9564
  103OSM   C13F10483   4.440   2.711   9.201  0.2080  0.2651 -0.5837
  103OSM   H13F10484   4.459   2.819   9.221 -1.1370  0.7771 -2.0019
  103OSM   H13G10485   4.337   2.697   9.239  0.3346  2.5808  0.7451
  103OSM   C14F10486   4.434   2.679   9.051 -0.0550 -0.2228  0.3802
  103OSM   H14F10487   4.531   2.710   9.008  1.3448 -1.2424  2.7579
  103OSM   H14G10488   4.348   2.736   9.009 -1.4159  0.6105  4.1483
  103OSM   C15F10489   4.422   2.529   9.012 -0.0945  0.5826  0.1873
  103OSM   H15F10490   4.340   2.485   9.072  0.5683 -0.3010  0.4459
  103OSM   H15G10491   4.523   2.487   9.030  0.8412  2.6448 -0.0614
  103OSM   C16F10492   4.376   2.510   8.863 -0.2486  0.0233  0.7769
  103OSM   H16F10493   4.454   2.552   8.797  2.0135 -3.0125  1.3900
  103OSM   H16G10494   4.277   2.560   8.855  0.1888  0.6524 -0.8472
  103OSM   C17F10495   4.362   2.364   8.826  0.2054  0.3457  0.7809
  103OSM   H17F10496   4.285   2.322   8.894  1.2044 -3.2398 -0.1854
  103OSM   H17G10497   4.456   2.308   8.837  0.2170  0.0805 -0.5809
  103OSM   C18F10498   4.314   2.325   8.683  0.4024 -0.0457  0.1108
  103OSM   H18F10499   4.371   2.369   8.597  1.6988 -1.3279  0.2974
  103OSM   H18G10500   4.204   2.337   8.679 -0.0107 -2.4967  2.7125
  103OSM   H18H10501   4.318   2.218   8.656 -0.6734  0.1196 -0.7248
  104OSM      N10502   6.436   0.389  11.118  0.2721 -0.4621 -0.5679
  104OSM    C1510503   6.528   0.279  11.135 -0.4110 -0.1151  1.4122
  104OSM   H15A10504   6.625   0.302  11.093 -1.2124 -1.5065 -1.3234
  104OSM   H15B10505   6.492   0.190  11.086  1.0592  0.1959 -0.2790
  104OSM   H15C10506   6.535   0.260  11.241  1.4046 -2.4832  0.9123
  104OSM    C1410507   6.295   0.343  11.150 -0.8247  0.1276 -0.4599
  104OSM   H14A10508   6.235   0.433  11.147 -2.4902 -0.8670  1.5179
  104OSM   H14B10509   6.276   0.303  11.249 -1.7762  0.0782 -0.6547
  104OSM   H14C10510   6.263   0.275  11.073 -0.9285 -2.0864  1.4792
  104OSM    C1310511   6.475   0.501  11.211  1.0865 -0.1434  0.1776
  104OSM   H13A10512   6.467   0.470  11.314 -0.5921  1.5853  0.6112
  104OSM   H13B10513   6.419   0.593  11.199 -0.6981 -1.0585  1.2363
  104OSM   H13C10514   6.579   0.520  11.192  0.5411 -0.3709 -3.4115
  104OSM    C1210515   6.441   0.437  10.976 -0.0940  0.2659  0.7174
  104OSM   H12A10516   6.538   0.482  10.960 -0.2514  0.4431  0.2643
  104OSM   H12B10517   6.373   0.520  10.965 -2.3784 -1.0625  3.8127
  104OSM    C1110518   6.429   0.332  10.870  0.4263  0.4120 -0.5365
  104OSM   H11A10519   6.512   0.259  10.882  0.4099  0.1202 -2.0540
  104OSM   H11B10520   6.461   0.379  10.775  0.2036  0.2374 -0.7015
  104OSM      P10521   6.179   0.349  10.797  0.1183 -0.1411  0.0799
  104OSM    O1310522   6.055   0.278  10.835 -1.0400  0.0812 -0.0458
  104OSM    O1410523   6.181   0.494  10.823  0.3501  0.0947  0.1544
  104OSM    O1110524   6.200   0.325  10.645  0.4662 -0.0387  0.4633
  104OSM    O1210525   6.297   0.276  10.860 -0.1170  0.3261  0.0725
  104OSM    C1S10526   6.094   0.366  10.558 -0.7294 -0.0044  0.1134
  104OSM    H1S10527   5.989   0.369  10.594 -0.7070 -1.8552  0.3885
  104OSM    H1T10528   6.089   0.280  10.488  1.3154 -0.3932  0.4137
  104OSM     NF10529   6.046   0.534  10.378 -0.0898  0.2351  0.1299
  104OSM    HNF10530   6.050   0.484  10.292 -0.9935  0.2648  0.0624
  104OSM    C2S10531   6.147   0.485  10.471  0.3389  0.7289  0.3614
  104OSM    H2S10532   6.178   0.565  10.541  2.2697  1.2813 -1.0676
  104OSM    C3S10533   6.288   0.448  10.401  0.4107 -0.0759  0.1086
  104OSM    H3S10534   6.272   0.365  10.329  1.3095  0.5572 -0.8496
  104OSM     O310535   6.399   0.398  10.475 -0.2132 -0.6721  0.6143
  104OSM    HO310536   6.361   0.357  10.553  1.0124 -0.7152  1.1945
  104OSM    C4S10537   6.338   0.571  10.336 -0.6121  0.1310  0.4950
  104OSM    H4S10538   6.388   0.638  10.407  1.2972  0.7039 -1.3381
  104OSM    C5S10539   6.318   0.610  10.205 -0.0297 -0.4906  0.3491
  104OSM    H5S10540   6.260   0.548  10.135 -0.2220 -0.3218  0.3577
  104OSM    C6S10541   6.351   0.740  10.149  0.5817 -0.2565  0.2025
  104OSM    H6S10542   6.443   0.742  10.086  0.2083 -0.7563 -0.3649
  104OSM    H6T10543   6.370   0.823  10.220  2.3588 -1.2681  0.9612
  104OSM    C7S10544   6.240   0.804  10.061 -0.2725  0.6004  0.0221
  104OSM    H7S10545   6.290   0.887  10.006  1.8560 -0.0097  1.0022
  104OSM    H7T10546   6.162   0.840  10.131 -3.3296 -0.8516 -2.4538
  104OSM    C8S10547   6.180   0.713   9.955 -0.0826 -0.4620 -0.0827
  104OSM    H8S10548   6.131   0.770   9.873 -2.6551 -1.6416  0.5671
  104OSM    H8T10549   6.094   0.667  10.008  0.0666  1.9702  2.3606
  104OSM    C9S10550   6.276   0.634   9.869  0.4370  0.3275 -1.4387
  104OSM    H9S10551   6.218   0.563   9.807 -2.1174  0.0636  1.2079
  104OSM    H9T10552   6.335   0.562   9.929  0.6248  1.7448  0.1328
  104OSM   C10S10553   6.374   0.706   9.773  0.2524 -0.1303  0.0196
  104OSM   H10S10554   6.403   0.643   9.687  1.4294  3.0950 -2.0100
  104OSM   H10T10555   6.463   0.731   9.835 -0.4394 -1.3126  1.5448
  104OSM   C11S10556   6.327   0.838   9.705  0.1092 -0.1961  1.1285
  104OSM   H11S10557   6.319   0.927   9.772 -0.7585  2.3316 -2.2005
  104OSM   H11T10558   6.229   0.823   9.654  0.1755  1.7048  0.4037
  104OSM   C12S10559   6.420   0.884   9.592  0.2436 -0.5561 -0.7090
  104OSM   H12S10560   6.526   0.881   9.626  1.1019  0.2945 -3.1636
  104OSM   H12T10561   6.385   0.988   9.575 -1.5668 -0.8463  1.1140
  104OSM   C13S10562   6.410   0.803   9.455 -0.3044  1.1173 -0.0353
  104OSM   H13S10563   6.306   0.775   9.428  0.0625  3.6581 -4.4604
  104OSM   H13T10564   6.457   0.703   9.463 -2.6946 -0.1861 -1.7330
  104OSM   C14S10565   6.470   0.876   9.336 -0.2681 -0.3762 -0.5973
  104OSM   H14S10566   6.562   0.930   9.369  1.2097 -2.5480 -1.0693
  104OSM   H14T10567   6.387   0.950   9.328  0.9490  1.3632  1.9560
  104OSM   C15S10568   6.502   0.809   9.201 -0.3036 -0.4014 -0.1352
  104OSM   H15S10569   6.417   0.742   9.177 -0.8735  0.6134 -1.0185
  104OSM   H15T10570   6.596   0.752   9.216  2.1090  3.4949  0.2784
  104OSM   C16S10571   6.506   0.909   9.082  0.8756  0.2429 -0.1540
  104OSM   H16S10572   6.583   0.987   9.099 -2.8458  4.0049  0.0779
  104OSM   H16T10573   6.404   0.944   9.056  1.0737  0.6347 -0.4076
  104OSM   C17S10574   6.562   0.838   8.959  0.8426 -0.1073 -0.0295
  104OSM   H17S10575   6.537   0.730   8.952  1.4183 -0.1777 -1.1288
  104OSM   H17T10576   6.671   0.850   8.973  0.8165  0.7776 -0.5507
  104OSM   C18S10577   6.508   0.901   8.837  0.2295 -0.2147  0.3241
  104OSM   H18S10578   6.433   0.834   8.788  2.8358 -1.1970 -2.4731
  104OSM   H18T10579   6.581   0.920   8.755  2.2110 -0.8887  1.9075
  104OSM   H18U10580   6.463   1.001   8.857  3.1727  1.0670  0.6841
  104OSM    C1F10581   5.936   0.593  10.432 -0.3976  0.2708  0.1715
  104OSM     OF10582   5.933   0.610  10.550  0.1200 -0.0278 -0.1285
  104OSM    C2F10583   5.819   0.629  10.341 -0.0212  0.2949  0.0519
  104OSM    H2F10584   5.729   0.620  10.406 -0.4761 -2.1237 -0.8521
  104OSM    H2G10585   5.815   0.558  10.256  1.8259  1.8436 -1.3578
  104OSM    C3F10586   5.847   0.770  10.279  0.0642  0.4216  0.1537
  104OSM    H3F10587   5.957   0.774  10.262 -0.0094  2.4905  0.0721
  104OSM    H3G10588   5.827   0.848  10.356 -0.5904 -1.6937  2.1959
  104OSM    C4F10589   5.757   0.811  10.159 -0.2739  0.0373 -0.6751
  104OSM    H4F10590   5.752   0.922  10.150  0.2258  0.0668 -0.6232
  104OSM    H4G10591   5.654   0.773  10.175  0.1179  0.1116  2.1780
  104OSM    C5F10592   5.821   0.767  10.027 -0.0393 -0.1824  0.0799
  104OSM    H5F10593   5.833   0.657  10.017  1.1010 -0.3932  3.1364
  104OSM    H5G10594   5.929   0.789  10.034  0.1517 -1.4104  1.2274
  104OSM    C6F10595   5.762   0.836   9.900  0.4007  0.1009 -0.1157
  104OSM    H6F10596   5.788   0.944   9.900 -0.9821  0.4412 -0.0747
  104OSM    H6G10597   5.651   0.835   9.910  0.4598 -0.7612  0.5594
  104OSM    C7F10598   5.814   0.774   9.770  0.4012 -0.3750 -0.1758
  104OSM    H7F10599   5.773   0.671   9.774  1.3029 -0.7331 -0.1247
  104OSM    H7G10600   5.925   0.776   9.759  0.3721 -0.0531 -0.4372
  104OSM    C8F10601   5.770   0.856   9.645 -0.0848  1.1596  0.2983
  104OSM    H8F10602   5.850   0.929   9.620 -0.1528  1.0026 -0.3973
  104OSM    H8G10603   5.682   0.915   9.679 -0.6986 -0.6526  1.9238
  104OSM    C9F10604   5.735   0.768   9.519  0.5440  0.4953 -0.6988
  104OSM    H9F10605   5.628   0.744   9.519  0.2557  1.7696  0.2529
  104OSM   C10F10606   5.817   0.737   9.420  0.3929  0.6937 -0.1660
  104OSM   H10F10607   5.788   0.674   9.335  1.0695 -0.4851  0.4643
  104OSM   C11F10608   5.967   0.782   9.430  0.1532 -0.0302  0.1512
  104OSM   H11F10609   6.023   0.696   9.475  0.8212  0.8611  1.0365
  104OSM   H11G10610   5.993   0.852   9.512 -0.5338  0.1618  0.2051
  104OSM   C12F10611   6.029   0.847   9.305 -0.2108  0.0929 -0.9338
  104OSM   H12F10612   6.124   0.903   9.323  0.5821 -2.0076  1.8170
  104OSM   H12G10613   5.949   0.908   9.257 -0.9264  0.6223  0.9184
  104OSM   C13F10614   6.070   0.741   9.201 -0.2619 -0.4781  0.2550
  104OSM   H13F10615   5.972   0.691   9.184 -0.9260 -0.2103  3.1073
  104OSM   H13G10616   6.143   0.669   9.243  0.2811 -0.6552 -0.9566
  104OSM   C14F10617   6.123   0.794   9.071 -0.2740 -0.0714 -0.5426
  104OSM   H14F10618   6.215   0.854   9.084 -0.0667 -0.8953  2.0692
  104OSM   H14G10619   6.049   0.868   9.032  0.1652  0.6066 -0.0934
  104OSM   C15F10620   6.143   0.679   8.969  0.3400  0.9625 -0.0671
  104OSM   H15F10621   6.084   0.592   9.002 -1.2010  2.7301  1.9759
  104OSM   H15G10622   6.252   0.658   8.977  0.1612 -0.0020 -0.1952
  104OSM   C16F10623   6.114   0.718   8.826 -0.6046 -0.4919 -0.1475
  104OSM   H16F10624   6.189   0.789   8.784 -0.4933 -1.7699 -2.2116
  104OSM   H16G10625   6.012   0.762   8.833  0.2024  1.4797 -0.5044
  104OSM   C17F10626   6.101   0.603   8.721 -0.5812  0.2657  0.4197
  104OSM   H17F10627   6.018   0.547   8.770 -1.6079  1.9674  0.6687
  104OSM   H17G10628   6.194   0.544   8.732  0.3865  1.0068 -3.0878
  104OSM   C18F10629   6.069   0.634   8.580 -0.2291  0.6103 -0.7532
  104OSM   H18F10630   5.982   0.702   8.590 -0.8737 -0.5479  1.7418
  104OSM   H18G10631   6.042   0.542   8.523  0.4861 -0.5408  0.7412
  104OSM   H18H10632   6.150   0.689   8.528  0.8128 -0.5810 -0.3946
  105OSM      N10633   2.424   4.413  10.898 -0.1292  0.6525  0.2900
  105OSM    C1510634   2.379   4.541  10.961 -0.4306 -0.8465  0.0674
  105OSM   H15A10635   2.450   4.618  10.933 -2.0675  0.2557 -1.0852
  105OSM   H15B10636   2.389   4.532  11.068  2.5144  1.2652  0.0332
  105OSM   H15C10637   2.282   4.577  10.930 -0.0645 -0.1173 -0.2439
  105OSM    C1410638   2.332   4.305  10.956  0.2527 -0.0868  0.1384
  105OSM   H14A10639   2.228   4.311  10.927  0.3959 -0.2521 -0.4237
  105OSM   H14B10640   2.329   4.308  11.064 -0.2198 -1.6718  0.1732
  105OSM   H14C10641   2.361   4.204  10.930  2.9542  0.2045  1.8132
  105OSM    C1310642   2.394   4.425  10.753 -0.5555  0.0666 -0.7358
  105OSM   H13A10643   2.401   4.330  10.702 -0.1247 -0.9961  1.2587
  105OSM   H13B10644   2.448   4.500  10.697 -0.3750  0.0216 -0.6208
  105OSM   H13C10645   2.292   4.459  10.739  0.1919  3.3166  1.0824
  105OSM    C1210646   2.575   4.400  10.919 -0.2075  0.8688  0.1337
  105OSM   H12A10647   2.595   4.419  11.024 -0.1665  1.6913 -0.0246
  105OSM   H12B10648   2.628   4.469  10.856 -1.8452  0.5602 -1.6102
  105OSM    C1110649   2.638   4.258  10.886  0.0477  0.0055  0.0472
  105OSM   H11A10650   2.740   4.275  10.926 -0.6444  0.0645  1.8575
  105OSM   H11B10651   2.643   4.238  10.777  0.0765  0.5328 -0.0499
  105OSM      P10652   2.624   4.002  10.936 -0.2647  0.2339  0.0350
  105OSM    O1310653   2.768   4.005  10.972  0.1125  0.2744  0.3826
  105OSM    O1410654   2.530   3.908  10.999 -0.3677  0.4553  0.6103
  105OSM    O1110655   2.613   3.987  10.777  0.0422 -0.0971 -0.9312
  105OSM    O1210656   2.580   4.154  10.965 -0.4187 -0.2446  0.2863
  105OSM    C1S10657   2.487   3.994  10.712  0.2561  0.2487  0.1824
  105OSM    H1S10658   2.448   4.098  10.713 -0.2948  0.0435  1.0957
  105OSM    H1T10659   2.407   3.942  10.769 -0.1006  2.2867  1.5787
  105OSM     NF10660   2.382   4.015  10.480  0.2614  0.3489 -0.3256
  105OSM    HNF10661   2.295   3.966  10.474 -1.1713  2.5528  1.6233
  105OSM    C2S10662   2.487   3.946  10.564 -0.1177  0.2611  0.7528
  105OSM    H2S10663   2.583   3.963  10.510 -1.0285 -1.4694 -1.5316
  105OSM    C3S10664   2.469   3.788  10.573  0.1883  0.0307 -0.9486
  105OSM    H3S10665   2.371   3.770  10.623  0.8380 -1.2396 -0.1152
  105OSM     O310666   2.569   3.724  10.655  0.1200 -0.3879 -0.4639
  105OSM    HO310667   2.623   3.792  10.697 -0.7231 -0.3944  0.6812
  105OSM    C4S10668   2.464   3.717  10.435 -0.7123 -0.2478  0.0867
  105OSM    H4S10669   2.365   3.736  10.391  0.2667 -0.8312 -2.4357
  105OSM    C5S10670   2.563   3.641  10.372 -0.1142  0.2136 -0.2788
  105OSM    H5S10671   2.654   3.613  10.427 -1.1245  1.3877  2.0637
  105OSM    C6S10672   2.555   3.578  10.239 -0.4319  0.1598 -0.3195
  105OSM    H6S10673   2.574   3.468  10.247 -1.4950 -0.2051 -2.4352
  105OSM    H6T10674   2.628   3.623  10.169  0.3302  2.2407  1.7333
  105OSM    C7S10675   2.426   3.610  10.159 -0.1476  0.1799  0.4769
  105OSM    H7S10676   2.418   3.720  10.163  1.9214  0.5090 -2.5319
  105OSM    H7T10677   2.334   3.559  10.197 -0.3620 -0.2220 -0.5381
  105OSM    C8S10678   2.436   3.587  10.010  0.1154 -0.6495 -0.5373
  105OSM    H8S10679   2.329   3.597   9.982 -0.2732 -1.8635  0.4867
  105OSM    H8T10680   2.482   3.490   9.981  2.1811  0.6215 -1.7043
  105OSM    C9S10681   2.504   3.699   9.923  0.0187 -0.4454  0.5997
  105OSM    H9S10682   2.601   3.722   9.973 -0.7335 -0.2982  2.0027
  105OSM    H9T10683   2.450   3.795   9.914 -0.9396 -0.9334  1.1164
  105OSM   C10S10684   2.541   3.663   9.777 -0.4361  0.1579 -0.1111
  105OSM   H10S10685   2.572   3.757   9.726  0.2549 -0.8948 -1.6570
  105OSM   H10T10686   2.465   3.607   9.720  0.1171  0.5424 -1.2377
  105OSM   C11S10687   2.679   3.584   9.781  0.0811  0.3403 -0.4650
  105OSM   H11S10688   2.665   3.485   9.830  0.2644  0.4789 -0.1303
  105OSM   H11T10689   2.743   3.662   9.826 -0.9378  0.4984  0.7446
  105OSM   C12S10690   2.731   3.557   9.639  0.0690  0.4431 -0.1207
  105OSM   H12S10691   2.816   3.488   9.657 -1.2700 -1.3204 -0.4961
  105OSM   H12T10692   2.777   3.648   9.595  0.1423  0.1411 -0.6697
  105OSM   C13S10693   2.621   3.487   9.548  0.0582  0.1534  0.4538
  105OSM   H13S10694   2.530   3.550   9.542 -0.8876 -1.1429  0.8919
  105OSM   H13T10695   2.603   3.384   9.585 -0.2712 -0.6321 -1.8049
  105OSM   C14S10696   2.672   3.462   9.404 -1.0121 -0.2231  0.6715
  105OSM   H14S10697   2.594   3.406   9.349 -0.4107 -0.5481  0.1387
  105OSM   H14T10698   2.766   3.402   9.405 -2.1794 -2.0841  0.8585
  105OSM   C15S10699   2.709   3.592   9.330 -0.5242 -0.0075  0.1845
  105OSM   H15S10700   2.783   3.650   9.391 -2.6202  1.1462  1.6929
  105OSM   H15T10701   2.618   3.655   9.322  0.3422  1.2875  0.2465
  105OSM   C16S10702   2.747   3.575   9.181 -0.0086  0.0886 -0.6272
  105OSM   H16S10703   2.777   3.675   9.143 -1.1493  0.8293  0.3717
  105OSM   H16T10704   2.659   3.537   9.124 -0.9530 -0.2462  1.0162
  105OSM   C17S10705   2.860   3.471   9.166 -0.2797  0.2299 -0.0601
  105OSM   H17S10706   2.816   3.375   9.200 -1.2189  0.3887 -0.7812
  105OSM   H17T10707   2.946   3.508   9.225  0.3941  0.9586 -1.4830
  105OSM   C18S10708   2.898   3.446   9.024  0.1774 -0.5955  0.5063
  105OSM   H18S10709   2.813   3.459   8.954 -0.0905  0.1213  0.9530
  105OSM   H18T10710   2.930   3.341   9.007 -0.9768 -1.0002  0.7396
  105OSM   H18U10711   2.984   3.510   8.996 -0.0862  0.3133  1.6931
  105OSM    C1F10712   2.392   4.148  10.456  1.0252 -0.5728 -0.0364
  105OSM     OF10713   2.500   4.201  10.469 -0.7484  0.4697 -0.2081
  105OSM    C2F10714   2.264   4.213  10.409  0.7254  0.4605 -0.7279
  105OSM    H2F10715   2.261   4.309  10.465 -0.7244 -0.1009  0.1833
  105OSM    H2G10716   2.181   4.143  10.435 -1.2114  2.2776 -1.8713
  105OSM    C3F10717   2.252   4.244  10.259 -0.1617 -0.1734 -0.1877
  105OSM    H3F10718   2.346   4.302  10.243  0.5837 -1.4416 -0.4432
  105OSM    H3G10719   2.155   4.296  10.240 -0.3760  0.2022  1.7805
  105OSM    C4F10720   2.256   4.131  10.153  0.2140  0.2786 -0.3584
  105OSM    H4F10721   2.341   4.061  10.169  1.5059  1.8402 -0.3210
  105OSM    H4G10722   2.255   4.161  10.047 -1.9752 -2.1130 -1.0819
  105OSM    C5F10723   2.125   4.048  10.163  0.2044 -0.6807  0.3722
  105OSM    H5F10724   2.039   4.113  10.190 -0.3645 -0.7329 -1.2471
  105OSM    H5G10725   2.133   3.969  10.241 -3.5796 -1.4863  0.0364
  105OSM    C6F10726   2.098   3.984  10.021  0.3393  0.3838 -0.3335
  105OSM    H6F10727   2.062   4.060   9.948  0.5741 -2.0350 -3.0631
  105OSM    H6G10728   2.017   3.910  10.037  2.5003 -1.6261  1.7401
  105OSM    C7F10729   2.222   3.910   9.962  0.1881  0.2587 -0.1523
  105OSM    H7F10730   2.253   3.837  10.040  1.5137  1.4847  0.4806
  105OSM    H7G10731   2.309   3.977   9.947  1.1037 -1.2926 -1.9274
  105OSM    C8F10732   2.180   3.842   9.833 -0.3729  0.5214  0.7818
  105OSM    H8F10733   2.096   3.771   9.847 -0.6828  0.8514  0.5790
  105OSM    H8G10734   2.267   3.778   9.804  0.3903  1.7626  0.2944
  105OSM    C9F10735   2.153   3.932   9.714  0.1741 -0.8215 -1.1894
  105OSM    H9F10736   2.068   4.001   9.717  1.7027  1.0628  2.4244
  105OSM   C10F10737   2.222   3.945   9.601 -0.7158 -0.2009 -0.0270
  105OSM   H10F10738   2.190   4.012   9.521 -2.2376  0.2464  0.9321
  105OSM   C11F10739   2.349   3.863   9.573  0.0075 -0.0327 -0.3026
  105OSM   H11F10740   2.337   3.753   9.580 -1.2223  0.0532 -0.8975
  105OSM   H11G10741   2.426   3.891   9.648  1.1077 -2.7984 -0.3404
  105OSM   C12F10742   2.401   3.895   9.433 -0.1815  0.3622  0.7298
  105OSM   H12F10743   2.492   3.833   9.424 -0.1297  0.6991 -1.2071
  105OSM   H12G10744   2.436   3.999   9.416  1.0602 -0.2285 -0.3304
  105OSM   C13F10745   2.306   3.856   9.322 -0.0192  0.1757  1.3026
  105OSM   H13F10746   2.211   3.914   9.331 -0.2056  0.2077 -0.6324
  105OSM   H13G10747   2.285   3.747   9.326 -0.3045  0.1212 -1.0824
  105OSM   C14F10748   2.364   3.876   9.182  0.0545  1.0134 -0.1578
  105OSM   H14F10749   2.461   3.823   9.176 -0.1168  0.5236  1.2543
  105OSM   H14G10750   2.385   3.982   9.157 -0.1618  0.8217 -1.1763
  105OSM   C15F10751   2.282   3.808   9.072  0.3881  0.2023 -0.9134
  105OSM   H15F10752   2.175   3.819   9.102  0.3128 -2.2576 -0.1246
  105OSM   H15G10753   2.297   3.698   9.062  1.0766  0.0980  1.0753
  105OSM   C16F10754   2.294   3.872   8.930 -0.5382 -0.0665  0.0010
  105OSM   H16F10755   2.263   3.979   8.927  0.0064  0.0805 -0.5471
  105OSM   H16G10756   2.218   3.825   8.863 -1.3456  2.2150 -0.7551
  105OSM   C17F10757   2.424   3.826   8.872 -0.6801  0.3582 -0.2827
  105OSM   H17F10758   2.428   3.715   8.862 -1.7106  0.2822  0.0454
  105OSM   H17G10759   2.508   3.849   8.940  0.9748  1.6048 -2.6806
  105OSM   C18F10760   2.459   3.897   8.738  0.3080 -0.4287  0.1936
  105OSM   H18F10761   2.396   3.855   8.657 -0.6413  0.6322  0.3605
  105OSM   H18G10762   2.565   3.885   8.710  0.1933 -0.0976 -0.3780
  105OSM   H18H10763   2.433   4.005   8.735  1.9077 -0.0819 -2.1487
  106OSM      N10764   0.960   3.590  10.788  0.4725  0.0545  0.0616
  106OSM    C1510765   0.919   3.516  10.662  0.0443  0.3111 -0.1057
  106OSM   H15A10766   0.997   3.449  10.629 -2.6541 -2.9698  0.0298
  106OSM   H15B10767   0.903   3.588  10.583  0.9525  0.2950 -0.3074
  106OSM   H15C10768   0.825   3.464  10.668 -0.2300  0.7107 -0.8781
  106OSM    C1410769   1.057   3.693  10.752  0.2957 -0.0491  0.3815
  106OSM   H14A10770   1.096   3.742  10.840 -0.5952  3.1932 -0.9581
  106OSM   H14B10771   1.017   3.763  10.681  1.9543  1.2264  0.7072
  106OSM   H14C10772   1.148   3.652  10.711 -0.2687 -2.3944  1.3309
  106OSM    C1310773   0.834   3.659  10.827 -0.0198  0.6676  0.0210
  106OSM   H13A10774   0.788   3.708  10.742  2.2088  1.9711 -0.4905
  106OSM   H13B10775   0.856   3.739  10.896 -1.0734  1.1642 -0.2002
  106OSM   H13C10776   0.768   3.586  10.870 -0.9682  1.5252  0.0570
  106OSM    C1210777   1.017   3.490  10.892 -0.5897  0.0243  0.1004
  106OSM   H12A10778   0.942   3.414  10.910 -0.5606  0.3915  1.8915
  106OSM   H12B10779   1.016   3.538  10.989 -0.5821 -2.0803  1.1645
  106OSM    C1110780   1.158   3.423  10.876  0.2884  0.5416  0.2671
  106OSM   H11A10781   1.168   3.360  10.967 -0.0262  2.0906  1.3848
  106OSM   H11B10782   1.237   3.501  10.882  2.4422 -1.4111 -1.6515
  106OSM      P10783   1.286   3.321  10.670  0.0376  0.0286 -0.0003
  106OSM    O1310784   1.413   3.329  10.743 -0.0507  0.3238  0.1215
  106OSM    O1410785   1.268   3.191  10.609 -0.0063 -0.5277 -0.4711
  106OSM    O1110786   1.273   3.444  10.571 -0.2664 -0.1027 -0.6369
  106OSM    O1210787   1.161   3.346  10.763 -1.1894 -0.3383  0.5296
  106OSM    C1S10788   1.330   3.435  10.440 -0.3421  0.5431  0.2866
  106OSM    H1S10789   1.287   3.357  10.374  0.0197  0.5715  0.0151
  106OSM    H1T10790   1.439   3.419  10.429 -0.2575  1.1984  0.1454
  106OSM     NF10791   1.358   3.576  10.240  0.2996 -0.0254 -0.2691
  106OSM    HNF10792   1.455   3.593  10.226  0.5632 -1.1760  0.1255
  106OSM    C2S10793   1.313   3.581  10.375  0.1642  0.3083 -0.2827
  106OSM    H2S10794   1.206   3.608  10.387  0.1842  0.6785 -0.9060
  106OSM    C3S10795   1.387   3.693  10.455  0.7780 -1.3593 -0.9909
  106OSM    H3S10796   1.496   3.671  10.459  0.8110 -0.9194  3.1322
  106OSM     O310797   1.345   3.691  10.589 -0.1555  0.3775  0.0968
  106OSM    HO310798   1.321   3.599  10.593  1.9125 -0.1380  1.3197
  106OSM    C4S10799   1.344   3.819  10.400  0.2936 -0.1954  0.0045
  106OSM    H4S10800   1.238   3.843  10.418  0.4236  1.1107 -0.9630
  106OSM    C5S10801   1.422   3.907  10.334 -0.2016  0.1391  0.9985
  106OSM    H5S10802   1.531   3.890  10.337 -0.3486 -1.0212  0.0639
  106OSM    C6S10803   1.369   4.042  10.282  0.0754 -0.3116 -0.7324
  106OSM    H6S10804   1.430   4.125  10.325  1.6970 -1.9840  0.3202
  106OSM    H6T10805   1.261   4.059  10.300  0.1874  1.1080 -1.3582
  106OSM    C7S10806   1.395   4.044  10.129 -0.2342 -0.1181  0.5532
  106OSM    H7S10807   1.324   3.969  10.090 -3.1038  2.2096  1.1141
  106OSM    H7T10808   1.501   4.010  10.119  0.9677  3.9805 -2.3137
  106OSM    C8S10809   1.381   4.183  10.057  0.0565  0.2616 -0.2059
  106OSM    H8S10810   1.442   4.256  10.115  0.8178  0.7251 -1.5478
  106OSM    H8T10811   1.284   4.237  10.064  0.2794  0.7408 -0.7426
  106OSM    C9S10812   1.427   4.184   9.907  0.8405 -0.3387 -0.2431
  106OSM    H9S10813   1.374   4.098   9.861  2.7732 -1.1880 -0.9382
  106OSM    H9T10814   1.537   4.171   9.896  0.6321 -0.9708 -1.5704
  106OSM   C10S10815   1.368   4.308   9.835 -0.6669 -0.4034 -0.1747
  106OSM   H10S10816   1.416   4.393   9.887  1.5261 -0.4713 -2.0068
  106OSM   H10T10817   1.257   4.318   9.845 -0.7655 -1.5110 -0.1139
  106OSM   C11S10818   1.405   4.307   9.688  0.9079  0.4727 -0.2926
  106OSM   H11S10819   1.388   4.206   9.644  0.8431  1.7830 -3.3831
  106OSM   H11T10820   1.512   4.329   9.672  0.4042  2.1906 -1.4989
  106OSM   C12S10821   1.320   4.410   9.611 -0.2372 -1.5107 -0.2777
  106OSM   H12S10822   1.370   4.508   9.624 -1.5316 -1.1753  2.5766
  106OSM   H12T10823   1.213   4.409   9.643 -0.2001  0.8421 -0.0560
  106OSM   C13S10824   1.324   4.384   9.458 -0.0379  0.4750 -0.5712
  106OSM   H13S10825   1.269   4.288   9.446 -0.5825  0.7355 -0.1971
  106OSM   H13T10826   1.431   4.377   9.428  0.4997  2.8565  0.6162
  106OSM   C14S10827   1.258   4.499   9.376  0.5019  0.0177 -0.1010
  106OSM   H14S10828   1.292   4.600   9.405  2.6763 -1.3740  2.4349
  106OSM   H14T10829   1.148   4.508   9.393  0.7262  1.3272  0.6557
  106OSM   C15S10830   1.285   4.479   9.229 -0.2553  0.3701 -0.6667
  106OSM   H15S10831   1.262   4.375   9.200 -1.5914  0.6017 -0.4450
  106OSM   H15T10832   1.396   4.485   9.223 -0.2025 -0.3940 -0.3703
  106OSM   C16S10833   1.219   4.588   9.142  0.0933 -0.3922 -0.2191
  106OSM   H16S10834   1.256   4.691   9.160 -1.4389  0.2856 -0.9058
  106OSM   H16T10835   1.109   4.595   9.157  0.3869  1.2518  1.4185
  106OSM   C17S10836   1.243   4.558   8.997 -1.5497 -0.8225  1.0350
  106OSM   H17S10837   1.181   4.623   8.932  1.8179 -0.6498 -2.1576
  106OSM   H17T10838   1.222   4.455   8.963 -1.7060 -0.4518  0.0010
  106OSM   C18S10839   1.390   4.607   8.956  0.3260 -0.0820  0.6163
  106OSM   H18S10840   1.413   4.592   8.849 -1.2616 -0.4375  0.3094
  106OSM   H18T10841   1.470   4.552   9.010  3.5611  3.5518 -0.2324
  106OSM   H18U10842   1.404   4.715   8.979 -0.6008 -0.0294  0.9815
  106OSM    C1F10843   1.291   3.535  10.129  0.1217  0.7328 -0.3677
  106OSM     OF10844   1.175   3.487  10.137 -0.0985 -0.0435 -0.3968
  106OSM    C2F10845   1.364   3.542  10.000  0.5415  0.1764  0.2205
  106OSM    H2F10846   1.413   3.444   9.984 -0.1563 -0.2420  0.6287
  106OSM    H2G10847   1.439   3.623  10.006  0.8456  0.0396 -1.5439
  106OSM    C3F10848   1.256   3.569   9.885  0.1550 -0.1935  0.7714
  106OSM    H3F10849   1.215   3.672   9.887 -0.8892 -0.5779 -0.1076
  106OSM    H3G10850   1.165   3.505   9.895  0.6702 -1.5529 -2.6006
  106OSM    C4F10851   1.301   3.535   9.745 -0.3858  0.2320  0.4431
  106OSM    H4F10852   1.329   3.427   9.737 -1.7733 -0.2201  1.4756
  106OSM    H4G10853   1.385   3.603   9.720 -0.2200 -0.5981 -1.3382
  106OSM    C5F10854   1.184   3.578   9.638 -0.4990 -0.0110 -0.4645
  106OSM    H5F10855   1.175   3.688   9.652 -0.2241  0.3303 -2.7921
  106OSM    H5G10856   1.093   3.520   9.663 -0.0340 -0.1958  0.8660
  106OSM    C6F10857   1.232   3.554   9.496 -0.6785 -0.3319  1.4028
  106OSM    H6F10858   1.147   3.582   9.429  0.1264 -0.3045  0.3918
  106OSM    H6G10859   1.254   3.445   9.505 -0.9078 -0.7019 -2.0275
  106OSM    C7F10860   1.354   3.629   9.446  0.0632 -0.2007  0.1264
  106OSM    H7F10861   1.439   3.600   9.512  0.6879  2.2390  0.4252
  106OSM    H7G10862   1.337   3.738   9.456 -0.4000 -0.1268 -1.3711
  106OSM    C8F10863   1.386   3.598   9.297 -1.0836  0.2020  0.1255
  106OSM    H8F10864   1.396   3.487   9.291 -3.2309 -0.0478  0.8131
  106OSM    H8G10865   1.487   3.640   9.275 -1.0726 -0.1005 -0.4102
  106OSM    C9F10866   1.285   3.661   9.201 -0.5478  0.3618  0.3819
  106OSM    H9F10867   1.278   3.770   9.192  0.3793  0.2982 -1.5843
  106OSM   C10F10868   1.198   3.595   9.123 -0.2860 -0.1926 -0.3701
  106OSM   H10F10869   1.130   3.659   9.065 -1.5910 -1.4413 -0.2432
  106OSM   C11F10870   1.166   3.450   9.127 -0.2590  0.1200  0.2308
  106OSM   H11F10871   1.055   3.442   9.117  0.0230 -2.1066 -1.2767
  106OSM   H11G10872   1.197   3.414   9.227 -2.0382  0.7088  1.0229
  106OSM   C12F10873   1.238   3.387   9.013  0.6694  0.0121 -0.0042
  106OSM   H12F10874   1.223   3.277   9.007  0.7979  0.0602 -1.4354
  106OSM   H12G10875   1.347   3.409   9.020  1.0230 -1.8259  0.7362
  106OSM   C13F10876   1.179   3.430   8.874 -0.1500  0.9927  0.2459
  106OSM   H13F10877   1.181   3.540   8.862 -2.8773  0.9352 -1.2351
  106OSM   H13G10878   1.071   3.403   8.869  0.1024 -0.2409  1.0935
  106OSM   C14F10879   1.255   3.372   8.752 -0.3426  0.2483  0.2911
  106OSM   H14F10880   1.261   3.264   8.776 -1.0276  0.2712  0.5696
  106OSM   H14G10881   1.360   3.410   8.752 -0.4540  0.5606  0.5618
  106OSM   C15F10882   1.196   3.417   8.612 -0.1608  0.3925  0.0845
  106OSM   H15F10883   1.277   3.420   8.536 -0.1140 -2.4961 -0.0283
  106OSM   H15G10884   1.173   3.524   8.631 -1.1455 -0.1321  1.9147
  106OSM   C16F10885   1.084   3.326   8.562 -1.0768  0.4192  0.1446
  106OSM   H16F10886   1.004   3.336   8.638 -0.4709 -0.3796  0.8969
  106OSM   H16G10887   1.103   3.217   8.568 -0.8563  0.2395 -3.0954
  106OSM   C17F10888   1.036   3.353   8.422 -0.2570  0.0831  0.6885
  106OSM   H17F10889   1.038   3.465   8.422  2.8665  0.1329 -2.6201
  106OSM   H17G10890   0.931   3.323   8.402 -0.0450 -0.8529  0.9988
  106OSM   C18F10891   1.122   3.309   8.301  0.5668 -0.7994  0.0965
  106OSM   H18F10892   1.074   3.338   8.205  2.8620  0.3787 -0.7400
  106OSM   H18G10893   1.128   3.198   8.312  1.5011 -0.6633  1.0302
  106OSM   H18H10894   1.224   3.351   8.314  0.4059 -0.2039 -0.5136
  107OSM      N10895   4.038   1.026  10.644 -0.2356 -0.5413  0.3089
  107OSM    C1510896   4.013   1.171  10.680 -0.3584  0.5456  0.0844
  107OSM   H15A10897   3.998   1.226  10.588 -1.2690  1.6184  0.8530
  107OSM   H15B10898   4.101   1.210  10.729  1.4363 -0.1379 -2.4559
  107OSM   H15C10899   3.928   1.179  10.746 -0.5749  2.2208 -0.3704
  107OSM    C1410900   3.918   0.970  10.579  0.4874 -0.2494 -0.0425
  107OSM   H14A10901   3.931   0.863  10.567  0.8944 -0.2871  0.7601
  107OSM   H14B10902   3.893   1.020  10.486  0.3673 -1.4285 -0.6641
  107OSM   H14C10903   3.833   0.973  10.646  1.2524  1.3774  0.8657
  107OSM    C1310904   4.141   1.028  10.540 -0.4528  0.3442  0.7957
  107OSM   H13A10905   4.167   0.932  10.497 -1.2169  0.8151 -0.7101
  107OSM   H13B10906   4.239   1.046  10.582 -0.3130  3.2891 -0.7284
  107OSM   H13C10907   4.127   1.099  10.461  2.9175 -2.6929 -2.7495
  107OSM    C1210908   4.093   0.941  10.761 -0.0516 -0.2409 -0.2167
  107OSM   H12A10909   4.102   0.842  10.718 -0.1663  0.0780 -0.9827
  107OSM   H12B10910   4.010   0.927  10.829  0.2991 -1.4230 -0.0105
  107OSM    C1110911   4.218   0.986  10.832  0.3613 -0.2049 -0.3962
  107OSM   H11A10912   4.238   0.923  10.921  1.0189  1.6887  0.8445
  107OSM   H11B10913   4.190   1.085  10.875  1.3523 -0.4963  0.9389
  107OSM      P10914   4.476   0.995  10.817 -0.1528  0.1734  0.0001
  107OSM    O1310915   4.463   0.950  10.954  0.2659  0.7931 -0.3246
  107OSM    O1410916   4.575   0.924  10.743 -0.4845 -0.1159 -0.3329
  107OSM    O1110917   4.498   1.153  10.817 -0.9227  0.8037 -0.1439
  107OSM    O1210918   4.333   0.990  10.747  0.0624  0.2505  0.1842
  107OSM    C1S10919   4.612   1.202  10.761  0.0449  0.0263  0.4531
  107OSM    H1S10920   4.690   1.126  10.738  1.5749  1.3473  1.1623
  107OSM    H1T10921   4.672   1.259  10.835 -1.0704 -0.0016  1.3981
  107OSM     NF10922   4.709   1.310  10.575 -0.2485 -0.3992  0.6238
  107OSM    HNF10923   4.733   1.407  10.574  0.0054 -0.4601  0.7634
  107OSM    C2S10924   4.584   1.268  10.629 -0.0065 -0.8285  0.1020
  107OSM    H2S10925   4.548   1.187  10.561  1.6257 -0.9461 -0.6777
  107OSM    C3S10926   4.479   1.385  10.643  0.1725 -0.9808  0.5838
  107OSM    H3S10927   4.517   1.457  10.718  0.0038 -1.4224  1.0944
  107OSM     O310928   4.357   1.348  10.700  0.4965 -0.2330 -0.2704
  107OSM    HO310929   4.382   1.269  10.748  3.4252  0.6031 -0.3775
  107OSM    C4S10930   4.456   1.462  10.510  0.2372  0.5396 -0.3330
  107OSM    H4S10931   4.542   1.461  10.441 -0.9436 -0.5561 -1.8040
  107OSM    C5S10932   4.345   1.521  10.463 -0.2639  0.9667  0.3371
  107OSM    H5S10933   4.259   1.513  10.530  0.1419 -2.1560  0.5731
  107OSM    C6S10934   4.321   1.578  10.327  0.5784 -0.0442  0.4380
  107OSM    H6S10935   4.383   1.521  10.255 -0.3629 -1.4532  0.6986
  107OSM    H6T10936   4.362   1.681  10.328  2.4968 -0.7905  0.3950
  107OSM    C7S10937   4.173   1.565  10.280  0.4831  0.3431  0.4472
  107OSM    H7S10938   4.094   1.595  10.352  0.0818  1.9425 -0.6422
  107OSM    H7T10939   4.153   1.459  10.255  1.4714 -0.0275  1.1755
  107OSM    C8S10940   4.152   1.663  10.161  1.0370  0.6330 -0.1365
  107OSM    H8S10941   4.197   1.762  10.181 -1.9552  2.3075 -1.3206
  107OSM    H8T10942   4.041   1.670  10.151  1.0159  1.7769  0.8745
  107OSM    C9S10943   4.205   1.604  10.026 -0.1516 -0.0839 -0.2915
  107OSM    H9S10944   4.160   1.506  10.000 -0.3004  0.2952 -1.4842
  107OSM    H9T10945   4.314   1.588  10.032  0.0548  0.6482 -1.7759
  107OSM   C10S10946   4.174   1.703   9.921 -0.2449  0.1023 -0.5971
  107OSM   H10S10947   4.232   1.796   9.941 -0.6545 -0.0047  1.1666
  107OSM   H10T10948   4.064   1.712   9.911 -0.5425 -2.6126 -0.2633
  107OSM   C11S10949   4.209   1.668   9.773 -0.2152 -0.3988 -0.4341
  107OSM   H11S10950   4.142   1.583   9.749 -0.7256  0.3850 -1.8182
  107OSM   H11T10951   4.314   1.631   9.766 -1.0573 -2.9488 -0.0253
  107OSM   C12S10952   4.178   1.781   9.681 -0.1369  0.4827  0.5224
  107OSM   H12S10953   4.239   1.871   9.700  0.5587 -0.0154  0.6715
  107OSM   H12T10954   4.070   1.801   9.697 -0.7327 -2.0986  0.0993
  107OSM   C13S10955   4.187   1.745   9.537  0.0299  0.2082  0.6435
  107OSM   H13S10956   4.129   1.654   9.509  0.0934  0.3558  0.0279
  107OSM   H13T10957   4.281   1.717   9.485 -0.8061 -0.3495 -0.6190
  107OSM   C14S10958   4.123   1.854   9.442  0.3386  0.6211  0.4175
  107OSM   H14S10959   4.139   1.954   9.488  1.6093  0.9829 -0.8005
  107OSM   H14T10960   4.011   1.853   9.443  0.3178  0.7521 -1.1145
  107OSM   C15S10961   4.156   1.840   9.287 -0.1817  0.1876 -0.8581
  107OSM   H15S10962   4.216   1.749   9.270 -0.6277 -0.5429  1.2861
  107OSM   H15T10963   4.202   1.935   9.250  0.8821  0.1779  0.4175
  107OSM   C16S10964   4.035   1.817   9.194  0.1492  0.0925  0.6035
  107OSM   H16S10965   4.063   1.815   9.086  2.8616  1.5670  1.2286
  107OSM   H16T10966   3.957   1.893   9.212 -1.9683 -2.1548  1.1713
  107OSM   C17S10967   3.955   1.685   9.214 -0.3203  0.0777 -0.6960
  107OSM   H17S10968   3.929   1.652   9.317  1.0150 -1.2581 -0.7682
  107OSM   H17T10969   4.026   1.608   9.176  2.0187  1.7927  0.0321
  107OSM   C18S10970   3.833   1.692   9.123  0.0081  0.5871 -0.4200
  107OSM   H18S10971   3.779   1.595   9.109  0.0701  0.1243  2.3519
  107OSM   H18T10972   3.870   1.705   9.019 -1.2208 -1.6520 -1.1787
  107OSM   H18U10973   3.761   1.767   9.162 -0.2362 -0.7435  1.7438
  107OSM    C1F10974   4.801   1.239  10.518  0.3814  1.0107  0.5611
  107OSM     OF10975   4.797   1.116  10.525 -0.0779  0.0039  0.4063
  107OSM    C2F10976   4.920   1.310  10.465 -0.0625  0.2297 -0.2221
  107OSM    H2F10977   4.987   1.343  10.547  0.9259  0.0108 -0.9387
  107OSM    H2G10978   4.884   1.405  10.420 -0.4552 -0.3915 -1.2460
  107OSM    C3F10979   4.986   1.228  10.348 -0.9060 -0.5089  0.5825
  107OSM    H3F10980   4.912   1.200  10.269  1.7087 -1.8799 -1.4822
  107OSM    H3G10981   5.036   1.139  10.391  0.8549  0.0762 -0.1935
  107OSM    C4F10982   5.102   1.306  10.278  0.4278  0.0380  0.1815
  107OSM    H4F10983   5.183   1.244  10.234  0.9043  2.5550 -2.6527
  107OSM    H4G10984   5.152   1.372  10.352 -0.3937 -0.7248  1.4432
  107OSM    C5F10985   5.045   1.393  10.168 -0.9728  0.4448 -0.3768
  107OSM    H5F10986   5.112   1.482  10.155 -0.6993  0.6074  1.9005
  107OSM    H5G10987   4.946   1.423  10.208 -1.4095 -0.7741 -0.5357
  107OSM    C6F10988   5.034   1.315  10.032  1.1570  0.0642 -0.0404
  107OSM    H6F10989   4.953   1.242  10.054  0.7726  0.6079  0.3499
  107OSM    H6G10990   5.130   1.267  10.004  0.0243 -2.4746  0.2578
  107OSM    C7F10991   4.968   1.407   9.926 -0.2416 -0.3270  0.1569
  107OSM    H7F10992   5.037   1.489   9.897 -0.3371  0.6286  2.5495
  107OSM    H7G10993   4.878   1.452   9.973 -0.3294  0.3145 -0.6106
  107OSM    C8F10994   4.910   1.329   9.801  0.2254 -0.3006  0.2108
  107OSM    H8F10995   4.835   1.397   9.755 -0.2421 -0.9611 -0.0026
  107OSM    H8G10996   4.859   1.239   9.841  2.4749 -0.6053  2.5541
  107OSM    C9F10997   5.026   1.304   9.715  0.4430 -0.0858 -0.4400
  107OSM    H9F10998   5.094   1.223   9.746  4.0035  1.6026 -3.4587
  107OSM   C10F10999   5.052   1.368   9.598 -0.2213  0.1238  0.2481
  107OSM   H10F11000   5.142   1.336   9.543 -1.0150 -1.3661 -0.2053
  107OSM   C11F11001   4.960   1.472   9.530  0.2493  0.4699  0.4116
  107OSM   H11F11002   5.001   1.576   9.530 -2.0915  1.4334  1.6715
  107OSM   H11G11003   4.864   1.485   9.584 -0.6792 -1.2019 -0.7983
  107OSM   C12F11004   4.916   1.449   9.386 -0.7881 -0.0471 -0.5360
  107OSM   H12F11005   4.845   1.529   9.357 -1.1443 -0.8206 -1.8093
  107OSM   H12G11006   4.867   1.349   9.389 -0.2568 -0.2889  0.4302
  107OSM   C13F11007   5.020   1.455   9.275  0.0430  0.0832 -0.3302
  107OSM   H13F11008   5.124   1.435   9.310 -0.8795  1.9096  3.7658
  107OSM   H13G11009   5.018   1.561   9.241 -0.5880  0.7733  1.7841
  107OSM   C14F11010   4.992   1.360   9.157  0.1130  0.2487 -0.7407
  107OSM   H14F11011   4.989   1.258   9.201  0.2779  0.9810  1.0099
  107OSM   H14G11012   5.081   1.344   9.092 -0.9454 -1.5479 -1.8211
  107OSM   C15F11013   4.867   1.363   9.066 -0.2339  0.2856 -0.5290
  107OSM   H15F11014   4.856   1.470   9.040  2.4225  0.5792 -0.5714
  107OSM   H15G11015   4.784   1.313   9.120  1.1374 -1.7879 -0.2905
  107OSM   C16F11016   4.879   1.263   8.947 -0.1752 -0.2709  0.1108
  107OSM   H16F11017   4.979   1.215   8.952  0.4538  0.9423 -0.6666
  107OSM   H16G11018   4.880   1.315   8.849  0.1550 -1.7077 -0.6742
  107OSM   C17F11019   4.764   1.163   8.936 -0.4024  0.5629 -1.0124
  107OSM   H17F11020   4.662   1.206   8.929 -0.6450  0.4583  1.3726
  107OSM   H17G11021   4.780   1.109   9.032 -1.6449  2.3845  0.2584
  107OSM   C18F11022   4.792   1.060   8.821  0.6989 -0.1261  0.3317
  107OSM   H18F11023   4.815   1.111   8.726  0.9703 -0.0443  0.4418
  107OSM   H18G11024   4.702   0.997   8.801  0.3680  0.1099  1.0588
  107OSM   H18H11025   4.876   0.989   8.841  1.7994  1.0632 -0.0327
  108OSM      N11026   1.386   2.975  10.895 -0.6061  0.5047 -0.3099
  108OSM    C1511027   1.520   3.018  10.919 -0.2199  0.2642 -0.1570
  108OSM   H15A11028   1.530   3.122  10.891 -0.5133  0.0534 -1.0760
  108OSM   H15B11029   1.599   2.972  10.861 -0.3587  1.0388 -0.9815
  108OSM   H15C11030   1.559   3.009  11.019 -1.5337  0.0413  0.3449
  108OSM    C1411031   1.374   2.840  10.956 -0.4296 -0.7867 -0.3910
  108OSM   H14A11032   1.366   2.841  11.063  1.2167  0.5140 -0.2627
  108OSM   H14B11033   1.457   2.784  10.915 -0.9326 -1.3891 -0.5816
  108OSM   H14C11034   1.284   2.798  10.913 -2.4899  1.0532  1.9836
  108OSM    C1311035   1.298   3.072  10.947 -0.5964 -0.2484 -0.8602
  108OSM   H13A11036   1.322   3.165  10.898  4.7282 -0.6270  0.7440
  108OSM   H13B11037   1.317   3.085  11.052 -1.4347 -0.0865 -0.7288
  108OSM   H13C11038   1.193   3.046  10.948 -1.2429  2.1878 -1.5547
  108OSM    C1211039   1.351   2.959  10.749  1.0530  0.6757 -0.8451
  108OSM   H12A11040   1.423   2.887  10.712  1.0792 -0.3647  1.1970
  108OSM   H12B11041   1.361   3.057  10.706  0.1331  0.2504 -2.0696
  108OSM    C1111042   1.212   2.911  10.703 -0.5032 -0.1200 -0.0958
  108OSM   H11A11043   1.202   2.933  10.595  3.0534  0.4695 -0.3682
  108OSM   H11B11044   1.142   2.977  10.757  2.5088  1.3147  2.2141
  108OSM      P11045   1.234   2.649  10.647  0.2103 -0.0953 -0.3858
  108OSM    O1311046   1.372   2.673  10.599 -0.3898  0.0141 -0.5537
  108OSM    O1411047   1.221   2.533  10.736  0.0866 -0.4270 -0.5071
  108OSM    O1111048   1.122   2.634  10.533 -0.5335  0.7305 -0.0884
  108OSM    O1211049   1.185   2.776  10.735 -0.0047  0.3762  0.1249
  108OSM    C1S11050   0.982   2.666  10.545 -0.4266 -0.6683  0.2548
  108OSM    H1S11051   0.970   2.770  10.580  2.0514 -0.5468  0.8837
  108OSM    H1T11052   0.943   2.598  10.624  0.0221 -0.1558  0.9204
  108OSM     NF11053   0.769   2.705  10.422  0.0096  0.3094  0.6529
  108OSM    HNF11054   0.700   2.635  10.437 -0.0483 -0.0528 -1.2102
  108OSM    C2S11055   0.902   2.649  10.416  0.7280  0.2119 -0.7307
  108OSM    H2S11056   0.947   2.708  10.334  0.7359  0.7559 -0.3406
  108OSM    C3S11057   0.898   2.505  10.371 -0.0833  0.6039 -0.0593
  108OSM    H3S11058   0.823   2.456  10.437  0.3344  0.6693  0.4665
  108OSM     O311059   1.014   2.430  10.393 -0.0719 -1.0008  0.1139
  108OSM    HO311060   1.047   2.479  10.470 -2.3438 -0.1936  0.5954
  108OSM    C4S11061   0.860   2.493  10.219 -0.1329  0.3156  0.2569
  108OSM    H4S11062   0.921   2.555  10.152 -0.8403 -1.1713 -1.7826
  108OSM    C5S11063   0.775   2.408  10.162  0.5685 -0.1743 -0.1100
  108OSM    H5S11064   0.726   2.339  10.232 -1.0262 -0.5120 -1.5161
  108OSM    C6S11065   0.733   2.407  10.020 -0.8047 -0.1964  0.7520
  108OSM    H6S11066   0.623   2.391  10.020 -0.4880 -2.4487  1.4385
  108OSM    H6T11067   0.792   2.331   9.966  1.8324  2.3348 -0.0812
  108OSM    C7S11068   0.753   2.544   9.944 -0.0155  0.8441 -0.3576
  108OSM    H7S11069   0.859   2.578   9.948 -0.3133  1.6954  0.4751
  108OSM    H7T11070   0.702   2.623  10.003 -1.0786 -0.1135  0.0372
  108OSM    C8S11071   0.705   2.544   9.799 -0.5384  0.1926  0.6186
  108OSM    H8S11072   0.686   2.648   9.763  1.2797  1.1603  2.3074
  108OSM    H8T11073   0.612   2.485   9.803  0.3104 -1.1406  0.8603
  108OSM    C9S11074   0.795   2.475   9.698  0.3397 -0.3967 -0.0218
  108OSM    H9S11075   0.789   2.368   9.725  0.8118 -0.0967  1.3247
  108OSM    H9T11076   0.900   2.499   9.725  1.5455 -3.8323 -1.4263
  108OSM   C10S11077   0.778   2.503   9.547  0.1481  0.5600  0.1331
  108OSM   H10S11078   0.822   2.600   9.517 -1.5127  0.6704 -2.0609
  108OSM   H10T11079   0.670   2.495   9.522 -0.3450 -1.2919  2.6729
  108OSM   C11S11080   0.849   2.408   9.448  0.4854 -0.2230 -0.5526
  108OSM   H11S11081   0.812   2.306   9.470  1.8244 -0.3262  1.3180
  108OSM   H11T11082   0.956   2.401   9.476 -0.1408  0.5419  2.1446
  108OSM   C12S11083   0.840   2.449   9.299 -0.3503  0.5488  0.3121
  108OSM   H12S11084   0.850   2.560   9.299 -0.1723  0.5429 -2.0590
  108OSM   H12T11085   0.737   2.428   9.263  0.3857 -1.6169 -0.6117
  108OSM   C13S11086   0.955   2.390   9.216 -0.1794  0.8477 -0.1841
  108OSM   H13S11087   0.984   2.286   9.244 -0.7280  0.8864  0.5231
  108OSM   H13T11088   1.050   2.446   9.232 -0.1652  1.8825 -3.5325
  108OSM   C14S11089   0.916   2.403   9.068  1.1929  0.6127 -0.2451
  108OSM   H14S11090   0.902   2.513   9.055 -1.3796  0.4975  1.1173
  108OSM   H14T11091   0.816   2.359   9.047  1.5125  0.1922 -0.8757
  108OSM   C15S11092   1.031   2.357   8.966 -0.6490  0.0026  0.0137
  108OSM   H15S11093   1.080   2.265   9.006  0.0523  0.8989  1.2538
  108OSM   H15T11094   1.104   2.440   8.977 -0.5637 -0.0270 -0.3526
  108OSM   C16S11095   0.966   2.333   8.827 -0.3880  0.0056  0.7226
  108OSM   H16S11096   0.869   2.288   8.856 -0.0472 -0.3678  1.2914
  108OSM   H16T11097   1.019   2.252   8.773  0.3230  0.6958  0.3774
  108OSM   C17S11098   0.950   2.456   8.748 -0.4602 -0.7694  0.2241
  108OSM   H17S11099   1.051   2.502   8.740  0.0819 -2.1405 -1.0149
  108OSM   H17T11100   0.885   2.534   8.794 -1.1701 -1.5972  0.6294
  108OSM   C18S11101   0.903   2.433   8.607 -0.1234  0.2943 -0.1957
  108OSM   H18S11102   0.958   2.354   8.550 -2.7373 -2.0264  0.3539
  108OSM   H18T11103   0.897   2.522   8.541 -1.1590 -0.1095 -0.6675
  108OSM   H18U11104   0.798   2.394   8.605 -1.0148  2.5908  0.3377
  108OSM    C1F11105   0.747   2.843  10.419 -0.7009  0.5034  0.5042
  108OSM     OF11106   0.837   2.923  10.400  0.0601 -0.6177  0.3776
  108OSM    C2F11107   0.608   2.887  10.435 -0.2839 -0.1629 -0.2522
  108OSM    H2F11108   0.610   2.965  10.513 -0.8532 -0.8484  0.4568
  108OSM    H2G11109   0.552   2.799  10.473  0.1934  1.2658  3.9742
  108OSM    C3F11110   0.544   2.939  10.313 -0.2194  0.5887  0.1451
  108OSM    H3F11111   0.572   3.045  10.294  0.7658  0.3911  0.4619
  108OSM    H3G11112   0.438   2.946  10.346  0.1470  1.5981  1.1747
  108OSM    C4F11113   0.556   2.853  10.192  0.3989 -0.0005  0.0507
  108OSM    H4F11114   0.521   2.750  10.212 -0.2952  0.3621  0.7793
  108OSM    H4G11115   0.662   2.850  10.160  1.3744  4.0684  2.4602
  108OSM    C5F11116   0.466   2.905  10.078  0.5949  0.2617 -0.3460
  108OSM    H5F11117   0.506   2.993  10.024 -2.3962  1.2500 -1.0639
  108OSM    H5G11118   0.362   2.928  10.112  0.9568  1.2382  0.0948
  108OSM    C6F11119   0.462   2.790   9.971 -0.3746  0.0924 -0.8180
  108OSM    H6F11120   0.441   2.695  10.024  1.3106  0.2565  0.1815
  108OSM    H6G11121   0.565   2.783   9.930 -0.2815  1.8008 -0.9157
  108OSM    C7F11122   0.358   2.814   9.861 -0.1669 -0.2938  0.3422
  108OSM    H7F11123   0.389   2.903   9.801  1.1447 -0.7904  0.2717
  108OSM    H7G11124   0.262   2.842   9.911 -1.4346 -1.0072 -1.6650
  108OSM    C8F11125   0.340   2.693   9.770  0.1282  0.2451 -0.0669
  108OSM    H8F11126   0.263   2.632   9.821 -1.4959 -0.1114 -2.9031
  108OSM    H8G11127   0.425   2.623   9.754 -0.3943 -0.4963  0.3663
  108OSM    C9F11128   0.275   2.727   9.644  0.1789  0.2730  0.1510
  108OSM    H9F11129   0.166   2.723   9.657  0.2232 -0.2987  0.3693
  108OSM   C10F11130   0.336   2.728   9.524 -0.1847 -0.1667  0.3934
  108OSM   H10F11131   0.281   2.765   9.436  1.7236  1.2323 -0.2451
  108OSM   C11F11132   0.481   2.712   9.491 -0.4256  0.2113  0.3363
  108OSM   H11F11133   0.503   2.615   9.540 -0.3784 -0.0602 -0.2199
  108OSM   H11G11134   0.550   2.785   9.540  0.4610 -0.9284  0.8095
  108OSM   C12F11135   0.525   2.704   9.349 -0.1418 -0.4302  0.2698
  108OSM   H12F11136   0.455   2.642   9.289  1.6527 -0.8622 -1.4119
  108OSM   H12G11137   0.620   2.647   9.341 -0.7615 -1.2929 -1.1197
  108OSM   C13F11138   0.535   2.844   9.285 -0.5017 -0.1284  0.0020
  108OSM   H13F11139   0.604   2.895   9.356 -0.7495 -0.1895  0.2874
  108OSM   H13G11140   0.433   2.887   9.270 -0.7933 -1.4420 -1.9052
  108OSM   C14F11141   0.607   2.839   9.150 -0.3288  0.5657 -0.0053
  108OSM   H14F11142   0.546   2.791   9.071  3.9476 -3.3358 -1.1644
  108OSM   H14G11143   0.691   2.766   9.153  0.0441  0.9842 -0.2175
  108OSM   C15F11144   0.659   2.975   9.099 -0.4829 -0.9849  0.1401
  108OSM   H15F11145   0.769   2.979   9.113 -0.5969 -1.2540  1.1637
  108OSM   H15G11146   0.613   3.054   9.163  0.2367 -0.5944  0.1788
  108OSM   C16F11147   0.629   3.003   8.951  0.0730  0.2413  0.5377
  108OSM   H16F11148   0.518   3.011   8.942  0.1769  0.4426 -0.6114
  108OSM   H16G11149   0.664   2.915   8.893  1.7052  0.9411  0.4343
  108OSM   C17F11150   0.697   3.128   8.905  0.5861 -0.4407  0.0188
  108OSM   H17F11151   0.657   3.203   8.976 -0.1836  1.2980 -2.1886
  108OSM   H17G11152   0.663   3.132   8.799 -1.8847 -0.3139  0.7855
  108OSM   C18F11153   0.851   3.137   8.909 -0.2297  0.6785 -0.1027
  108OSM   H18F11154   0.901   3.053   8.857 -0.0733  1.2499 -0.8699
  108OSM   H18G11155   0.891   3.143   9.013 -0.2840 -0.8362  0.0217
  108OSM   H18H11156   0.888   3.224   8.851  0.6148  0.2789 -0.1718
  109OSM      N11157   0.062   1.229  11.039  0.1615  0.7088 -0.3808
  109OSM    C1511158   0.130   1.212  10.906  0.8918 -0.3453 -0.1502
  109OSM   H15A11159   0.229   1.254  10.916 -0.0223  2.1042 -0.9985
  109OSM   H15B11160   0.084   1.270  10.827  0.3829 -0.5752 -0.0214
  109OSM   H15C11161   0.132   1.108  10.879  0.5797 -0.7456  1.3117
  109OSM    C1411162   0.075   1.374  11.075  0.5162 -0.5923  0.6332
  109OSM   H14A11163   0.027   1.403  11.167 -0.9155 -1.8729  0.3089
  109OSM   H14B11164   0.035   1.438  10.998 -0.0774 -0.9744  0.6242
  109OSM   H14C11165   0.176   1.412  11.075 -0.0821  1.0539  1.5264
  109OSM    C1311166  -0.087   1.201  11.027  0.4628  0.6966  0.1868
  109OSM   H13A11167  -0.100   1.109  10.972 -1.0584 -1.0896  3.4207
  109OSM   H13B11168  -0.139   1.287  10.987 -2.3802 -1.4291 -0.8674
  109OSM   H13C11169  -0.126   1.175  11.124  2.2072  1.0102  0.9822
  109OSM    C1211170   0.123   1.132  11.138 -0.1257 -0.4083 -0.6608
  109OSM   H12A11171   0.090   1.162  11.236 -0.7075  0.3893 -1.0911
  109OSM   H12B11172   0.230   1.145  11.145 -0.4416  1.8634  0.6827
  109OSM    C1111173   0.106   0.976  11.122 -0.6126  0.6889  0.0374
  109OSM   H11A11174   0.164   0.925  11.203 -0.8124  0.3340 -0.0399
  109OSM   H11B11175   0.143   0.949  11.021  0.8773 -4.2706  1.7553
  109OSM      P11176  -0.069   0.788  11.132  0.3536 -0.0244 -0.2426
  109OSM    O1311177   0.026   0.711  11.215 -0.3061  0.0414  0.9685
  109OSM    O1411178  -0.212   0.784  11.164 -0.4624  0.1746 -0.0698
  109OSM    O1111179  -0.048   0.752  10.984 -0.0410  0.1652  0.1164
  109OSM    O1211180  -0.032   0.936  11.142  0.8797 -0.4217  0.4564
  109OSM    C1S11181  -0.133   0.820  10.884 -0.6892  0.4314 -0.5743
  109OSM    H1S11182  -0.096   0.924  10.875 -2.1836  0.8611 -1.8051
  109OSM    H1T11183  -0.236   0.834  10.924 -0.7626 -1.0422 -0.1918
  109OSM     NF11184  -0.233   0.846  10.670 -0.6065  0.0363  0.2544
  109OSM    HNF11185  -0.318   0.807  10.635  0.7798 -1.3098 -1.7249
  109OSM    C2S11186  -0.146   0.761  10.739 -0.1568  0.0908  0.2919
  109OSM    H2S11187  -0.046   0.770  10.693 -0.1907  2.9017  0.7120
  109OSM    C3S11188  -0.186   0.608  10.746  0.1987  0.0191  0.3046
  109OSM    H3S11189  -0.285   0.601  10.796  0.5365 -1.9695  0.7378
  109OSM     O311190  -0.110   0.529  10.834 -0.1681 -0.5899 -0.3792
  109OSM    HO311191  -0.034   0.582  10.859  0.7840 -0.0494 -4.0155
  109OSM    C4S11192  -0.189   0.556  10.610  0.2466  0.2789 -0.6563
  109OSM    H4S11193  -0.282   0.585  10.558 -0.2430  0.1668  0.1449
  109OSM    C5S11194  -0.090   0.495  10.547 -0.0725 -1.0398  0.3246
  109OSM    H5S11195   0.008   0.485  10.597 -0.3288 -0.9604  0.8419
  109OSM    C6S11196  -0.098   0.448  10.405 -0.1071  0.5062  0.1229
  109OSM    H6S11197  -0.202   0.458  10.368 -0.2209 -0.2221  0.2310
  109OSM    H6T11198  -0.070   0.340  10.412  0.2106  0.5838  0.0717
  109OSM    C7S11199  -0.006   0.542  10.328 -0.1314  0.5292 -0.4220
  109OSM    H7S11200   0.014   0.496  10.229 -2.0979 -0.4818 -0.3705
  109OSM    H7T11201   0.083   0.554  10.393 -2.3719 -1.2751  3.1144
  109OSM    C8S11202  -0.084   0.672  10.289  0.3028  0.3705 -0.0978
  109OSM    H8S11203  -0.111   0.723  10.384  0.5230  0.0523  0.1374
  109OSM    H8T11204  -0.178   0.638  10.241  1.8979 -2.4261 -1.3721
  109OSM    C9S11205  -0.027   0.760  10.174 -0.1920  0.5790  1.1992
  109OSM    H9S11206   0.082   0.775  10.189 -0.2640  0.3905  1.9272
  109OSM    H9T11207  -0.080   0.857  10.184 -0.6224  0.4179  0.5454
  109OSM   C10S11208  -0.061   0.702  10.037  0.7037 -0.3723 -0.2901
  109OSM   H10S11209  -0.169   0.674  10.031  0.9132 -0.9255 -1.6554
  109OSM   H10T11210  -0.006   0.606  10.024  1.8606  0.3001 -0.4058
  109OSM   C11S11211  -0.015   0.780   9.907  0.2460 -0.9677 -1.0898
  109OSM   H11S11212   0.092   0.810   9.915 -0.1620  0.3479 -0.5305
  109OSM   H11T11213  -0.068   0.876   9.893  2.2902  0.2531 -0.6033
  109OSM   C12S11214  -0.044   0.693   9.783 -0.1389 -0.1804  0.0053
  109OSM   H12S11215  -0.150   0.659   9.779 -1.0801  2.7720 -2.2314
  109OSM   H12T11216   0.011   0.598   9.802 -0.3625 -0.2436  0.3384
  109OSM   C13S11217  -0.012   0.754   9.651  0.0575 -0.0343 -0.0861
  109OSM   H13S11218   0.082   0.809   9.672  0.5286 -0.9655  0.2734
  109OSM   H13T11219  -0.091   0.830   9.632 -0.0166  0.7821  3.1562
  109OSM   C14S11220  -0.006   0.647   9.538  0.1669  0.1493  0.0998
  109OSM   H14S11221  -0.105   0.605   9.508  1.4757 -1.0853 -2.7558
  109OSM   H14T11222   0.065   0.566   9.565  1.6962  1.4587  0.0794
  109OSM   C15S11223   0.064   0.710   9.411 -0.2381 -0.7557  0.0942
  109OSM   H15S11224   0.153   0.767   9.445  1.2182 -2.4463 -0.8225
  109OSM   H15T11225   0.005   0.783   9.351 -0.0877  0.6204  1.5571
  109OSM   C16S11226   0.104   0.605   9.313  0.0478  0.4837 -0.6210
  109OSM   H16S11227   0.020   0.539   9.282  1.3768 -0.9132 -1.3407
  109OSM   H16T11228   0.178   0.532   9.350  0.6959  0.3444 -2.1570
  109OSM   C17S11229   0.139   0.664   9.175 -0.0523 -0.6482  1.0430
  109OSM   H17S11230   0.225   0.733   9.192 -0.8575  0.2358  1.6160
  109OSM   H17T11231   0.055   0.731   9.146  0.8891  1.0924  2.2126
  109OSM   C18S11232   0.161   0.560   9.069 -0.4275  0.1610  0.5091
  109OSM   H18S11233   0.083   0.482   9.065 -0.0890 -0.2030  1.0350
  109OSM   H18T11234   0.256   0.508   9.094 -0.5222 -0.3195 -0.1262
  109OSM   H18U11235   0.177   0.592   8.963 -0.8759 -3.6793 -0.7834
  109OSM    C1F11236  -0.195   0.963  10.618  0.3934 -0.0957 -0.7442
  109OSM     OF11237  -0.074   0.993  10.621  0.6135 -0.0794 -0.2887
  109OSM    C2F11238  -0.305   1.043  10.543  0.1323  0.0273  0.1708
  109OSM    H2F11239  -0.311   1.136  10.603  0.6854 -0.0359  0.3227
  109OSM    H2G11240  -0.397   0.980  10.542 -0.9104  1.4940  1.2056
  109OSM    C3F11241  -0.258   1.092  10.400 -0.4391 -0.1415  0.3995
  109OSM    H3F11242  -0.233   1.003  10.338  1.4500  1.7838 -1.7016
  109OSM    H3G11243  -0.171   1.158  10.421 -0.9634  0.7747 -0.2691
  109OSM    C4F11244  -0.366   1.162  10.318 -1.3213  0.8367  0.4497
  109OSM    H4F11245  -0.426   1.239  10.369 -1.5034  0.4354  0.8422
  109OSM    H4G11246  -0.431   1.075  10.296  0.5645 -0.8709  1.4156
  109OSM    C5F11247  -0.315   1.206  10.185 -0.4008  0.0419  0.0240
  109OSM    H5F11248  -0.262   1.124  10.132 -0.6930  0.1578 -0.4511
  109OSM    H5G11249  -0.254   1.298  10.188 -1.1303  0.5200  0.5526
  109OSM    C6F11250  -0.437   1.244  10.094 -0.0458 -0.4622 -0.5212
  109OSM    H6F11251  -0.487   1.324  10.153 -1.0271 -0.6389 -1.1087
  109OSM    H6G11252  -0.510   1.160  10.090 -2.5188  1.6445 -1.3989
  109OSM    C7F11253  -0.399   1.297   9.954  0.0052  0.6218  0.6661
  109OSM    H7F11254  -0.334   1.387   9.957  2.0414 -0.8124  0.8216
  109OSM    H7G11255  -0.494   1.323   9.904  0.8052  0.6859 -0.8736
  109OSM    C8F11256  -0.332   1.191   9.860  0.2907  0.1113 -0.2189
  109OSM    H8F11257  -0.402   1.105   9.855 -1.7002  1.7459 -0.8284
  109OSM    H8G11258  -0.242   1.147   9.908 -0.4278  0.1123  1.1408
  109OSM    C9F11259  -0.301   1.266   9.730 -0.0155 -0.1271  0.3253
  109OSM    H9F11260  -0.381   1.325   9.682  2.1339  1.4658 -1.3947
  109OSM   C10F11261  -0.176   1.249   9.677 -0.0468  0.1770  0.7961
  109OSM   H10F11262  -0.153   1.309   9.588 -0.6641 -2.6864 -1.3652
  109OSM   C11F11263  -0.059   1.179   9.738 -0.0748 -0.7661  0.3076
  109OSM   H11F11264  -0.075   1.070   9.751 -1.3736 -0.4891  1.1158
  109OSM   H11G11265  -0.049   1.227   9.838  1.4071  1.1204 -0.6968
  109OSM   C12F11266   0.074   1.190   9.658  0.7215 -0.8777  0.1803
  109OSM   H12F11267   0.162   1.163   9.721  0.6625 -1.2959  0.0799
  109OSM   H12G11268   0.091   1.296   9.627  2.2361 -0.6848  1.6104
  109OSM   C13F11269   0.091   1.098   9.536 -0.5246 -0.4623 -0.1237
  109OSM   H13F11270   0.045   0.999   9.552  0.4511 -0.9098 -0.0220
  109OSM   H13G11271   0.198   1.071   9.521 -1.2113 -2.3935 -1.8380
  109OSM   C14F11272   0.042   1.170   9.415  0.3493  0.1498 -0.0350
  109OSM   H14F11273   0.088   1.271   9.405 -0.0659  0.4999  1.4323
  109OSM   H14G11274  -0.069   1.172   9.408  0.4305 -0.8783 -1.7840
  109OSM   C15F11275   0.088   1.103   9.285  0.0640  0.0002  0.1538
  109OSM   H15F11276   0.068   0.993   9.290  2.5203 -0.4973 -0.1396
  109OSM   H15G11277   0.194   1.119   9.255 -0.6611  0.7855 -2.0924
  109OSM   C16F11278   0.029   1.173   9.157 -0.1073  0.0734 -0.5336
  109OSM   H16F11279   0.076   1.273   9.158  1.0400 -0.3726 -3.6856
  109OSM   H16G11280  -0.081   1.180   9.159 -0.0818  0.3785 -0.1814
  109OSM   C17F11281   0.069   1.095   9.024 -0.1865 -0.1923 -0.0664
  109OSM   H17F11282   0.018   0.998   9.039 -0.9302  0.1588 -0.3101
  109OSM   H17G11283   0.179   1.077   9.012 -0.1192 -0.1373  0.4766
  109OSM   C18F11284   0.020   1.175   8.905  0.1282  0.5057  0.1993
  109OSM   H18F11285   0.068   1.275   8.901 -0.6556  0.8339 -1.7211
  109OSM   H18G11286  -0.090   1.192   8.906  0.1802  1.0075  3.5859
  109OSM   H18H11287   0.040   1.126   8.807  0.6593  0.9405  0.0850
  110OSM      N11288   0.774   6.219  11.163 -0.3652 -0.8913 -0.4601
  110OSM    C1511289   0.896   6.270  11.236 -0.3472  0.1729  0.5170
  110OSM   H15A11290   0.888   6.247  11.341  1.6487 -1.5071  0.3508
  110OSM   H15B11291   0.892   6.377  11.236 -0.0545  0.2176 -1.8177
  110OSM   H15C11292   0.984   6.227  11.191  0.3795  3.1722 -1.0471
  110OSM    C1411293   0.774   6.071  11.160 -0.6839  0.1324  0.4077
  110OSM   H14A11294   0.700   6.028  11.095 -1.3430 -0.4424  1.5195
  110OSM   H14B11295   0.757   6.015  11.251 -1.0136  0.2088  0.3913
  110OSM   H14C11296   0.868   6.042  11.116 -2.1127 -1.6211 -1.5951
  110OSM    C1311297   0.661   6.271  11.246  0.8144  0.0049  0.4336
  110OSM   H13A11298   0.668   6.224  11.343 -0.7411 -1.6735 -0.2446
  110OSM   H13B11299   0.571   6.233  11.200  1.4763 -3.2838  1.7479
  110OSM   H13C11300   0.652   6.378  11.252  0.5516 -0.0865  1.8671
  110OSM    C1211301   0.771   6.277  11.021  0.1888 -0.6716  0.3900
  110OSM   H12A11302   0.733   6.378  11.019  1.1968 -0.2028  2.8174
  110OSM   H12B11303   0.700   6.215  10.968  1.3226 -2.3915  0.8613
  110OSM    C1111304   0.908   6.264  10.948  0.7987  0.6297 -0.1113
  110OSM   H11A11305   0.978   6.335  10.997  0.1242  0.2176  1.4817
  110OSM   H11B11306   0.907   6.296  10.842 -1.8177  2.7270  0.4913
  110OSM      P11307   1.105   6.103  10.938 -0.0521  0.1416  0.0021
  110OSM    O1311308   1.169   6.141  11.068  0.4907 -0.1642 -0.3792
  110OSM    O1411309   1.136   5.966  10.886 -0.2471  0.0540  0.0234
  110OSM    O1111310   1.143   6.210  10.828  0.0068  0.2223 -0.4452
  110OSM    O1211311   0.956   6.126  10.953  0.2877 -0.2441  0.1968
  110OSM    C1S11312   1.119   6.168  10.692 -0.1934  0.4352  0.9585
  110OSM    H1S11313   1.011   6.146  10.684 -0.2882  1.0215  0.6059
  110OSM    H1T11314   1.168   6.073  10.662  2.8412  2.8340 -2.0432
  110OSM     NF11315   1.151   6.222  10.461  0.4191 -0.4546  0.1305
  110OSM    HNF11316   1.234   6.177  10.429 -0.2057 -0.5362 -1.3909
  110OSM    C2S11317   1.166   6.280  10.590 -0.3728 -0.2452 -0.1876
  110OSM    H2S11318   1.105   6.372  10.604  0.3185 -0.0341  1.6522
  110OSM    C3S11319   1.320   6.314  10.619 -0.3474  0.1055 -0.1320
  110OSM    H3S11320   1.376   6.223  10.591 -3.5092 -1.6806 -0.9416
  110OSM     O311321   1.349   6.349  10.757  0.1965 -0.3770  0.0612
  110OSM    HO311322   1.269   6.322  10.803  0.2851 -0.2463  0.2950
  110OSM    C4S11323   1.368   6.420  10.517 -0.2647 -0.5155  0.0018
  110OSM    H4S11324   1.294   6.497  10.492  0.5577  0.4196  0.4077
  110OSM    C5S11325   1.483   6.417  10.447  0.4581  0.1878 -0.0320
  110OSM    H5S11326   1.556   6.335  10.457  1.2523  0.7336 -1.2469
  110OSM    C6S11327   1.531   6.510  10.340  1.0704 -0.1135 -1.1737
  110OSM    H6S11328   1.627   6.550  10.378 -0.3672  0.1429  2.4537
  110OSM    H6T11329   1.456   6.592  10.328  0.0413 -0.6975  0.9028
  110OSM    C7S11330   1.539   6.429  10.213  0.6935 -0.1303  0.1270
  110OSM    H7S11331   1.441   6.382  10.194  2.1832 -3.0658 -0.6151
  110OSM    H7T11332   1.612   6.347  10.232  0.5081  0.4010  3.3184
  110OSM    C8S11333   1.597   6.510  10.092 -0.0703  0.3033  0.3735
  110OSM    H8S11334   1.671   6.579  10.137  0.7562 -1.2435  1.4635
  110OSM    H8T11335   1.509   6.562  10.049  0.1682  1.1557  0.9170
  110OSM    C9S11336   1.662   6.411   9.988 -0.6577  0.4597 -0.3604
  110OSM    H9S11337   1.589   6.336   9.952 -3.2234  1.7929  1.9438
  110OSM    H9T11338   1.742   6.365  10.050 -0.2957  0.2084 -1.0101
  110OSM   C10S11339   1.723   6.475   9.867  0.2743 -0.6329  1.0554
  110OSM   H10S11340   1.772   6.569   9.901 -0.4988 -0.0741  0.6322
  110OSM   H10T11341   1.643   6.502   9.795  0.1348 -0.9138  1.1044
  110OSM   C11S11342   1.835   6.388   9.807  0.1971 -0.7050 -0.4518
  110OSM   H11S11343   1.785   6.290   9.822 -0.9049 -0.1277 -0.2969
  110OSM   H11T11344   1.926   6.385   9.871  0.4480  0.5020 -0.7490
  110OSM   C12S11345   1.870   6.399   9.661 -0.0855 -1.2630  0.1003
  110OSM   H12S11346   1.943   6.481   9.645 -3.8217  1.8283 -2.0901
  110OSM   H12T11347   1.783   6.433   9.601  0.1286 -1.3575 -0.2642
  110OSM   C13S11348   1.922   6.272   9.609  0.5674  0.1419  0.0953
  110OSM   H13S11349   1.849   6.189   9.615 -0.5723  1.0538 -0.6984
  110OSM   H13T11350   2.013   6.244   9.666  0.6473 -0.0703 -0.1389
  110OSM   C14S11351   1.969   6.271   9.458 -0.2091  0.0982  0.7402
  110OSM   H14S11352   1.876   6.267   9.397 -0.8149 -0.9490  1.7388
  110OSM   H14T11353   2.019   6.177   9.429 -0.6680 -0.2259  0.9910
  110OSM   C15S11354   2.057   6.392   9.415 -0.1980  0.3653  0.2868
  110OSM   H15S11355   2.133   6.419   9.491  1.5379 -3.3242 -0.0362
  110OSM   H15T11356   1.998   6.486   9.408  0.1000  0.4226 -1.7109
  110OSM   C16S11357   2.119   6.394   9.280  0.1495 -0.0164  0.5603
  110OSM   H16S11358   2.037   6.349   9.219 -1.5105  1.0950  1.9411
  110OSM   H16T11359   2.195   6.313   9.285  0.6353  0.4156  0.1879
  110OSM   C17S11360   2.173   6.528   9.235  0.0707 -0.3028  0.1120
  110OSM   H17S11361   2.264   6.551   9.295  1.1803 -2.1157 -0.8335
  110OSM   H17T11362   2.088   6.599   9.244  0.0057 -0.4651  0.8502
  110OSM   C18S11363   2.215   6.530   9.084  0.5005  0.1534 -0.3415
  110OSM   H18S11364   2.296   6.456   9.065 -1.7035 -1.8890 -2.1450
  110OSM   H18T11365   2.251   6.631   9.057 -0.1740  0.6602  0.6222
  110OSM   H18U11366   2.130   6.493   9.021  0.6859 -0.2754 -0.3419
  110OSM    C1F11367   1.026   6.210  10.416 -0.0088 -0.3405  0.7490
  110OSM     OF11368   0.932   6.272  10.474 -0.2592 -0.3251  0.1794
  110OSM    C2F11369   1.001   6.129  10.288 -0.2729  0.3099 -0.4409
  110OSM    H2F11370   1.083   6.054  10.278 -0.1998  0.2497  0.5311
  110OSM    H2G11371   1.003   6.196  10.200 -0.1196  0.7789 -0.0794
  110OSM    C3F11372   0.869   6.045  10.274 -0.3709 -0.2972 -0.4870
  110OSM    H3F11373   0.786   6.113  10.300  0.9401  1.1702 -0.0993
  110OSM    H3G11374   0.885   5.958  10.342  1.5957  1.3776  1.2400
  110OSM    C4F11375   0.843   5.992  10.130 -0.1288  0.9867  1.2566
  110OSM    H4F11376   0.786   6.070  10.076 -0.9100 -0.4896 -0.1042
  110OSM    H4G11377   0.775   5.904  10.136  0.1458  0.5884 -0.9494
  110OSM    C5F11378   0.960   5.943  10.040  0.0470 -0.1444  0.2670
  110OSM    H5F11379   0.989   5.845  10.083 -2.0411 -1.0443 -0.3355
  110OSM    H5G11380   1.047   6.012  10.049 -0.7862  0.8491  0.8635
  110OSM    C6F11381   0.947   5.927   9.884 -0.9885 -1.4243  0.1756
  110OSM    H6F11382   0.861   5.862   9.857 -0.6599 -1.6087 -0.4461
  110OSM    H6G11383   1.040   5.884   9.842  0.5582  1.3006  0.7073
  110OSM    C7F11384   0.930   6.059   9.813  0.7861  1.3887  0.0381
  110OSM    H7F11385   1.009   6.132   9.841  2.0823 -0.0044  0.0261
  110OSM    H7G11386   0.835   6.104   9.849 -0.0190 -0.7930  0.6925
  110OSM    C8F11387   0.922   6.048   9.659 -1.0565 -0.1333 -0.2354
  110OSM    H8F11388   0.848   6.116   9.613  0.3885 -0.2095 -2.7605
  110OSM    H8G11389   0.887   5.945   9.637 -2.1025 -0.2349  1.8165
  110OSM    C9F11390   1.057   6.077   9.589  1.7578 -0.0631 -1.0173
  110OSM    H9F11391   1.144   6.110   9.648  0.0685  2.6543  0.0543
  110OSM   C10F11392   1.063   6.064   9.454 -0.4371 -0.1455 -0.2706
  110OSM   H10F11393   1.155   6.085   9.398 -0.1065  0.1360  0.3783
  110OSM   C11F11394   0.961   6.020   9.352 -0.0377 -0.0549  0.3877
  110OSM   H11F11395   0.858   6.010   9.393  0.8429 -2.1044  2.2116
  110OSM   H11G11396   0.983   5.921   9.307 -0.2475  0.0196  0.1243
  110OSM   C12F11397   0.944   6.120   9.232  0.1249 -0.5498  0.6024
  110OSM   H12F11398   0.872   6.077   9.159  1.0021  0.0636 -0.6436
  110OSM   H12G11399   1.038   6.142   9.178 -0.1811  0.2098  0.3675
  110OSM   C13F11400   0.881   6.252   9.279  0.5142 -0.9014  0.9126
  110OSM   H13F11401   0.953   6.297   9.351  1.1595 -0.0030 -0.2819
  110OSM   H13G11402   0.784   6.238   9.331 -0.3701  1.3172 -0.0761
  110OSM   C14F11403   0.848   6.360   9.172  0.2313 -0.1182 -0.1212
  110OSM   H14F11404   0.747   6.326   9.141 -0.2333  1.9062 -0.8905
  110OSM   H14G11405   0.923   6.362   9.090  1.1626 -2.0620  0.6674
  110OSM   C15F11406   0.853   6.494   9.234 -0.1122  0.0296 -0.2096
  110OSM   H15F11407   0.954   6.517   9.275  0.9792 -1.3378 -2.0405
  110OSM   H15G11408   0.782   6.494   9.320  2.2918 -2.3336  1.9009
  110OSM   C16F11409   0.812   6.609   9.141 -0.1952 -0.4676 -0.5045
  110OSM   H16F11410   0.718   6.600   9.083  1.1310 -2.1810 -2.4679
  110OSM   H16G11411   0.897   6.609   9.069 -2.2516  1.8275 -3.0235
  110OSM   C17F11412   0.818   6.746   9.213  0.2234  0.3200  0.0743
  110OSM   H17F11413   0.905   6.763   9.281 -0.0228 -0.5783  0.6301
  110OSM   H17G11414   0.736   6.746   9.288  0.6634  1.1646  0.5572
  110OSM   C18F11415   0.805   6.867   9.118 -0.3078 -0.1474  0.5462
  110OSM   H18F11416   0.885   6.882   9.042 -1.2620  0.0242 -0.4433
  110OSM   H18G11417   0.799   6.962   9.174 -2.1246 -0.0446  0.1988
  110OSM   H18H11418   0.710   6.848   9.064  0.5613 -2.2166 -0.3210
  111OSM      N11419   1.553   3.990  10.754  0.1745  0.0600  0.3587
  111OSM    C1511420   1.632   3.911  10.657 -0.5795 -0.4670  0.0628
  111OSM   H15A11421   1.726   3.961  10.639 -1.7122  2.0828  0.9629
  111OSM   H15B11422   1.584   3.894  10.562 -0.9140 -2.3775  0.5609
  111OSM   H15C11423   1.648   3.814  10.701  3.3037 -0.0489 -0.2263
  111OSM    C1411424   1.442   3.901  10.802 -0.3949 -0.2458  0.7187
  111OSM   H14A11425   1.357   3.962  10.829  0.2003  1.1179 -0.4105
  111OSM   H14B11426   1.468   3.856  10.897 -1.9904 -2.5322  0.1035
  111OSM   H14C11427   1.403   3.835  10.726 -4.9364  3.7674 -0.6828
  111OSM    C1311428   1.624   4.028  10.881 -0.0080  0.4173  0.6362
  111OSM   H13A11429   1.692   4.110  10.860  1.4135 -0.4283  1.8764
  111OSM   H13B11430   1.669   3.935  10.912  0.7476  0.9608  1.1831
  111OSM   H13C11431   1.554   4.048  10.960  0.0681  1.1913  0.5087
  111OSM    C1211432   1.504   4.115  10.686 -0.5789 -0.4082  1.1302
  111OSM   H12A11433   1.462   4.188  10.754 -0.8634 -0.1707  0.6979
  111OSM   H12B11434   1.426   4.088  10.617 -0.0001 -2.2010  1.1403
  111OSM    C1111435   1.605   4.194  10.601  0.1479  0.4450  0.4062
  111OSM   H11A11436   1.567   4.289  10.557  1.8858  1.0175  0.0957
  111OSM   H11B11437   1.631   4.123  10.520  1.8500  2.8736 -1.2582
  111OSM      P11438   1.857   4.222  10.608 -0.0075 -0.6085  0.3156
  111OSM    O1311439   1.957   4.316  10.660 -0.1397 -0.1519  0.2528
  111OSM    O1411440   1.906   4.083  10.605 -0.1901  0.0231 -0.0786
  111OSM    O1111441   1.807   4.270  10.464  0.2725  0.5414  0.2423
  111OSM    O1211442   1.716   4.222  10.689 -0.1154  0.0959  0.7731
  111OSM    C1S11443   1.779   4.402  10.431  0.7830  0.7972  0.5222
  111OSM    H1S11444   1.838   4.473  10.493  0.6662 -1.2897  3.1061
  111OSM    H1T11445   1.676   4.443  10.426  1.0802  1.3165 -3.1763
  111OSM     NF11446   1.815   4.569  10.241 -0.1055  0.0452 -0.4762
  111OSM    HNF11447   1.733   4.590  10.189 -1.1991  0.0240  1.1873
  111OSM    C2S11448   1.823   4.424  10.282 -0.4624  0.3850  1.1695
  111OSM    H2S11449   1.929   4.391  10.281 -0.7141 -0.4416 -0.7211
  111OSM    C3S11450   1.747   4.326  10.183 -0.4579 -0.3629  0.4329
  111OSM    H3S11451   1.637   4.340  10.190 -0.4099 -0.7125  2.2914
  111OSM     O311452   1.764   4.188  10.214  0.2330  0.5875  0.0398
  111OSM    HO311453   1.789   4.194  10.307  1.2208  0.7720 -0.2329
  111OSM    C4S11454   1.800   4.353  10.044 -1.0705  0.2636  0.1542
  111OSM    H4S11455   1.906   4.324  10.038 -1.3094 -0.2084 -2.3367
  111OSM    C5S11456   1.733   4.390   9.933 -0.2452 -0.1551  0.2119
  111OSM    H5S11457   1.625   4.408   9.944  0.1895  2.5473  0.5069
  111OSM    C6S11458   1.783   4.414   9.791  0.1040  0.0645  0.3451
  111OSM    H6S11459   1.761   4.520   9.767 -1.9803 -0.4620 -0.2333
  111OSM    H6T11460   1.726   4.344   9.725  0.9296  1.1878 -1.6015
  111OSM    C7S11461   1.934   4.390   9.773  0.6651 -0.4701 -0.3610
  111OSM    H7S11462   1.950   4.284   9.803 -0.7522 -1.1450 -1.9379
  111OSM    H7T11463   1.988   4.459   9.841 -1.7210  0.3291  0.7623
  111OSM    C8S11464   1.982   4.400   9.627  0.1571  0.6267  0.5716
  111OSM    H8S11465   1.944   4.498   9.591 -0.3699  0.6622  1.2095
  111OSM    H8T11466   1.921   4.327   9.571 -1.4862  2.3631  0.0368
  111OSM    C9S11467   2.129   4.382   9.625 -0.4178  0.4325  0.2608
  111OSM    H9S11468   2.154   4.279   9.659 -0.7420  0.1634 -0.3052
  111OSM    H9T11469   2.175   4.459   9.690  2.0909 -0.9345  0.1642
  111OSM   C10S11470   2.181   4.383   9.481  0.1129 -0.3354 -0.7224
  111OSM   H10S11471   2.171   4.485   9.436 -0.1600 -0.5700 -1.2023
  111OSM   H10T11472   2.118   4.305   9.434  1.8978 -3.1007  1.3696
  111OSM   C11S11473   2.320   4.343   9.458 -0.4645  0.9806  0.4916
  111OSM   H11S11474   2.340   4.252   9.519  2.5521  1.8924  0.9673
  111OSM   H11T11475   2.385   4.422   9.502 -1.1605  2.0955 -0.4495
  111OSM   C12S11476   2.356   4.317   9.306  0.4946 -0.5014  0.6684
  111OSM   H12S11477   2.290   4.231   9.282 -0.5834  0.0229  1.7281
  111OSM   H12T11478   2.463   4.287   9.299  0.7538  0.6015 -0.2724
  111OSM   C13S11479   2.325   4.435   9.205  0.0703 -0.7872  0.4900
  111OSM   H13S11480   2.348   4.533   9.251  1.3137 -0.6154 -0.4853
  111OSM   H13T11481   2.215   4.429   9.191 -0.0830 -1.5907  1.9398
  111OSM   C14S11482   2.392   4.448   9.065 -0.0503  0.0347  0.1239
  111OSM   H14S11483   2.499   4.467   9.088  0.1886  3.1108 -3.0986
  111OSM   H14T11484   2.349   4.529   9.002 -0.0235  0.7302  0.9910
  111OSM   C15S11485   2.377   4.308   8.980 -0.0559  0.1097 -0.1288
  111OSM   H15S11486   2.272   4.313   8.946  0.3316  2.9464 -1.0545
  111OSM   H15T11487   2.390   4.219   9.046  2.2562  0.4790 -0.0357
  111OSM   C16S11488   2.458   4.299   8.856 -0.2146 -0.0728  0.5149
  111OSM   H16S11489   2.441   4.377   8.779  0.7853 -0.8988 -0.5794
  111OSM   H16T11490   2.442   4.199   8.809  3.7059 -0.0923 -0.9788
  111OSM   C17S11491   2.613   4.280   8.876 -0.8624  0.4515  0.5056
  111OSM   H17S11492   2.624   4.176   8.914  0.9519  0.7183  0.7346
  111OSM   H17T11493   2.648   4.353   8.952  2.0484  0.7673 -1.0600
  111OSM   C18S11494   2.684   4.282   8.743 -0.3107 -0.1098  0.5792
  111OSM   H18S11495   2.648   4.200   8.677  2.7966 -0.1743 -1.1282
  111OSM   H18T11496   2.791   4.257   8.759  0.4312  1.1352 -2.2548
  111OSM   H18U11497   2.677   4.380   8.692  0.5274  0.0460  0.7492
  111OSM    C1F11498   1.885   4.665  10.305 -0.0828 -0.7615  0.4916
  111OSM     OF11499   1.981   4.635  10.376  0.0924 -0.0018 -0.5937
  111OSM    C2F11500   1.839   4.816  10.277 -0.5013 -0.1212  0.2901
  111OSM    H2F11501   1.771   4.841  10.362  1.7984  0.8831  1.9026
  111OSM    H2G11502   1.796   4.820  10.175 -0.8567 -0.5444  0.4247
  111OSM    C3F11503   1.960   4.915  10.287 -0.4513  0.3810  0.2454
  111OSM    H3F11504   2.026   4.900  10.199 -2.5719 -0.0501 -1.3122
  111OSM    H3G11505   2.012   4.891  10.383 -0.1940 -0.4061 -0.0854
  111OSM    C4F11506   1.921   5.065  10.280 -0.7715  0.0983  0.5947
  111OSM    H4F11507   2.008   5.131  10.300  0.4672 -0.6773 -1.9324
  111OSM    H4G11508   1.846   5.090  10.358 -1.5520  0.6273 -0.2972
  111OSM    C5F11509   1.837   5.115  10.158 -0.5745 -0.4872  0.1871
  111OSM    H5F11510   1.822   5.223  10.180  1.9222 -0.0574 -0.0769
  111OSM    H5G11511   1.736   5.067  10.152 -0.3110 -1.1019  0.5880
  111OSM    C6F11512   1.917   5.100  10.020 -1.0162  0.1853  0.9668
  111OSM    H6F11513   1.857   5.160   9.948 -0.8553 -0.1902  0.5208
  111OSM    H6G11514   1.915   4.996   9.983 -1.2703 -0.7161  3.4214
  111OSM    C7F11515   2.060   5.145  10.013 -0.3132 -0.8318 -0.3460
  111OSM    H7F11516   2.123   5.064  10.057 -0.7179 -0.4679  0.9237
  111OSM    H7G11517   2.067   5.232  10.082  1.6750 -1.6259  0.5029
  111OSM    C8F11518   2.098   5.193   9.871  0.8672  0.3440 -0.1576
  111OSM    H8F11519   2.030   5.279   9.857 -0.2894 -0.3588  1.0212
  111OSM    H8G11520   2.087   5.111   9.797 -1.3356 -0.2786  0.8217
  111OSM    C9F11521   2.239   5.250   9.868  0.7818  0.8044 -0.4398
  111OSM    H9F11522   2.291   5.252   9.965  2.8022 -0.6210 -1.4359
  111OSM   C10F11523   2.298   5.309   9.760  0.4737  0.0594 -0.5486
  111OSM   H10F11524   2.403   5.343   9.758  0.0645  1.4281 -3.7415
  111OSM   C11F11525   2.230   5.319   9.621 -0.7415 -0.2092  0.0776
  111OSM   H11F11526   2.133   5.266   9.618 -0.2529 -1.0976 -0.1174
  111OSM   H11G11527   2.301   5.279   9.546  0.8247  0.1046  1.3599
  111OSM   C12F11528   2.194   5.462   9.588  0.5477  0.2950  0.0513
  111OSM   H12F11529   2.289   5.512   9.560  1.9824 -3.1642 -1.5039
  111OSM   H12G11530   2.144   5.516   9.671  0.7139  0.4150  0.0737
  111OSM   C13F11531   2.097   5.484   9.474  0.3506 -0.5143  0.5418
  111OSM   H13F11532   1.995   5.454   9.509 -0.9591  0.1908 -2.5142
  111OSM   H13G11533   2.134   5.421   9.390 -0.1912 -0.6619  0.4097
  111OSM   C14F11534   2.075   5.632   9.440 -0.8516  0.6884  0.0077
  111OSM   H14F11535   2.170   5.689   9.434 -1.4196  1.6545  0.0850
  111OSM   H14G11536   2.033   5.676   9.533 -0.2389 -0.5078  0.8808
  111OSM   C15F11537   1.991   5.654   9.313 -0.4952 -0.4925 -0.3174
  111OSM   H15F11538   1.968   5.760   9.289 -0.0360 -0.1816  0.5761
  111OSM   H15G11539   1.899   5.593   9.309 -0.8913  0.0580  0.3329
  111OSM   C16F11540   2.064   5.602   9.189  0.3182 -0.4483 -0.2048
  111OSM   H16F11541   2.094   5.497   9.206  2.7611  0.2724  0.0895
  111OSM   H16G11542   2.159   5.657   9.175  0.2614 -0.6183 -1.3069
  111OSM   C17F11543   1.987   5.631   9.063 -0.6368  0.2991 -0.4430
  111OSM   H17F11544   1.950   5.736   9.067 -2.3281 -0.2934 -0.2569
  111OSM   H17G11545   1.899   5.564   9.056 -0.0556 -0.5845  0.5807
  111OSM   C18F11546   2.067   5.618   8.936 -0.2240 -0.3955  0.2346
  111OSM   H18F11547   2.117   5.715   8.911 -1.2042  0.4787  1.6291
  111OSM   H18G11548   1.998   5.591   8.853  0.0348  0.6128 -0.3217
  111OSM   H18H11549   2.148   5.543   8.949 -1.5255 -1.9183 -0.3159
  112OSM      N11550   0.966   2.549  11.046 -0.5107 -0.7139  0.2186
  112OSM    C1511551   1.041   2.619  11.148 -0.2799  0.1769  0.4357
  112OSM   H15A11552   1.020   2.725  11.145 -0.5590  0.0852 -2.8875
  112OSM   H15B11553   1.146   2.602  11.131 -0.8129 -1.0186 -1.9171
  112OSM   H15C11554   1.032   2.585  11.250  0.6919 -2.4120 -0.2816
  112OSM    C1411555   0.989   2.614  10.910 -0.2504  0.2136 -0.3354
  112OSM   H14A11556   0.926   2.702  10.902  1.7526  1.7191 -0.0657
  112OSM   H14B11557   0.950   2.549  10.833 -0.3627  2.2301 -2.0453
  112OSM   H14C11558   1.094   2.621  10.886 -0.6864  1.2809 -2.0459
  112OSM    C1311559   1.024   2.407  11.038  0.4918  0.5662 -0.3896
  112OSM   H13A11560   0.990   2.363  10.946  0.4795 -3.2905  1.3671
  112OSM   H13B11561   0.986   2.344  11.117 -1.5921  1.7702 -0.3933
  112OSM   H13C11562   1.132   2.404  11.046  0.4385  0.5794  0.4170
  112OSM    C1211563   0.824   2.555  11.069 -0.2420 -0.2786  0.3627
  112OSM   H12A11564   0.804   2.498  11.159  0.5399  0.2813  0.9020
  112OSM   H12B11565   0.781   2.498  10.988 -1.0280 -0.7439  1.0985
  112OSM    C1111566   0.763   2.694  11.084  0.0030  0.1723  0.0745
  112OSM   H11A11567   0.811   2.762  11.158 -0.1802  0.4737 -0.0805
  112OSM   H11B11568   0.661   2.684  11.128  0.7009 -1.2556  1.4126
  112OSM      P11569   0.644   2.767  10.863 -0.0562  0.0266 -0.1625
  112OSM    O1311570   0.514   2.766  10.934  0.3664 -0.0399 -0.8160
  112OSM    O1411571   0.677   2.862  10.756  1.2592 -0.3430 -0.0368
  112OSM    O1111572   0.658   2.619  10.812 -0.3505 -0.5830 -0.0785
  112OSM    O1211573   0.765   2.774  10.970  0.4619  0.2349 -0.0352
  112OSM    C1S11574   0.552   2.542  10.764  0.0760  1.1092  0.0430
  112OSM    H1S11575   0.485   2.606  10.702  1.6211  1.1826 -1.5870
  112OSM    H1T11576   0.490   2.490  10.839  1.5886 -0.1883  0.4234
  112OSM     NF11577   0.500   2.391  10.568 -0.9180 -0.0236 -0.0298
  112OSM    HNF11578   0.437   2.320  10.598  0.2404 -2.4178 -2.9444
  112OSM    C2S11579   0.611   2.440  10.659  0.1574 -0.1972 -0.7277
  112OSM    H2S11580   0.684   2.493  10.595 -0.9070  2.3346  0.0963
  112OSM    C3S11581   0.684   2.321  10.724  0.5250 -0.8792 -0.8342
  112OSM    H3S11582   0.606   2.251  10.762  0.7092 -0.0946  1.0014
  112OSM     O311583   0.780   2.359  10.826  0.1149  0.2591 -0.4576
  112OSM    HO311584   0.735   2.441  10.848  0.7558  0.3905  0.3905
  112OSM    C4S11585   0.764   2.246  10.619  0.3513 -0.0923  0.9226
  112OSM    H4S11586   0.846   2.301  10.571  0.5567  0.4667  1.8960
  112OSM    C5S11587   0.733   2.113  10.578  0.2978 -0.2087 -0.1946
  112OSM    H5S11588   0.656   2.053  10.627  1.1630  0.2782  1.8293
  112OSM    C6S11589   0.795   2.032  10.459 -0.1502  0.3629 -0.0728
  112OSM    H6S11590   0.726   2.026  10.373 -0.4089 -1.4894  0.2377
  112OSM    H6T11591   0.814   1.926  10.490  1.1067  0.7217  0.4138
  112OSM    C7S11592   0.931   2.088  10.413  0.3809  0.0027  1.1649
  112OSM    H7S11593   1.004   2.114  10.492  1.2681  1.5670 -0.1247
  112OSM    H7T11594   0.904   2.182  10.361  0.4689  0.7618  2.4804
  112OSM    C8S11595   1.000   1.994  10.312 -0.1945  1.1702 -0.0344
  112OSM    H8S11596   1.026   1.895  10.356  0.4534 -0.5420 -4.0720
  112OSM    H8T11597   1.094   2.043  10.280 -0.7832  3.0410  0.9632
  112OSM    C9S11598   0.919   1.984  10.188 -0.3383 -0.1912  0.1624
  112OSM    H9S11599   0.885   2.082  10.151  2.3811  0.4914 -0.6189
  112OSM    H9T11600   0.835   1.911  10.191  0.5972 -1.3666 -1.2758
  112OSM   C10S11601   1.004   1.904  10.087 -0.4648 -0.7351  0.0018
  112OSM   H10S11602   1.004   1.798  10.120 -1.3324 -0.6168  0.4142
  112OSM   H10T11603   1.100   1.960  10.079 -0.2086 -1.2534 -0.5560
  112OSM   C11S11604   0.948   1.931   9.944 -0.4227 -0.2246 -0.3304
  112OSM   H11S11605   0.925   2.038   9.927  2.1139 -0.0375 -2.9109
  112OSM   H11T11606   0.851   1.875   9.940 -0.8375  0.4315  0.3914
  112OSM   C12S11607   1.039   1.882   9.839 -0.6759  0.2088 -0.1031
  112OSM   H12S11608   1.046   1.771   9.833 -0.8423  0.1858  0.1388
  112OSM   H12T11609   1.144   1.903   9.870 -0.3751 -1.0341 -0.2701
  112OSM   C13S11610   1.018   1.938   9.695 -0.0952  0.0845  0.0407
  112OSM   H13S11611   1.020   2.049   9.704  2.0210  0.2800 -2.4961
  112OSM   H13T11612   0.917   1.906   9.660  0.8864 -2.1696 -0.8061
  112OSM   C14S11613   1.120   1.886   9.589 -0.6855 -0.3062  0.2627
  112OSM   H14S11614   1.100   1.777   9.577 -1.7849 -0.1987  1.0411
  112OSM   H14T11615   1.227   1.893   9.618 -0.8815 -2.2260  1.5365
  112OSM   C15S11616   1.109   1.951   9.454  0.3657 -0.5921  0.1104
  112OSM   H15S11617   1.108   2.062   9.463  0.1326 -0.7125  1.9451
  112OSM   H15T11618   1.007   1.933   9.413  0.7689  0.7711 -1.5334
  112OSM   C16S11619   1.218   1.899   9.359 -0.8477 -0.0614 -0.5201
  112OSM   H16S11620   1.216   1.788   9.369  1.5873  0.1373  2.9548
  112OSM   H16T11621   1.320   1.930   9.390 -1.9702  2.4521  0.7735
  112OSM   C17S11622   1.205   1.939   9.212  0.1586 -0.2310 -0.2126
  112OSM   H17S11623   1.218   2.049   9.202  0.6750 -0.2567  0.1575
  112OSM   H17T11624   1.106   1.924   9.165 -0.3877 -0.6853  1.0697
  112OSM   C18S11625   1.300   1.869   9.118  0.8328  0.5000  0.1699
  112OSM   H18S11626   1.272   1.882   9.011  1.0616  1.1571  0.1916
  112OSM   H18T11627   1.314   1.763   9.149  1.2071  1.2289  2.6040
  112OSM   H18U11628   1.400   1.915   9.130  2.3265 -2.3247 -0.9435
  112OSM    C1F11629   0.471   2.450  10.456 -0.4705  0.4918  0.4204
  112OSM     OF11630   0.551   2.520  10.392 -0.1818  0.9257 -0.8335
  112OSM    C2F11631   0.337   2.421  10.405 -0.3708  0.1690  0.3787
  112OSM    H2F11632   0.257   2.475  10.460  1.5637  1.9566  1.4663
  112OSM    H2G11633   0.323   2.311  10.399 -1.0178  0.2838 -0.2680
  112OSM    C3F11634   0.331   2.468  10.256  0.4656  0.5759  0.4426
  112OSM    H3F11635   0.417   2.435  10.195 -2.2641 -1.4339 -2.5135
  112OSM    H3G11636   0.333   2.579  10.251 -2.0692  0.7254  1.8370
  112OSM    C4F11637   0.206   2.410  10.185  0.4480  0.1829  0.5387
  112OSM    H4F11638   0.115   2.450  10.234  0.0684 -2.4510  2.0645
  112OSM    H4G11639   0.204   2.300  10.175 -1.0606  0.5244 -4.1666
  112OSM    C5F11640   0.193   2.450  10.040 -0.4431  0.1659 -0.0469
  112OSM    H5F11641   0.288   2.438   9.983 -0.8719  2.0415 -1.2137
  112OSM    H5G11642   0.166   2.558  10.041  2.6469  0.9882 -1.1006
  112OSM    C6F11643   0.099   2.356   9.962  0.4883  0.3148  0.0086
  112OSM    H6F11644   0.023   2.314  10.032  0.1081  0.0518 -0.5655
  112OSM    H6G11645   0.158   2.265   9.939  1.9825  1.6975 -1.6988
  112OSM    C7F11646   0.058   2.408   9.828  0.3894 -0.1433 -0.2515
  112OSM    H7F11647   0.141   2.457   9.772  0.7771 -1.0240 -0.4606
  112OSM    H7G11648  -0.010   2.494   9.846  0.1698 -0.0895 -1.3017
  112OSM    C8F11649  -0.020   2.305   9.749  0.0564  0.1364 -0.3473
  112OSM    H8F11650  -0.113   2.266   9.795 -0.3375  0.3034 -0.9929
  112OSM    H8G11651   0.050   2.219   9.745 -2.9255 -2.3802 -0.8502
  112OSM    C9F11652  -0.053   2.362   9.613 -0.1916  0.1468 -0.5705
  112OSM    H9F11653  -0.152   2.410   9.605 -1.5064 -1.8420  2.9012
  112OSM   C10F11654   0.037   2.361   9.513 -0.3178 -0.9747  0.1712
  112OSM   H10F11655   0.009   2.415   9.422 -1.2161 -0.2766  0.8572
  112OSM   C11F11656   0.182   2.314   9.522 -0.6658 -0.4368 -0.0880
  112OSM   H11F11657   0.187   2.204   9.536  0.3828 -0.5749 -1.3805
  112OSM   H11G11658   0.236   2.357   9.609 -0.4504  0.4295 -0.6500
  112OSM   C12F11659   0.267   2.368   9.401  0.2750  0.1739  0.1803
  112OSM   H12F11660   0.374   2.350   9.428 -0.2983 -2.2455  0.8990
  112OSM   H12G11661   0.264   2.478   9.381 -0.9626  0.1227  0.0784
  112OSM   C13F11662   0.245   2.294   9.271 -0.2375 -0.1530  0.0410
  112OSM   H13F11663   0.145   2.323   9.233  0.1918  1.0583 -0.1951
  112OSM   H13G11664   0.244   2.184   9.285  0.1088 -0.1501  0.0876
  112OSM   C14F11665   0.341   2.335   9.160 -0.2172  0.2434  0.4659
  112OSM   H14F11666   0.446   2.317   9.194 -0.2590 -0.4551  0.2154
  112OSM   H14G11667   0.337   2.442   9.132 -0.2071  0.3952  1.0336
  112OSM   C15F11668   0.320   2.244   9.035  0.3492 -0.9392 -0.0778
  112OSM   H15F11669   0.217   2.260   8.996  0.8434  0.3589 -0.8614
  112OSM   H15G11670   0.347   2.139   9.058  0.8616 -0.5338  1.1879
  112OSM   C16F11671   0.412   2.285   8.923  0.6039 -0.1151 -0.2005
  112OSM   H16F11672   0.518   2.290   8.955  0.3916 -0.3288  0.5399
  112OSM   H16G11673   0.378   2.386   8.890 -0.6484  0.2158  2.0194
  112OSM   C17F11674   0.422   2.194   8.797  0.3408 -0.4746 -0.0233
  112OSM   H17F11675   0.337   2.206   8.726  1.8984  0.6620 -1.7685
  112OSM   H17G11676   0.431   2.087   8.822  2.8217 -0.0689  0.9610
  112OSM   C18F11677   0.548   2.226   8.724 -0.4752 -0.8272 -0.0340
  112OSM   H18F11678   0.557   2.336   8.713 -1.1374 -0.7514  0.1909
  112OSM   H18G11679   0.552   2.182   8.622  1.9543  0.6513 -0.6375
  112OSM   H18H11680   0.632   2.186   8.785  3.3653  2.6289 -2.7486
  113OSM      N11681   0.968   1.459  11.268  0.6339 -0.3786 -0.4521
  113OSM    C1511682   0.899   1.538  11.377 -0.1950  0.3079  0.2698
  113OSM   H15A11683   0.957   1.625  11.406  0.4869  0.2063 -0.7433
  113OSM   H15B11684   0.881   1.475  11.464 -0.0467  2.5646  1.9783
  113OSM   H15C11685   0.799   1.566  11.350 -0.1630 -0.2327 -0.4275
  113OSM    C1411686   0.886   1.334  11.260  1.0580 -0.4712  0.0404
  113OSM   H14A11687   0.921   1.275  11.176  1.9716  0.7082 -0.4207
  113OSM   H14B11688   0.781   1.355  11.247  0.7309 -1.8759  0.3039
  113OSM   H14C11689   0.897   1.273  11.348  1.9798 -1.9513 -1.0728
  113OSM    C1311690   0.955   1.536  11.144  0.0114  0.0408 -0.1441
  113OSM   H13A11691   0.855   1.545  11.104 -0.0907  2.1265  0.5397
  113OSM   H13B11692   1.030   1.499  11.075  0.8462 -0.1962  0.8637
  113OSM   H13C11693   0.973   1.640  11.166 -0.2828  0.4080 -1.6009
  113OSM    C1211694   1.109   1.429  11.316  0.8335 -0.1337 -0.1803
  113OSM   H12A11695   1.101   1.371  11.407  0.2459  0.0182 -0.1393
  113OSM   H12B11696   1.148   1.525  11.345  1.7633 -0.7535  0.6457
  113OSM    C1111697   1.212   1.363  11.225 -0.2809 -0.0231  0.1279
  113OSM   H11A11698   1.186   1.257  11.205 -2.0262  0.2265  1.0446
  113OSM   H11B11699   1.310   1.374  11.277 -0.3820 -1.7565  0.7172
  113OSM      P11700   1.305   1.543  11.052 -0.2399  0.4707 -0.1215
  113OSM    O1311701   1.243   1.656  11.120 -0.2548  0.3295  0.6661
  113OSM    O1411702   1.451   1.532  11.063 -0.0196 -0.0644 -0.5807
  113OSM    O1111703   1.250   1.569  10.898 -0.5147 -0.0397 -0.1203
  113OSM    O1211704   1.227   1.412  11.093 -0.7787 -0.0134  0.2454
  113OSM    C1S11705   1.303   1.480  10.796 -0.2325  0.8271 -0.0224
  113OSM    H1S11706   1.253   1.382  10.811  0.9847  0.1955 -0.0167
  113OSM    H1T11707   1.414   1.473  10.794 -0.1497  2.1270 -3.1926
  113OSM     NF11708   1.300   1.441  10.561  0.5582  0.0499 -0.0350
  113OSM    HNF11709   1.395   1.445  10.530  1.2598  0.8470  2.1812
  113OSM    C2S11710   1.265   1.537  10.655  0.2778 -0.3566  0.3550
  113OSM    H2S11711   1.154   1.537  10.648  0.3831 -1.1258 -1.7431
  113OSM    C3S11712   1.327   1.679  10.619  0.1890 -0.5578 -0.1706
  113OSM    H3S11713   1.437   1.669  10.621  0.0440 -2.2576  1.5268
  113OSM     O311714   1.309   1.771  10.722  0.0762 -0.2405  0.1832
  113OSM    HO311715   1.268   1.719  10.792  0.4075  0.9488  1.3070
  113OSM    C4S11716   1.286   1.726  10.480  0.5265  0.1587 -0.4088
  113OSM    H4S11717   1.177   1.736  10.473  0.2397 -2.7094 -0.5262
  113OSM    C5S11718   1.367   1.779  10.387  0.0482 -0.1724  0.1296
  113OSM    H5S11719   1.474   1.788  10.411 -0.1074  0.0139  0.7713
  113OSM    C6S11720   1.329   1.827  10.245 -0.3885 -0.2903 -0.8625
  113OSM    H6S11721   1.301   1.934  10.245 -0.6662 -0.3471 -2.2522
  113OSM    H6T11722   1.237   1.775  10.211 -0.2845 -1.2108  0.2161
  113OSM    C7S11723   1.450   1.816  10.150  0.0191 -0.2595 -0.1859
  113OSM    H7S11724   1.484   1.711  10.141  0.5195 -0.0884 -0.2885
  113OSM    H7T11725   1.526   1.879  10.200 -2.3415  1.3565  1.4863
  113OSM    C8S11726   1.412   1.864  10.012 -0.2088 -0.0900 -0.5113
  113OSM    H8S11727   1.372   1.967  10.017 -0.3842 -0.2019  0.4949
  113OSM    H8T11728   1.340   1.797   9.959 -0.4081  0.9272 -1.5577
  113OSM    C9S11729   1.544   1.869   9.926 -0.1383  0.2645 -0.3086
  113OSM    H9S11730   1.591   1.771   9.949 -0.9904 -0.2292 -0.6486
  113OSM    H9T11731   1.601   1.954   9.970  1.7012 -0.2149 -1.6727
  113OSM   C10S11732   1.503   1.896   9.784  0.0340  0.3392 -0.1169
  113OSM   H10S11733   1.458   1.997   9.780 -1.0394 -0.0314  1.7890
  113OSM   H10T11734   1.425   1.825   9.749  1.6769 -0.7612 -1.5844
  113OSM   C11S11735   1.618   1.869   9.687  0.2864  0.6612 -0.0564
  113OSM   H11S11736   1.683   1.787   9.723  0.2547  0.6654  0.0072
  113OSM   H11T11737   1.677   1.963   9.692 -0.0375  0.9261 -0.9996
  113OSM   C12S11738   1.570   1.852   9.543  0.2181 -0.6691  0.2704
  113OSM   H12S11739   1.547   1.955   9.511 -0.2590 -0.4904  1.1809
  113OSM   H12T11740   1.485   1.781   9.549 -0.0628 -0.2661  1.0895
  113OSM   C13S11741   1.675   1.793   9.440  0.2816 -0.2089 -0.3957
  113OSM   H13S11742   1.724   1.701   9.478  0.3642  0.5179  1.3245
  113OSM   H13T11743   1.752   1.872   9.427 -1.4389  1.6437  0.3249
  113OSM   C14S11744   1.589   1.763   9.310 -0.0202 -0.2005  0.5782
  113OSM   H14S11745   1.517   1.847   9.296  0.6845  0.1610 -1.0471
  113OSM   H14T11746   1.534   1.668   9.327  0.2430 -0.0598  2.3184
  113OSM   C15S11747   1.681   1.743   9.184  0.9307  0.2867  0.3247
  113OSM   H15S11748   1.746   1.833   9.183  1.6335 -0.1586  2.3364
  113OSM   H15T11749   1.624   1.738   9.089  0.1242  0.5318  0.7917
  113OSM   C16S11750   1.775   1.627   9.195  0.2114 -0.3700  0.4312
  113OSM   H16S11751   1.712   1.542   9.228 -0.7938 -0.1478 -0.8816
  113OSM   H16T11752   1.854   1.649   9.270  0.7499  1.2204 -0.5854
  113OSM   C17S11753   1.851   1.606   9.062 -0.1220 -0.5275  0.5250
  113OSM   H17S11754   1.923   1.527   9.092  0.4582  0.0596  0.6999
  113OSM   H17T11755   1.907   1.702   9.052 -0.4545 -0.2455  1.3551
  113OSM   C18S11756   1.778   1.553   8.942 -0.4848 -0.6600  0.2929
  113OSM   H18S11757   1.843   1.487   8.880 -1.3705 -1.2882  0.0167
  113OSM   H18T11758   1.748   1.642   8.882  1.0758 -0.2667  0.0959
  113OSM   H18U11759   1.697   1.485   8.978 -0.8791 -0.7194 -0.6756
  113OSM    C1F11760   1.222   1.331  10.545 -0.0797  0.3387  0.0224
  113OSM     OF11761   1.124   1.312  10.611 -0.2296 -0.5319 -0.3659
  113OSM    C2F11762   1.294   1.225  10.460  0.1973  0.5433  0.2530
  113OSM    H2F11763   1.354   1.162  10.528 -1.8530 -0.6874  0.9922
  113OSM    H2G11764   1.365   1.284  10.399  0.6917  0.2905  0.5875
  113OSM    C3F11765   1.198   1.135  10.373 -0.2941  0.0870 -0.0866
  113OSM    H3F11766   1.142   1.070  10.443  1.6758  2.2013  3.6318
  113OSM    H3G11767   1.265   1.070  10.313  0.8116  0.0820  1.1127
  113OSM    C4F11768   1.112   1.220  10.281  0.2779  0.1713  0.2489
  113OSM    H4F11769   1.048   1.294  10.334  0.5952  0.0041  0.8675
  113OSM    H4G11770   1.037   1.156  10.231  1.5636 -1.6015  0.5285
  113OSM    C5F11771   1.197   1.294  10.183  0.4687  0.0774  0.8361
  113OSM    H5F11772   1.262   1.218  10.135  0.8032  1.8251 -1.5839
  113OSM    H5G11773   1.253   1.373  10.238  2.6035 -0.1774 -0.8858
  113OSM    C6F11774   1.123   1.360  10.062 -0.1287  0.8134  1.0065
  113OSM    H6F11775   1.066   1.435  10.121 -1.2814 -0.7530  1.9300
  113OSM    H6G11776   1.058   1.285  10.013 -0.0292  0.5464  1.2754
  113OSM    C7F11777   1.211   1.424   9.950 -0.2905  0.7746 -0.3147
  113OSM    H7F11778   1.288   1.349   9.920  0.1150  0.6497  0.9980
  113OSM    H7G11779   1.267   1.507   9.997 -0.1784 -0.4462  1.7492
  113OSM    C8F11780   1.139   1.468   9.822  0.5360 -0.1939 -0.1667
  113OSM    H8F11781   1.041   1.512   9.852 -0.4115 -2.4862  0.1967
  113OSM    H8G11782   1.106   1.376   9.769 -0.4826 -1.1687  2.1352
  113OSM    C9F11783   1.221   1.564   9.742 -0.0499 -0.4398 -0.6279
  113OSM    H9F11784   1.212   1.670   9.771 -2.8663 -0.8001  0.0326
  113OSM   C10F11785   1.302   1.528   9.638 -0.2875 -0.0393 -0.2362
  113OSM   H10F11786   1.350   1.609   9.582  1.9341 -0.6344  0.7402
  113OSM   C11F11787   1.315   1.390   9.579  0.0211 -0.5513  0.0738
  113OSM   H11F11788   1.273   1.311   9.645  2.3106 -1.3529  0.6054
  113OSM   H11G11789   1.420   1.359   9.564  0.0431 -0.8830  0.8751
  113OSM   C12F11790   1.233   1.371   9.450 -0.2184  0.2664 -0.3480
  113OSM   H12F11791   1.126   1.401   9.464  0.1679  0.6335  1.9227
  113OSM   H12G11792   1.226   1.266   9.414 -2.0004  0.6411 -1.1496
  113OSM   C13F11793   1.276   1.449   9.324 -0.4667 -0.4304 -0.0658
  113OSM   H13F11794   1.250   1.553   9.350  0.2416 -0.3441  0.2865
  113OSM   H13G11795   1.205   1.405   9.250 -0.2894 -2.1328  0.7575
  113OSM   C14F11796   1.421   1.429   9.286  0.4108  0.1661  0.5886
  113OSM   H14F11797   1.501   1.466   9.354  1.2468  1.4970 -1.0623
  113OSM   H14G11798   1.431   1.485   9.190  2.4376 -0.4501  0.4103
  113OSM   C15F11799   1.451   1.282   9.249  0.0723  0.2498 -0.5596
  113OSM   H15F11800   1.387   1.250   9.164  1.3878  1.0239 -1.8888
  113OSM   H15G11801   1.430   1.228   9.343  0.0690  2.0661  0.5126
  113OSM   C16F11802   1.596   1.251   9.207 -1.1188  0.1759 -0.0619
  113OSM   H16F11803   1.675   1.284   9.277 -1.4749  0.1090  0.3770
  113OSM   H16G11804   1.608   1.307   9.111  0.1322 -0.0158 -0.0230
  113OSM   C17F11805   1.613   1.105   9.173 -0.1739 -0.0465  0.6098
  113OSM   H17F11806   1.548   1.067   9.092  1.2483 -2.2272  0.4417
  113OSM   H17G11807   1.601   1.041   9.263  1.6135  2.1601  2.4927
  113OSM   C18F11808   1.749   1.086   9.108  0.0571 -0.7332  0.0895
  113OSM   H18F11809   1.774   1.148   9.020  1.7243 -0.9659  0.3816
  113OSM   H18G11810   1.763   0.983   9.069  0.5476 -0.6841  0.1348
  113OSM   H18H11811   1.827   1.111   9.183  0.9226  0.1440 -1.0926
  114OSM      N11812   2.415   0.450  11.958 -0.7458  0.2956 -0.3824
  114OSM    C1511813   2.441   0.588  11.987  0.6485 -0.3229 -0.1708
  114OSM   H15A11814   2.352   0.646  11.966  1.4382  1.1538  0.4765
  114OSM   H15B11815   2.516   0.631  11.922  0.7626 -1.1294 -0.5828
  114OSM   H15C11816   2.470   0.606  12.089 -0.0502 -2.9274  0.5244
  114OSM    C1411817   2.537   0.372  11.981  0.2097 -0.2467 -0.0958
  114OSM   H14A11818   2.521   0.273  11.942 -0.0933 -0.0671 -0.4246
  114OSM   H14B11819   2.556   0.366  12.088 -3.0538  0.1909  0.5610
  114OSM   H14C11820   2.617   0.413  11.922  0.6366 -0.6827  0.1792
  114OSM    C1311821   2.308   0.403  12.057  0.2851 -0.1399  0.9180
  114OSM   H13A11822   2.353   0.397  12.155  1.1225 -1.1273  0.4855
  114OSM   H13B11823   2.276   0.307  12.019  1.4503  0.2457 -1.0789
  114OSM   H13C11824   2.223   0.469  12.070  1.1242  1.5250 -1.7176
  114OSM    C1211825   2.380   0.440  11.813  0.5194  0.0109 -0.3019
  114OSM   H12A11826   2.465   0.457  11.749  0.9574 -1.9304 -0.2515
  114OSM   H12B11827   2.304   0.515  11.793  0.3996 -0.3417 -1.1848
  114OSM    C1111828   2.328   0.298  11.759 -0.2133  0.1007 -0.5777
  114OSM   H11A11829   2.286   0.311  11.657  0.9842 -2.3851 -1.4301
  114OSM   H11B11830   2.253   0.255  11.828 -0.2262  0.0933 -0.5960
  114OSM      P11831   2.531   0.211  11.636  0.0729 -0.1703 -0.3776
  114OSM    O1311832   2.670   0.188  11.691  0.3129  0.1357 -0.0135
  114OSM    O1411833   2.485   0.118  11.536 -0.2861 -0.3090  0.1128
  114OSM    O1111834   2.519   0.349  11.567 -0.0248 -0.4783  0.4170
  114OSM    O1211835   2.430   0.206  11.759  0.0591 -0.0800  0.4764
  114OSM    C1S11836   2.593   0.393  11.456  0.3789  0.1774 -0.7838
  114OSM    H1S11837   2.697   0.353  11.457  0.4927  0.4847  0.4275
  114OSM    H1T11838   2.595   0.504  11.460  0.2909  0.1492  0.0577
  114OSM     NF11839   2.610   0.378  11.210 -0.6999  0.4545  0.3089
  114OSM    HNF11840   2.623   0.467  11.167  0.5138  0.1495  0.0368
  114OSM    C2S11841   2.521   0.359  11.319  0.6214 -0.5559 -0.5721
  114OSM    H2S11842   2.483   0.255  11.329  0.1773 -0.3478 -0.0813
  114OSM    C3S11843   2.391   0.443  11.312 -0.0394 -0.1688 -0.1777
  114OSM    H3S11844   2.408   0.552  11.321  3.9148 -0.8034  1.0842
  114OSM     O311845   2.306   0.408  11.419  0.1496  0.0654  0.0485
  114OSM    HO311846   2.360   0.345  11.468  0.4083 -0.5652 -1.0257
  114OSM    C4S11847   2.315   0.424  11.185 -0.4765  0.2414  0.2831
  114OSM    H4S11848   2.277   0.321  11.179 -1.0091  0.2852  2.6615
  114OSM    C5S11849   2.300   0.524  11.096 -0.7216 -0.0017  0.6880
  114OSM    H5S11850   2.361   0.612  11.122 -1.5196  1.2162 -1.4474
  114OSM    C6S11851   2.241   0.516  10.959  0.0306  0.9577  0.0634
  114OSM    H6S11852   2.196   0.617  10.945 -1.0235  0.7403  1.7942
  114OSM    H6T11853   2.168   0.433  10.951 -0.5162  1.5338 -1.2454
  114OSM    C7S11854   2.368   0.499  10.874  0.2102 -0.2268  0.2295
  114OSM    H7S11855   2.411   0.398  10.892 -1.5469 -1.1629 -0.7229
  114OSM    H7T11856   2.455   0.556  10.914  0.4358 -1.6584  1.8594
  114OSM    C8S11857   2.349   0.520  10.721 -0.0473  0.5544  0.1284
  114OSM    H8S11858   2.290   0.436  10.678  1.7098 -1.0473  0.8018
  114OSM    H8T11859   2.443   0.507  10.665 -1.6757  1.1876 -2.8910
  114OSM    C9S11860   2.307   0.662  10.676 -0.2750 -0.0960  0.2582
  114OSM    H9S11861   2.336   0.747  10.741 -0.1946 -0.3458  0.5571
  114OSM    H9T11862   2.197   0.654  10.662 -0.0941  0.8691 -1.8579
  114OSM   C10S11863   2.357   0.701  10.532 -0.3360  1.1086 -0.1741
  114OSM   H10S11864   2.467   0.690  10.545 -0.4558 -0.7292 -0.6412
  114OSM   H10T11865   2.328   0.808  10.523  0.9448  1.4681 -0.1363
  114OSM   C11S11866   2.296   0.615  10.417  0.0366 -0.2819  0.5747
  114OSM   H11S11867   2.192   0.653  10.421  0.8761  2.2444 -0.3238
  114OSM   H11T11868   2.300   0.507  10.440 -0.2856 -0.6180 -0.8632
  114OSM   C12S11869   2.350   0.639  10.278 -0.1181  0.2660  0.0152
  114OSM   H12S11870   2.314   0.565  10.202  2.2436 -0.7602 -0.1523
  114OSM   H12T11871   2.460   0.628  10.280 -0.2753 -1.6500 -0.5930
  114OSM   C13S11872   2.316   0.785  10.224 -1.0476  0.7981  0.0009
  114OSM   H13S11873   2.384   0.810  10.140  1.3787 -1.3002  1.2582
  114OSM   H13T11874   2.341   0.859  10.303  1.3282  0.7754 -0.7113
  114OSM   C14S11875   2.171   0.801  10.188 -0.1261  0.4485 -0.3126
  114OSM   H14S11876   2.101   0.751  10.259  1.0107  0.4876  0.8727
  114OSM   H14T11877   2.145   0.740  10.099  0.3193 -1.3865  0.7859
  114OSM   C15S11878   2.137   0.949  10.185  0.0679 -0.2455 -0.1756
  114OSM   H15S11879   2.199   0.986  10.101  1.1851 -0.6095  0.4690
  114OSM   H15T11880   2.170   0.995  10.281  1.3901 -2.4812  0.4967
  114OSM   C16S11881   1.983   0.978  10.167  0.6216  0.7721  0.3548
  114OSM   H16S11882   1.974   1.087  10.188 -1.9500  0.3378  1.7140
  114OSM   H16T11883   1.923   0.925  10.243 -1.9024 -1.4118 -3.0226
  114OSM   C17S11884   1.923   0.934  10.035  0.7415 -0.4549  0.9195
  114OSM   H17S11885   1.815   0.960  10.039  1.0184  0.9308 -0.0548
  114OSM   H17T11886   1.932   0.824  10.024  1.2538 -0.5530  2.1835
  114OSM   C18S11887   1.977   1.016   9.914 -0.0048 -0.6555  0.0982
  114OSM   H18S11888   1.919   0.994   9.822  0.7442 -1.8526 -0.0984
  114OSM   H18T11889   2.084   0.987   9.906  0.5449  1.4536 -0.5700
  114OSM   H18U11890   1.976   1.125   9.935  2.3554 -0.1782 -2.0888
  114OSM    C1F11891   2.683   0.282  11.169 -0.7886 -0.2637  0.1966
  114OSM     OF11892   2.676   0.177  11.234 -0.2887  0.4470 -0.1061
  114OSM    C2F11893   2.779   0.300  11.052  0.0118 -0.2373  0.3268
  114OSM    H2F11894   2.848   0.214  11.044  0.5538 -0.0800  2.8511
  114OSM    H2G11895   2.842   0.392  11.055  1.2713 -1.0991  0.3438
  114OSM    C3F11896   2.692   0.298  10.918  0.1660  0.1165  0.8880
  114OSM    H3F11897   2.638   0.395  10.910 -2.0027 -1.1400 -0.1445
  114OSM    H3G11898   2.626   0.208  10.922  0.3060  0.0440  1.6159
  114OSM    C4F11899   2.783   0.280  10.798  0.2207  0.0322  0.5699
  114OSM    H4F11900   2.824   0.177  10.794  0.3144  0.0982 -0.2320
  114OSM    H4G11901   2.876   0.340  10.805 -0.2553  0.7493  0.9022
  114OSM    C5F11902   2.702   0.298  10.661 -0.4342  0.2713 -0.4348
  114OSM    H5F11903   2.594   0.283  10.680 -0.1378 -0.1102  0.9645
  114OSM    H5G11904   2.745   0.229  10.584 -1.1835 -0.1408 -0.4911
  114OSM    C6F11905   2.720   0.441  10.607  0.0437  0.4958 -0.5853
  114OSM    H6F11906   2.825   0.460  10.579  0.6841 -2.7279 -0.4915
  114OSM    H6G11907   2.689   0.526  10.671 -0.8367  1.8016 -2.6876
  114OSM    C7F11908   2.630   0.452  10.476 -0.4131 -0.4600  0.1407
  114OSM    H7F11909   2.616   0.558  10.447  0.8754 -0.4619 -0.5444
  114OSM    H7G11910   2.528   0.410  10.489 -0.3890 -0.4979  0.2094
  114OSM    C8F11911   2.689   0.382  10.348 -0.1688  0.5372 -0.7318
  114OSM    H8F11912   2.607   0.373  10.273  0.3441  1.5763 -1.4314
  114OSM    H8G11913   2.716   0.278  10.379 -0.2396  0.0324 -2.3051
  114OSM    C9F11914   2.810   0.457  10.299 -0.1129 -0.6933  0.5274
  114OSM    H9F11915   2.894   0.457  10.370  1.0181  0.6140 -0.7575
  114OSM   C10F11916   2.837   0.501  10.174 -0.5083  0.0773  0.4607
  114OSM   H10F11917   2.927   0.550  10.136 -1.2487  0.6205 -0.6126
  114OSM   C11F11918   2.747   0.491  10.056  0.5476 -0.3963  0.2394
  114OSM   H11F11919   2.644   0.457  10.080  0.8090 -2.2819 -1.1657
  114OSM   H11G11920   2.780   0.407   9.991  0.9366  0.1197 -0.2260
  114OSM   C12F11921   2.728   0.609   9.964  0.3153 -0.0140  0.6669
  114OSM   H12F11922   2.699   0.569   9.864 -1.2770  0.0881  1.0767
  114OSM   H12G11923   2.819   0.669   9.942  0.6329 -1.0645 -0.9622
  114OSM   C13F11924   2.630   0.713  10.006 -0.3389 -0.4325  0.0813
  114OSM   H13F11925   2.691   0.778  10.073  3.8698 -2.1345 -1.9810
  114OSM   H13G11926   2.538   0.674  10.055  0.9447 -1.1213  2.0105
  114OSM   C14F11927   2.584   0.811   9.895 -1.4002  0.0687  0.0227
  114OSM   H14F11928   2.677   0.851   9.849 -1.6246  0.2567 -0.2671
  114OSM   H14G11929   2.537   0.892   9.954 -0.0177  1.5840 -0.9142
  114OSM   C15F11930   2.483   0.767   9.791  0.8136 -0.1970  0.0447
  114OSM   H15F11931   2.527   0.703   9.711  0.4858  0.8661 -0.9987
  114OSM   H15G11932   2.447   0.852   9.728 -1.9147 -1.3135  0.0044
  114OSM   C16F11933   2.360   0.696   9.855 -0.7390 -0.1760  0.3256
  114OSM   H16F11934   2.306   0.759   9.928  0.8693  0.9091  0.5857
  114OSM   H16G11935   2.395   0.606   9.909 -0.2223  0.7852  1.6010
  114OSM   C17F11936   2.261   0.631   9.751  0.4365 -0.1308  0.2325
  114OSM   H17F11937   2.311   0.572   9.671  0.1944 -0.7303  0.5168
  114OSM   H17G11938   2.205   0.712   9.701 -1.9637 -0.5766  2.0959
  114OSM   C18F11939   2.148   0.549   9.814  0.3660  0.6344  0.0112
  114OSM   H18F11940   2.087   0.509   9.731 -0.2046 -1.2375  1.2973
  114OSM   H18G11941   2.067   0.609   9.862 -1.9918 -0.9484 -1.9323
  114OSM   H18H11942   2.185   0.461   9.871  0.3644  0.6553  0.0431
  115OSM      N11943   3.209   3.705   6.284  0.7547 -0.4281 -0.8174
  115OSM    C1511944   3.140   3.692   6.150  0.3222  0.4340  0.2010
  115OSM   H15A11945   3.191   3.721   6.059  3.4959 -0.7236  1.5309
  115OSM   H15B11946   3.045   3.742   6.155 -0.0783 -0.2178 -0.7060
  115OSM   H15C11947   3.112   3.588   6.143  2.5878 -0.1054 -1.6074
  115OSM    C1411948   3.190   3.852   6.325  0.2319 -0.0111  0.1141
  115OSM   H14A11949   3.094   3.883   6.289  0.1045 -0.3154  0.1943
  115OSM   H14B11950   3.270   3.915   6.287 -0.0924 -0.8466 -2.0072
  115OSM   H14C11951   3.199   3.843   6.432  1.8230  0.5453  0.0462
  115OSM    C1311952   3.134   3.614   6.379 -0.5876 -0.3625 -0.3380
  115OSM   H13A11953   3.142   3.509   6.356  0.9211 -0.2200 -0.5279
  115OSM   H13B11954   3.033   3.650   6.389  0.0025  1.4209 -0.5226
  115OSM   H13C11955   3.165   3.623   6.482 -1.5499 -1.0079  0.0097
  115OSM    C1211956   3.357   3.664   6.264  0.5589 -0.1326  0.0209
  115OSM   H12A11957   3.358   3.563   6.227  0.0127  0.3752 -1.4325
  115OSM   H12B11958   3.404   3.650   6.360  2.8196  2.9190 -0.5720
  115OSM    C1111959   3.454   3.751   6.181  0.1904  0.4348 -1.1084
  115OSM   H11A11960   3.417   3.755   6.076 -0.9035 -0.9426 -0.7795
  115OSM   H11B11961   3.546   3.688   6.181 -0.3956 -0.4418  0.5272
  115OSM      P11962   3.586   3.905   6.344  0.0523  0.1154  0.1455
  115OSM    O1311963   3.712   3.861   6.289  0.1258 -0.4621 -0.0526
  115OSM    O1411964   3.572   4.047   6.387 -0.3191  0.3321 -0.3212
  115OSM    O1111965   3.529   3.806   6.454  0.7376 -0.6093 -0.8377
  115OSM    O1211966   3.480   3.888   6.227  0.1237 -0.1939  0.3271
  115OSM    C1S11967   3.603   3.729   6.547  0.4306  0.0104 -0.0591
  115OSM    H1S11968   3.711   3.754   6.553  0.1129  0.9999  2.3328
  115OSM    H1T11969   3.587   3.620   6.533 -0.7964  0.0623  0.8211
  115OSM     NF11970   3.638   3.708   6.797 -0.4652  0.4498  0.1170
  115OSM    HNF11971   3.610   3.631   6.854  2.8430 -1.6757 -1.0075
  115OSM    C2S11972   3.548   3.755   6.688  0.2562 -0.3406 -0.4904
  115OSM    H2S11973   3.536   3.865   6.697  1.9036 -0.2912  1.5877
  115OSM    C3S11974   3.408   3.687   6.707  0.6933 -0.1339 -0.0145
  115OSM    H3S11975   3.422   3.577   6.708 -0.4912 -0.2997 -0.9433
  115OSM     O311976   3.311   3.724   6.613 -0.1942  0.5971  0.1935
  115OSM    HO311977   3.363   3.726   6.532 -1.0699  0.5139 -0.3713
  115OSM    C4S11978   3.350   3.725   6.840 -0.7909  0.0032 -0.3121
  115OSM    H4S11979   3.374   3.827   6.871  1.2764 -0.2825 -0.8871
  115OSM    C5S11980   3.294   3.638   6.927  0.2010 -0.0334  0.2640
  115OSM    H5S11981   3.299   3.531   6.901  0.2741  0.1526 -0.5142
  115OSM    C6S11982   3.247   3.659   7.068 -0.3167  0.3763 -0.2004
  115OSM    H6S11983   3.328   3.632   7.138 -0.4732  0.0089 -0.1606
  115OSM    H6T11984   3.165   3.593   7.102  0.0454  0.0276 -0.0033
  115OSM    C7S11985   3.223   3.806   7.103 -0.6196  0.1688  0.1244
  115OSM    H7S11986   3.138   3.850   7.047 -0.7261 -1.3517 -0.9328
  115OSM    H7T11987   3.304   3.881   7.089 -0.0044 -0.4585  0.2557
  115OSM    C8S11988   3.198   3.814   7.260 -0.0709 -0.3516 -0.4033
  115OSM    H8S11989   3.271   3.743   7.304  1.6377  0.6210 -1.5946
  115OSM    H8T11990   3.097   3.776   7.286 -0.1810  1.1514  1.3972
  115OSM    C9S11991   3.229   3.957   7.303 -0.2249 -0.2323  0.6290
  115OSM    H9S11992   3.163   4.019   7.239 -1.8030 -1.7929  0.7060
  115OSM    H9T11993   3.335   3.975   7.275 -0.5544 -0.0531 -0.5618
  115OSM   C10S11994   3.224   3.995   7.455  0.1607  0.3402  0.3287
  115OSM   H10S11995   3.248   3.904   7.515 -1.5794 -0.8177 -0.6732
  115OSM   H10T11996   3.124   4.035   7.479  0.5047  1.5749 -0.2781
  115OSM   C11S11997   3.322   4.103   7.500  0.7667 -0.7560  0.2282
  115OSM   H11S11998   3.303   4.196   7.442 -0.5406 -0.5827  0.9276
  115OSM   H11T11999   3.432   4.094   7.488  0.5057 -2.7094 -0.8289
  115OSM   C12S12000   3.314   4.141   7.651  0.2464  0.1122  0.5047
  115OSM   H12S12001   3.340   4.048   7.708 -0.2177 -1.6326 -2.0360
  115OSM   H12T12002   3.207   4.159   7.676 -0.1649 -0.7549 -0.5740
  115OSM   C13S12003   3.413   4.248   7.696 -0.0241  0.2309 -0.3127
  115OSM   H13S12004   3.441   4.303   7.604 -0.1627 -0.9111 -1.0449
  115OSM   H13T12005   3.503   4.196   7.735 -1.2976 -0.9941  1.0566
  115OSM   C14S12006   3.368   4.327   7.816 -0.1369 -0.3127  0.5620
  115OSM   H14S12007   3.444   4.364   7.888  0.6825  0.6521 -0.7834
  115OSM   H14T12008   3.301   4.265   7.879 -0.9797 -0.3586 -0.3538
  115OSM   C15S12009   3.291   4.453   7.776 -0.1363  0.0573 -0.6486
  115OSM   H15S12010   3.186   4.422   7.759  0.0645 -1.3915  0.5868
  115OSM   H15T12011   3.337   4.485   7.680  0.2089 -1.9810 -1.1940
  115OSM   C16S12012   3.299   4.582   7.869  0.2910 -0.0396  1.0986
  115OSM   H16S12013   3.226   4.657   7.833  0.1746 -1.9977 -3.0241
  115OSM   H16T12014   3.399   4.631   7.863 -0.3194  1.1161  0.3578
  115OSM   C17S12015   3.257   4.545   8.007 -0.2815 -0.1974  0.3074
  115OSM   H17S12016   3.338   4.480   8.048 -0.4912  0.2166  1.4098
  115OSM   H17T12017   3.161   4.490   7.994  1.0983 -2.4516 -0.6476
  115OSM   C18S12018   3.228   4.658   8.113  0.1240  0.2856  0.0348
  115OSM   H18S12019   3.229   4.611   8.213 -1.4070  1.4889  0.6295
  115OSM   H18T12020   3.131   4.707   8.088  0.1568 -0.9004 -2.6120
  115OSM   H18U12021   3.314   4.727   8.105  1.8810 -1.8339  0.2762
  115OSM    C1F12022   3.765   3.747   6.804  0.3170  0.3387 -0.5810
  115OSM     OF12023   3.800   3.848   6.748 -0.5255  0.2469 -0.3600
  115OSM    C2F12024   3.852   3.679   6.905  0.8079 -0.4541 -0.6268
  115OSM    H2F12025   3.843   3.572   6.877  0.1437 -1.2838  2.5499
  115OSM    H2G12026   3.791   3.682   6.998  1.8859  2.4233  0.0598
  115OSM    C3F12027   3.999   3.721   6.923  0.1977  0.2587 -0.0440
  115OSM    H3F12028   3.995   3.826   6.959  2.4281  0.0885  0.7857
  115OSM    H3G12029   4.053   3.730   6.826  0.5527 -1.0890  0.0136
  115OSM    C4F12030   4.081   3.635   7.013  0.4078  0.0163 -0.3147
  115OSM    H4F12031   4.102   3.538   6.964 -1.1185 -0.5655  0.1305
  115OSM    H4G12032   4.015   3.601   7.097  0.7251  0.0985 -0.0316
  115OSM    C5F12033   4.205   3.698   7.067 -0.3004  0.2413 -0.3633
  115OSM    H5F12034   4.259   3.759   6.992  0.0717 -0.0761 -0.3560
  115OSM    H5G12035   4.269   3.618   7.111  3.2027  3.2252  0.2279
  115OSM    C6F12036   4.167   3.796   7.183  0.2496  0.1195 -0.2884
  115OSM    H6F12037   4.117   3.724   7.251  2.9792  0.4486  2.1594
  115OSM    H6G12038   4.090   3.861   7.136 -0.2233 -0.7742 -0.7793
  115OSM    C7F12039   4.287   3.864   7.248 -0.1480  0.2897 -0.0210
  115OSM    H7F12040   4.328   3.934   7.171 -0.4189  0.3337 -0.1269
  115OSM    H7G12041   4.372   3.799   7.274 -0.7301 -0.2959  0.4077
  115OSM    C8F12042   4.258   3.948   7.375 -0.3050 -0.8853 -0.3750
  115OSM    H8F12043   4.206   4.043   7.351 -1.0582 -1.5056 -1.2310
  115OSM    H8G12044   4.356   3.981   7.417 -0.4435  0.9429 -1.4547
  115OSM    C9F12045   4.167   3.878   7.477 -0.3866 -0.0603  0.1519
  115OSM    H9F12046   4.063   3.872   7.442 -0.2674  2.4744 -0.7292
  115OSM   C10F12047   4.208   3.832   7.599 -0.0510  0.2697 -0.4823
  115OSM   H10F12048   4.128   3.787   7.660  1.4331 -1.6824  0.0643
  115OSM   C11F12049   4.342   3.834   7.665 -0.7154 -0.2510 -0.0319
  115OSM   H11F12050   4.424   3.847   7.592 -0.4569  2.8712  0.7546
  115OSM   H11G12051   4.366   3.731   7.699  0.7703 -0.7688 -2.5495
  115OSM   C12F12052   4.366   3.934   7.777  0.0106 -0.0547  0.9431
  115OSM   H12F12053   4.342   4.035   7.738  0.6217 -0.3255 -0.1496
  115OSM   H12G12054   4.473   3.931   7.808 -0.0743 -3.3072  1.1430
  115OSM   C13F12055   4.273   3.897   7.895  0.2444  0.4039  0.0495
  115OSM   H13F12056   4.303   3.797   7.933 -1.3955  0.0125  0.3536
  115OSM   H13G12057   4.167   3.895   7.864  0.1542  0.4285  0.3599
  115OSM   C14F12058   4.282   3.995   8.012  0.2589  0.7902 -0.4046
  115OSM   H14F12059   4.249   4.095   7.977  1.1185  1.9910  2.1064
  115OSM   H14G12060   4.380   4.009   8.064  1.1214 -0.7776 -1.5675
  115OSM   C15F12061   4.178   3.955   8.125 -0.4739 -0.2291  0.0562
  115OSM   H15F12062   4.208   3.861   8.176 -2.5080 -1.7749 -1.4878
  115OSM   H15G12063   4.079   3.941   8.078 -1.1882  1.0879  1.1409
  115OSM   C16F12064   4.166   4.058   8.240  0.4670 -0.5669 -0.3705
  115OSM   H16F12065   4.143   4.159   8.200  1.4595  1.0816  2.9362
  115OSM   H16G12066   4.266   4.074   8.288  0.4532  0.0073 -0.5295
  115OSM   C17F12067   4.062   4.008   8.349  0.0416  0.9033  0.0921
  115OSM   H17F12068   4.046   3.899   8.335 -1.5602  1.2976 -1.3702
  115OSM   H17G12069   3.968   4.054   8.310  1.0934  2.7656 -0.3034
  115OSM   C18F12070   4.088   4.046   8.494  0.2251 -0.0961  0.5399
  115OSM   H18F12071   4.095   4.156   8.506 -2.2683  0.0523  0.9549
  115OSM   H18G12072   4.183   4.001   8.530  0.0333 -1.5652 -0.7401
  115OSM   H18H12073   4.005   4.021   8.563  0.5266  0.6312  1.1652
  116OSM      N12074   2.586   1.046   6.066 -1.0149  0.2584 -0.0814
  116OSM    C1512075   2.591   1.181   6.000 -0.3836 -0.3261 -0.6756
  116OSM   H15A12076   2.623   1.159   5.899 -1.2525 -0.0606 -1.0118
  116OSM   H15B12077   2.671   1.246   6.034 -1.1967  0.8925 -1.0517
  116OSM   H15C12078   2.498   1.236   5.999 -1.3887 -1.9807 -0.1056
  116OSM    C1412079   2.450   0.988   6.031 -0.1944  0.4872 -0.5331
  116OSM   H14A12080   2.447   1.013   5.926  1.8870  0.9928 -0.5055
  116OSM   H14B12081   2.379   1.052   6.080  0.4085  1.1607 -0.5259
  116OSM   H14C12082   2.465   0.885   6.060  0.9828  0.8116  0.0545
  116OSM    C1312083   2.693   0.952   6.014 -0.2312 -0.3331  0.0383
  116OSM   H13A12084   2.671   0.931   5.910 -1.0122 -1.0815  0.3512
  116OSM   H13B12085   2.692   0.860   6.069  3.1693 -0.6706 -0.3931
  116OSM   H13C12086   2.795   0.986   6.022 -0.0239 -1.2789  1.5465
  116OSM    C1212087   2.607   1.059   6.214 -0.0052  0.0281 -0.0903
  116OSM   H12A12088   2.629   0.962   6.257  1.0156 -0.2044 -1.1008
  116OSM   H12B12089   2.516   1.093   6.261 -2.1122 -1.2280 -3.0198
  116OSM    C1112090   2.716   1.152   6.278  1.0886 -0.2908 -0.7405
  116OSM   H11A12091   2.727   1.141   6.388  0.7493  2.4953 -0.3889
  116OSM   H11B12092   2.673   1.252   6.257 -2.8989 -1.7881 -0.0758
  116OSM      P12093   2.936   1.268   6.211 -0.0977  0.1417  0.2725
  116OSM    O1312094   3.071   1.239   6.161 -0.4871  0.1585 -0.1096
  116OSM    O1412095   2.862   1.363   6.124  1.2148  1.0095  0.0659
  116OSM    O1112096   2.940   1.332   6.359  0.6218 -0.4679  0.1447
  116OSM    O1212097   2.855   1.139   6.225  0.3068 -0.3903  0.4339
  116OSM    C1S12098   2.974   1.248   6.473 -0.0033 -0.0077  0.7124
  116OSM    H1S12099   3.083   1.226   6.472  0.0460  0.0389 -2.9480
  116OSM    H1T12100   2.932   1.146   6.461  0.4466 -0.3568  1.9879
  116OSM     NF12101   2.998   1.219   6.708 -0.2441 -0.6966  0.6121
  116OSM    HNF12102   2.942   1.144   6.741  1.6733 -1.5995  1.8944
  116OSM    C2S12103   2.938   1.309   6.609  0.3734 -0.0397 -0.5669
  116OSM    H2S12104   2.976   1.413   6.613  0.2581 -0.0460  1.0621
  116OSM    C3S12105   2.788   1.320   6.621  0.2799  0.2125 -0.2169
  116OSM    H3S12106   2.741   1.219   6.614  0.1234  0.0495  2.3664
  116OSM     O312107   2.729   1.389   6.517 -0.7745 -0.2104 -0.8266
  116OSM    HO312108   2.802   1.405   6.457  1.4067 -0.6393  1.6086
  116OSM    C4S12109   2.748   1.379   6.753 -0.1369  0.1154  0.2651
  116OSM    H4S12110   2.755   1.489   6.747 -0.0377 -0.0348 -3.5374
  116OSM    C5S12111   2.678   1.326   6.854 -0.3742  0.7705 -0.0199
  116OSM    H5S12112   2.659   1.219   6.841  3.2255 -0.0406  0.9235
  116OSM    C6S12113   2.622   1.388   6.976 -0.0392  0.2155  0.4647
  116OSM    H6S12114   2.646   1.496   6.974  1.4691 -0.1268 -0.1619
  116OSM    H6T12115   2.662   1.342   7.069 -1.6284  0.7613  1.4486
  116OSM    C7S12116   2.463   1.361   6.973 -0.0867  0.0975 -0.3416
  116OSM    H7S12117   2.440   1.254   6.954 -1.0524  0.6253 -2.2825
  116OSM    H7T12118   2.426   1.423   6.889  0.8389  0.3058 -0.5973
  116OSM    C8S12119   2.397   1.397   7.104  1.2053 -0.2158 -0.5090
  116OSM    H8S12120   2.287   1.390   7.092  1.2467 -1.3059 -0.3094
  116OSM    H8T12121   2.415   1.498   7.147 -1.5541  0.4727 -0.8664
  116OSM    C9S12122   2.429   1.296   7.214  0.2063 -0.3659 -0.3764
  116OSM    H9S12123   2.518   1.235   7.186 -0.9068 -2.0207 -0.3357
  116OSM    H9T12124   2.344   1.225   7.225 -0.1788 -0.0248 -1.1007
  116OSM   C10S12125   2.467   1.362   7.347  0.1785 -0.7959 -0.1648
  116OSM   H10S12126   2.391   1.440   7.368  3.0202  1.8348  0.7101
  116OSM   H10T12127   2.565   1.411   7.332 -0.0555 -0.6369 -1.2147
  116OSM   C11S12128   2.475   1.267   7.463 -0.3408  0.1371  0.4070
  116OSM   H11S12129   2.573   1.216   7.451  0.0568  1.2259 -1.1217
  116OSM   H11T12130   2.395   1.191   7.460 -0.8447  0.7265 -1.2565
  116OSM   C12S12131   2.476   1.342   7.594  0.0898 -0.0566 -0.2348
  116OSM   H12S12132   2.393   1.415   7.599 -0.0679 -0.1971 -0.7125
  116OSM   H12T12133   2.572   1.397   7.582  0.7519 -0.4623  2.8015
  116OSM   C13S12134   2.481   1.249   7.718  0.2492  0.0293 -0.1740
  116OSM   H13S12135   2.546   1.161   7.701 -1.7548 -1.4366 -0.4563
  116OSM   H13T12136   2.379   1.205   7.726 -0.3027  1.2385 -0.4297
  116OSM   C14S12137   2.516   1.335   7.850 -0.4332  0.5889  0.9561
  116OSM   H14S12138   2.466   1.434   7.844  0.4160  1.0641  1.6285
  116OSM   H14T12139   2.625   1.358   7.855  0.0013 -1.0762 -0.2256
  116OSM   C15S12140   2.478   1.260   7.978  0.4229 -0.4051  1.1433
  116OSM   H15S12141   2.540   1.168   7.971 -0.9928 -1.2982 -0.0432
  116OSM   H15T12142   2.371   1.230   7.980 -0.3152  2.0124 -0.2107
  116OSM   C16S12143   2.506   1.325   8.111 -0.4782  0.6230 -0.4767
  116OSM   H16S12144   2.612   1.351   8.133 -0.5156  0.9217 -0.6482
  116OSM   H16T12145   2.469   1.261   8.194  0.3882  1.2686  0.4288
  116OSM   C17S12146   2.409   1.436   8.136  0.0113 -0.9796 -0.4664
  116OSM   H17S12147   2.309   1.393   8.116  0.0170 -2.0750  1.7008
  116OSM   H17T12148   2.421   1.512   8.056 -0.8081 -0.2025  0.1349
  116OSM   C18S12149   2.417   1.502   8.273 -0.1864 -0.7329  0.1955
  116OSM   H18S12150   2.522   1.495   8.310 -0.2861  0.3927  0.7192
  116OSM   H18T12151   2.357   1.455   8.353 -1.7457  1.8137  0.5771
  116OSM   H18U12152   2.387   1.608   8.258 -1.2394 -1.3895 -2.7138
  116OSM    C1F12153   3.129   1.223   6.724  0.4316  0.0089 -0.2791
  116OSM     OF12154   3.192   1.311   6.664 -0.2303 -0.1621  0.7072
  116OSM    C2F12155   3.195   1.111   6.803  0.1208  0.1715 -0.1095
  116OSM    H2F12156   3.240   1.039   6.731 -1.0071  0.5364 -1.1989
  116OSM    H2G12157   3.110   1.059   6.853  0.3881 -0.1108  0.0495
  116OSM    C3F12158   3.313   1.161   6.890  0.0638 -0.1983  0.5474
  116OSM    H3F12159   3.375   1.233   6.834  0.3424 -2.4116 -2.0918
  116OSM    H3G12160   3.383   1.078   6.913 -3.1250 -2.5024  2.2893
  116OSM    C4F12161   3.259   1.216   7.028 -0.2788 -0.5019  0.0944
  116OSM    H4F12162   3.226   1.132   7.092  1.4350 -1.9735 -0.9094
  116OSM    H4G12163   3.173   1.284   7.009 -0.8806 -1.2178  0.2255
  116OSM    C5F12164   3.364   1.302   7.100  0.1979  0.3185 -0.6728
  116OSM    H5F12165   3.369   1.406   7.061 -0.4148  0.1638 -1.1651
  116OSM    H5G12166   3.467   1.263   7.087  0.1870 -0.7207  2.0206
  116OSM    C6F12167   3.343   1.294   7.254 -0.4108 -0.5829 -0.3951
  116OSM    H6F12168   3.370   1.192   7.290  2.0961 -0.7572 -2.5463
  116OSM    H6G12169   3.238   1.298   7.288 -0.8613 -1.5731 -1.6167
  116OSM    C7F12170   3.423   1.401   7.334 -0.6142 -0.0514 -0.1886
  116OSM    H7F12171   3.399   1.499   7.287  2.3074 -0.0968 -1.8991
  116OSM    H7G12172   3.527   1.378   7.303 -1.0020 -1.9618 -0.1437
  116OSM    C8F12173   3.412   1.392   7.484  0.2953  0.3626 -0.1301
  116OSM    H8F12174   3.480   1.460   7.539  0.3641  0.8842 -0.8576
  116OSM    H8G12175   3.438   1.287   7.510 -2.5031 -0.7058 -1.3853
  116OSM    C9F12176   3.272   1.418   7.538 -0.2635 -0.0086  0.7106
  116OSM    H9F12177   3.198   1.436   7.459 -0.1919 -2.6502  0.0061
  116OSM   C10F12178   3.236   1.413   7.667 -0.5147  0.0847 -0.3380
  116OSM   H10F12179   3.132   1.433   7.696  0.2058  1.8258  1.1970
  116OSM   C11F12180   3.330   1.384   7.783 -0.5345 -0.1497  0.2211
  116OSM   H11F12181   3.385   1.479   7.799 -0.2706 -0.3038  0.2418
  116OSM   H11G12182   3.407   1.312   7.747 -0.5942 -0.4417  0.6824
  116OSM   C12F12183   3.268   1.329   7.911  1.2303 -0.1657 -0.9607
  116OSM   H12F12184   3.229   1.227   7.891  0.0396  0.4090 -1.6017
  116OSM   H12G12185   3.187   1.394   7.951 -0.0095 -1.6232 -1.0683
  116OSM   C13F12186   3.365   1.302   8.021 -0.3353  0.0298 -0.3489
  116OSM   H13F12187   3.459   1.258   7.980 -1.6578 -2.0363 -1.2525
  116OSM   H13G12188   3.326   1.232   8.098 -0.5446 -0.5161 -0.9438
  116OSM   C14F12189   3.412   1.426   8.102 -0.1993 -0.5739 -0.4244
  116OSM   H14F12190   3.333   1.475   8.162  0.0247 -1.0220  0.2349
  116OSM   H14G12191   3.457   1.511   8.045  0.7549 -0.5091  0.4228
  116OSM   C15F12192   3.523   1.377   8.202  0.6552 -0.3016  0.1784
  116OSM   H15F12193   3.601   1.333   8.137  0.7209  0.9653 -0.6121
  116OSM   H15G12194   3.475   1.298   8.263 -0.0606 -0.8893 -1.1244
  116OSM   C16F12195   3.588   1.481   8.294 -0.6094 -0.2809 -0.1099
  116OSM   H16F12196   3.629   1.566   8.235 -0.1506  0.8907  1.8250
  116OSM   H16G12197   3.669   1.435   8.355 -1.4544  0.2775  1.4737
  116OSM   C17F12198   3.501   1.545   8.403  0.2587 -0.6307 -0.0484
  116OSM   H17F12199   3.480   1.470   8.482  0.2167  0.0015  0.5462
  116OSM   H17G12200   3.416   1.601   8.359  0.3129 -0.1663  0.4279
  116OSM   C18F12201   3.586   1.650   8.482  0.1936  0.4165  0.7339
  116OSM   H18F12202   3.529   1.703   8.560 -1.3627 -0.7426  0.3995
  116OSM   H18G12203   3.629   1.734   8.423  1.7512  0.2023  1.5428
  116OSM   H18H12204   3.671   1.599   8.532  0.2247  1.5497  1.8656
  117OSM      N12205   2.092   3.697   6.167 -0.3856 -0.1609 -0.2962
  117OSM    C1512206   2.196   3.748   6.269 -0.1918  0.2973 -0.2229
  117OSM   H15A12207   2.185   3.852   6.294 -1.1335  0.0563  0.4075
  117OSM   H15B12208   2.296   3.725   6.235  1.2020  1.9579  2.6207
  117OSM   H15C12209   2.178   3.685   6.355 -1.4940 -0.1838 -0.8147
  117OSM    C1412210   1.952   3.724   6.227  0.0256 -0.0188 -0.3679
  117OSM   H14A12211   1.941   3.827   6.258 -3.6433 -0.2261 -0.7497
  117OSM   H14B12212   1.945   3.667   6.318  2.7910  0.6569  0.3173
  117OSM   H14C12213   1.871   3.691   6.163  0.8536 -0.3657 -1.2478
  117OSM    C1312214   2.107   3.780   6.037 -0.3266  0.1972  0.2824
  117OSM   H13A12215   2.195   3.760   5.977 -0.9300 -1.3979 -0.0908
  117OSM   H13B12216   2.096   3.886   6.052 -1.3100  0.1599 -0.1390
  117OSM   H13C12217   2.022   3.750   5.977 -1.1414  1.8511  0.5817
  117OSM    C1212218   2.112   3.549   6.135 -0.0381  0.1957 -0.0858
  117OSM   H12A12219   2.214   3.533   6.106  0.2809  0.5800  0.8025
  117OSM   H12B12220   2.054   3.516   6.050  1.5821 -1.8480 -0.4173
  117OSM    C1112221   2.077   3.453   6.256  0.2028  0.2072  0.0034
  117OSM   H11A12222   2.102   3.509   6.349 -1.6374  0.4417  0.3960
  117OSM   H11B12223   2.120   3.351   6.249  0.7628  0.4209  0.2881
  117OSM      P12224   1.858   3.300   6.276  0.4161 -0.2398 -0.0377
  117OSM    O1312225   1.723   3.322   6.230  0.3203  0.1080 -0.9965
  117OSM    O1412226   1.941   3.198   6.209  0.2763 -0.0629 -0.9069
  117OSM    O1112227   1.859   3.294   6.432  0.5100  0.4456  0.0128
  117OSM    O1212228   1.933   3.437   6.255 -0.2026 -0.4502  0.1116
  117OSM    C1S12229   1.737   3.292   6.506 -0.1152 -0.3261  0.4942
  117OSM    H1S12230   1.683   3.197   6.490 -1.5612  0.7241 -1.1777
  117OSM    H1T12231   1.668   3.371   6.468  2.7907  1.8026 -0.5433
  117OSM     NF12232   1.646   3.275   6.740  0.1903  0.4033  0.3234
  117OSM    HNF12233   1.606   3.345   6.799 -0.6386  1.0600 -1.0020
  117OSM    C2S12234   1.764   3.312   6.656  0.7178  0.2673 -0.0476
  117OSM    H2S12235   1.849   3.245   6.680  1.3255  1.0547  0.0222
  117OSM    C3S12236   1.824   3.455   6.688  0.4200  0.4151  0.2577
  117OSM    H3S12237   1.740   3.528   6.682  0.9694  1.0623  0.4210
  117OSM     O312238   1.934   3.496   6.603  0.2058  0.3227  0.1288
  117OSM    HO312239   1.914   3.439   6.528 -0.7594 -0.3206  0.8723
  117OSM    C4S12240   1.871   3.452   6.831 -0.6356 -0.8852 -0.3343
  117OSM    H4S12241   1.962   3.390   6.844  0.1492  0.2350 -0.3861
  117OSM    C5S12242   1.814   3.508   6.940  0.2267 -0.6343  0.4525
  117OSM    H5S12243   1.721   3.566   6.927  0.1896  0.0246  3.4008
  117OSM    C6S12244   1.855   3.497   7.087  0.4286 -0.1452 -0.2944
  117OSM    H6S12245   1.884   3.589   7.142 -0.1868  1.7042 -2.9578
  117OSM    H6T12246   1.942   3.427   7.088 -0.8388 -1.7293 -0.0839
  117OSM    C7S12247   1.744   3.422   7.164  0.4564  0.0695  0.0195
  117OSM    H7S12248   1.722   3.326   7.113  0.1525  0.4761 -0.6266
  117OSM    H7T12249   1.649   3.479   7.156 -0.1251 -0.8327  0.4872
  117OSM    C8S12250   1.778   3.390   7.315 -0.0148  0.3278  0.1719
  117OSM    H8S12251   1.679   3.394   7.365  0.1809  1.9004  0.4642
  117OSM    H8T12252   1.837   3.466   7.371 -0.8469  1.4803 -0.4764
  117OSM    C9S12253   1.842   3.254   7.336 -0.4573  0.0925  0.0297
  117OSM    H9S12254   1.940   3.261   7.284 -0.7558 -2.7209 -1.0192
  117OSM    H9T12255   1.786   3.176   7.280 -0.9999  0.1159  0.5371
  117OSM   C10S12256   1.868   3.222   7.485 -0.0629 -1.0664  0.4583
  117OSM   H10S12257   1.770   3.200   7.533 -1.6267 -0.2559 -2.2715
  117OSM   H10T12258   1.923   3.309   7.527  1.0418 -0.7432 -1.6262
  117OSM   C11S12259   1.970   3.107   7.494 -0.1184 -0.1642  0.0066
  117OSM   H11S12260   2.073   3.132   7.462 -0.8670  1.1385 -1.4666
  117OSM   H11T12261   1.924   3.029   7.428 -1.1145  1.9163 -1.8229
  117OSM   C12S12262   1.984   3.053   7.640  0.0246  0.1263  0.0058
  117OSM   H12S12263   2.017   3.132   7.711  1.1839 -0.3714  0.0318
  117OSM   H12T12264   2.063   2.976   7.635  1.3224  1.5092 -1.1329
  117OSM   C13S12265   1.854   2.987   7.712  0.1216  0.3064  0.2742
  117OSM   H13S12266   1.814   2.913   7.640  0.0787  2.0833 -1.5850
  117OSM   H13T12267   1.771   3.062   7.710 -0.0133  0.1005 -2.3935
  117OSM   C14S12268   1.888   2.941   7.853 -0.2657  0.3407 -0.4478
  117OSM   H14S12269   1.794   2.913   7.905  0.4271 -1.2602 -0.0245
  117OSM   H14T12270   1.926   3.031   7.905 -0.0818  0.8028 -1.3950
  117OSM   C15S12271   1.992   2.836   7.861  0.2937  0.1693 -0.2375
  117OSM   H15S12272   2.084   2.884   7.821 -0.5056  1.4761 -0.5468
  117OSM   H15T12273   1.961   2.759   7.787  0.3746 -0.5064  0.4253
  117OSM   C16S12274   2.018   2.779   7.999  0.1279 -0.1746 -0.0526
  117OSM   H16S12275   2.080   2.687   7.985 -0.4609 -0.8231  1.4641
  117OSM   H16T12276   1.923   2.753   8.050  0.4573 -0.4169  0.4442
  117OSM   C17S12277   2.085   2.884   8.099 -0.5697 -0.1759  0.1829
  117OSM   H17S12278   2.024   2.976   8.092 -0.3377  0.2580  3.0059
  117OSM   H17T12279   2.186   2.901   8.055 -0.2784 -1.9508  0.0899
  117OSM   C18S12280   2.095   2.840   8.246  1.0340  0.5099 -0.0736
  117OSM   H18S12281   2.108   2.924   8.318 -1.0201  1.3781 -0.6595
  117OSM   H18T12282   2.174   2.765   8.267 -0.5977 -0.8924  1.2120
  117OSM   H18U12283   2.006   2.782   8.278  2.4335 -0.4559  2.1512
  117OSM    C1F12284   1.598   3.146   6.735 -0.5568  0.1160 -0.7219
  117OSM     OF12285   1.667   3.053   6.695 -0.4269 -0.3005 -0.1424
  117OSM    C2F12286   1.455   3.120   6.765 -0.1007  0.1507  0.3464
  117OSM    H2F12287   1.415   3.051   6.688 -0.1152  0.9300 -0.3435
  117OSM    H2G12288   1.395   3.213   6.766  1.5843  1.2737  0.0109
  117OSM    C3F12289   1.429   3.044   6.903  0.4624  0.5835  0.3848
  117OSM    H3F12290   1.505   2.963   6.904 -0.3370 -0.1721  0.9556
  117OSM    H3G12291   1.330   2.995   6.917  1.2470 -0.4872  2.4830
  117OSM    C4F12292   1.458   3.133   7.024  0.4904  0.3213 -0.3078
  117OSM    H4F12293   1.402   3.228   7.009  0.1239 -0.0030 -1.0412
  117OSM    H4G12294   1.566   3.155   7.039  0.1588  1.5388  0.3984
  117OSM    C5F12295   1.409   3.067   7.157  0.6435  0.4819  0.1124
  117OSM    H5F12296   1.461   2.970   7.172  0.8659  0.7204  0.9389
  117OSM    H5G12297   1.300   3.048   7.165  0.2744  1.2129 -2.6404
  117OSM    C6F12298   1.451   3.150   7.278  0.2280  0.5428  1.0731
  117OSM    H6F12299   1.436   3.257   7.250  1.6552  0.3718 -0.3953
  117OSM    H6G12300   1.557   3.138   7.306  0.7880 -2.3493 -1.9828
  117OSM    C7F12301   1.365   3.132   7.400 -0.3537  0.2780  0.2942
  117OSM    H7F12302   1.401   3.046   7.462  2.7339  2.3660  1.4940
  117OSM    H7G12303   1.264   3.101   7.368 -0.0543  0.0608 -0.4532
  117OSM    C8F12304   1.346   3.250   7.493  0.3544 -0.1471 -0.0425
  117OSM    H8F12305   1.265   3.228   7.567  0.9057 -1.5912  0.1370
  117OSM    H8G12306   1.306   3.334   7.432 -2.7384 -0.9582  0.7464
  117OSM    C9F12307   1.473   3.294   7.556 -0.3993  0.0080 -0.2402
  117OSM    H9F12308   1.533   3.361   7.492  1.7700 -0.6138  1.0719
  117OSM   C10F12309   1.503   3.268   7.687  0.3982  0.2484 -0.2850
  117OSM   H10F12310   1.597   3.302   7.733 -0.2844  3.4562 -1.1663
  117OSM   C11F12311   1.416   3.191   7.790  0.3955 -0.1002 -0.4776
  117OSM   H11F12312   1.497   3.140   7.847 -0.0096  1.2198  1.3206
  117OSM   H11G12313   1.362   3.109   7.737 -0.1840  0.1283 -0.2492
  117OSM   C12F12314   1.312   3.268   7.873  0.3377  0.2063 -0.1443
  117OSM   H12F12315   1.263   3.189   7.934  0.3951 -0.1881 -0.6072
  117OSM   H12G12316   1.229   3.307   7.809 -2.0353 -1.7133  1.6715
  117OSM   C13F12317   1.371   3.378   7.959  0.7721  0.8610  0.9154
  117OSM   H13F12318   1.287   3.437   8.004 -0.4183 -0.1804  0.0836
  117OSM   H13G12319   1.431   3.446   7.895 -0.4617  2.4324  1.3857
  117OSM   C14F12320   1.471   3.329   8.074  0.4756  0.1847 -1.4063
  117OSM   H14F12321   1.556   3.300   8.007  1.9745 -1.3934  1.1085
  117OSM   H14G12322   1.416   3.242   8.116  1.0968  0.1444 -0.6700
  117OSM   C15F12323   1.496   3.436   8.178  0.3768  0.4728 -0.3785
  117OSM   H15F12324   1.399   3.490   8.173 -0.7468 -1.4590  0.2282
  117OSM   H15G12325   1.578   3.500   8.138  1.5165 -1.9888 -2.1650
  117OSM   C16F12326   1.535   3.387   8.313  0.7922  0.8668  0.3406
  117OSM   H16F12327   1.614   3.310   8.296 -1.3293 -1.6023  1.3853
  117OSM   H16G12328   1.440   3.351   8.357  0.8135  1.3945  0.8181
  117OSM   C17F12329   1.594   3.489   8.402 -0.1420  0.8069 -0.3462
  117OSM   H17F12330   1.647   3.568   8.344  0.0117  2.2158  1.6534
  117OSM   H17G12331   1.516   3.538   8.464 -1.9744 -2.7350  0.3038
  117OSM   C18F12332   1.698   3.443   8.497 -0.9669 -0.4656 -0.4055
  117OSM   H18F12333   1.802   3.433   8.458 -0.3251 -3.5445  1.8280
  117OSM   H18G12334   1.683   3.342   8.540  0.9250  0.0027  1.4342
  117OSM   H18H12335   1.701   3.506   8.588  2.2456  1.2095 -1.5641
  118OSM      N12336   4.587   5.842   6.207 -0.3785 -0.2360  0.3095
  118OSM    C1512337   4.505   5.957   6.168 -0.0579  0.5003  0.4836
  118OSM   H15A12338   4.505   5.970   6.061 -4.8672 -0.6898  0.2228
  118OSM   H15B12339   4.530   6.042   6.230  3.6865 -0.4228  0.3161
  118OSM   H15C12340   4.403   5.928   6.192  0.1280 -0.4152  0.1959
  118OSM    C1412341   4.543   5.728   6.118  0.6827  0.3885 -0.3368
  118OSM   H14A12342   4.439   5.708   6.141  0.7369  1.4143  0.8189
  118OSM   H14B12343   4.592   5.632   6.128 -0.3684 -0.3187 -1.7939
  118OSM   H14C12344   4.531   5.750   6.013  0.1981 -1.2060 -0.6459
  118OSM    C1312345   4.733   5.867   6.165 -0.4751  0.0080 -0.2392
  118OSM   H13A12346   4.731   5.878   6.058 -2.3430 -2.6083 -0.5288
  118OSM   H13B12347   4.795   5.780   6.176 -0.8457 -0.0792  1.2647
  118OSM   H13C12348   4.781   5.943   6.226  0.2323 -0.6042 -0.0390
  118OSM    C1212349   4.596   5.807   6.353 -0.1651  0.0483 -0.2890
  118OSM   H12A12350   4.629   5.887   6.417 -0.6813 -0.9091  1.1932
  118OSM   H12B12351   4.679   5.737   6.361 -0.1955  0.1467  0.8540
  118OSM    C1112352   4.462   5.761   6.415  0.1501 -0.2740  0.1405
  118OSM   H11A12353   4.388   5.841   6.394  3.3361  2.9341  0.4456
  118OSM   H11B12354   4.472   5.755   6.526  1.6975 -0.3403  0.0149
  118OSM      P12355   4.271   5.597   6.374 -0.2628 -0.2332 -0.2450
  118OSM    O1312356   4.184   5.694   6.305 -0.4309  0.2324 -0.3074
  118OSM    O1412357   4.260   5.453   6.339  0.4386 -0.0874  0.1089
  118OSM    O1112358   4.243   5.615   6.526 -0.3829 -0.0753 -0.1099
  118OSM    O1212359   4.419   5.634   6.369 -0.3525  0.7281 -0.2917
  118OSM    C1S12360   4.288   5.525   6.625  0.9717 -0.1800  0.8202
  118OSM    H1S12361   4.388   5.482   6.600  1.2875  1.4376 -0.8203
  118OSM    H1T12362   4.216   5.441   6.626  0.3796  0.3328  2.1364
  118OSM     NF12363   4.344   5.478   6.862 -0.0007 -0.1718 -0.0124
  118OSM    HNF12364   4.263   5.442   6.908  1.1644 -1.0249  1.4265
  118OSM    C2S12365   4.305   5.583   6.767 -0.1820  0.3009 -0.2104
  118OSM    H2S12366   4.391   5.649   6.742 -0.7431  0.4446 -1.7672
  118OSM    C3S12367   4.174   5.660   6.810 -0.6727  0.1976  0.5473
  118OSM    H3S12368   4.096   5.583   6.823 -0.3681 -0.3292 -0.6223
  118OSM     O312369   4.137   5.745   6.708  0.1064 -0.0454  0.8075
  118OSM    HO312370   4.206   5.719   6.646 -1.8594  0.5221 -1.7291
  118OSM    C4S12371   4.201   5.735   6.936  0.5386  0.7238  0.1174
  118OSM    H4S12372   4.295   5.792   6.936  1.6899 -1.1025 -1.3438
  118OSM    C5S12373   4.111   5.741   7.036 -0.7246  0.0596 -0.5028
  118OSM    H5S12374   4.009   5.701   7.025 -0.3438 -1.1572  0.2878
  118OSM    C6S12375   4.140   5.812   7.161  0.0718 -0.8606 -0.1659
  118OSM    H6S12376   4.068   5.897   7.171  2.0455  0.6310  1.9287
  118OSM    H6T12377   4.244   5.852   7.164  0.0379 -0.8769  2.6894
  118OSM    C7S12378   4.117   5.729   7.294  0.9056  0.3661 -0.3629
  118OSM    H7S12379   4.199   5.659   7.321 -1.7905 -1.5315  3.3763
  118OSM    H7T12380   4.029   5.663   7.281  2.8986 -2.1331 -1.6496
  118OSM    C8S12381   4.090   5.827   7.404  0.0507 -0.1701 -0.5477
  118OSM    H8S12382   4.023   5.915   7.386  1.9088  0.7071 -3.6569
  118OSM    H8T12383   4.188   5.876   7.421  0.7175 -2.7019  3.5561
  118OSM    C9S12384   4.062   5.755   7.537 -0.1882 -0.4932  0.2264
  118OSM    H9S12385   4.122   5.661   7.537  0.8175  0.0692 -3.0131
  118OSM    H9T12386   3.957   5.717   7.533 -0.0358 -0.8768 -0.1989
  118OSM   C10S12387   4.085   5.835   7.667 -0.1870 -0.5270  0.1986
  118OSM   H10S12388   3.998   5.902   7.654  1.7762  1.9203 -0.8969
  118OSM   H10T12389   4.169   5.907   7.673 -0.6857 -0.0061  0.9821
  118OSM   C11S12390   4.082   5.749   7.791 -0.0043  0.3935  0.1316
  118OSM   H11S12391   3.995   5.680   7.787  2.1571 -2.4392  0.1117
  118OSM   H11T12392   4.066   5.822   7.873  0.9627 -1.3803  1.9478
  118OSM   C12S12393   4.207   5.666   7.800 -0.0744 -0.3184  0.3102
  118OSM   H12S12394   4.295   5.719   7.759  1.2709 -1.8162  1.2022
  118OSM   H12T12395   4.201   5.572   7.740  0.0072 -2.3696  3.3571
  118OSM   C13S12396   4.224   5.613   7.940  0.0216 -0.6508  0.1395
  118OSM   H13S12397   4.129   5.566   7.976  0.4642 -2.1794 -0.6729
  118OSM   H13T12398   4.234   5.706   7.999 -1.1975  0.1102 -0.8248
  118OSM   C14S12399   4.353   5.529   7.976  0.4999  0.6981  0.3288
  118OSM   H14S12400   4.451   5.557   7.932  1.7669 -0.6726  2.1894
  118OSM   H14T12401   4.334   5.425   7.943 -1.6253  0.8479  0.9825
  118OSM   C15S12402   4.363   5.513   8.126 -0.2751 -0.7043 -0.9979
  118OSM   H15S12403   4.270   5.479   8.176  1.1779 -1.4922  1.2670
  118OSM   H15T12404   4.400   5.611   8.164 -2.1150 -0.7571  1.0030
  118OSM   C16S12405   4.465   5.402   8.162 -0.9126  0.5157 -0.1666
  118OSM   H16S12406   4.569   5.428   8.132 -0.0356 -0.0981  2.2207
  118OSM   H16T12407   4.457   5.302   8.114 -1.6072  1.5790 -2.3191
  118OSM   C17S12408   4.471   5.377   8.318 -0.6039  0.0211  1.0509
  118OSM   H17S12409   4.371   5.335   8.342 -1.1542  0.3709 -0.5756
  118OSM   H17T12410   4.494   5.473   8.368  1.1126  1.3650 -2.2135
  118OSM   C18S12411   4.590   5.282   8.348 -0.0627  0.2815  0.1933
  118OSM   H18S12412   4.581   5.193   8.281  0.9999  0.1097  0.2670
  118OSM   H18T12413   4.585   5.261   8.457  1.9358 -0.1712  0.2333
  118OSM   H18U12414   4.690   5.327   8.332  0.7115 -1.4366  0.0229
  118OSM    C1F12415   4.467   5.422   6.870  0.6963  0.0566  0.3990
  118OSM     OF12416   4.553   5.472   6.793 -0.6183  0.0280 -0.5900
  118OSM    C2F12417   4.480   5.302   6.946  0.2950 -0.6021 -0.0103
  118OSM    H2F12418   4.538   5.235   6.880  1.8484 -1.9266  2.6003
  118OSM    H2G12419   4.385   5.250   6.972 -1.9732  1.6033 -3.4437
  118OSM    C3F12420   4.533   5.325   7.087 -0.1772 -0.2337  0.0223
  118OSM    H3F12421   4.641   5.352   7.088  0.0624 -1.1440 -0.2883
  118OSM    H3G12422   4.527   5.229   7.144 -0.3875  0.1860  0.7139
  118OSM    C4F12423   4.441   5.418   7.162  0.3775  0.2429 -0.0356
  118OSM    H4F12424   4.340   5.373   7.147  0.3181  0.6660 -0.8926
  118OSM    H4G12425   4.423   5.519   7.121  1.2268 -0.6365 -2.6500
  118OSM    C5F12426   4.478   5.446   7.314  0.3694  0.1286  0.3836
  118OSM    H5F12427   4.392   5.502   7.356 -2.6788 -1.4237 -3.4521
  118OSM    H5G12428   4.570   5.506   7.332  1.2822 -0.9187 -0.6950
  118OSM    C6F12429   4.491   5.321   7.399 -0.4437  0.5727 -0.4096
  118OSM    H6F12430   4.592   5.274   7.389 -1.1806 -1.4382  1.3616
  118OSM    H6G12431   4.418   5.246   7.362 -0.5521  1.1374 -1.3531
  118OSM    C7F12432   4.469   5.345   7.553 -0.1581 -0.2445  0.6898
  118OSM    H7F12433   4.395   5.427   7.560  1.3662  1.2032  0.3258
  118OSM    H7G12434   4.564   5.385   7.597 -1.2927  1.2494  1.8740
  118OSM    C8F12435   4.451   5.212   7.633  0.5481 -0.4782 -0.0829
  118OSM    H8F12436   4.359   5.162   7.597  1.6987 -2.0654 -0.8462
  118OSM    H8G12437   4.437   5.247   7.738 -2.6039 -0.9487 -0.3085
  118OSM    C9F12438   4.564   5.108   7.642 -0.8263  0.2497 -0.0559
  118OSM    H9F12439   4.615   5.100   7.545  1.2701  1.3360  0.9254
  118OSM   C10F12440   4.600   5.038   7.748  0.9644  0.4434  0.5656
  118OSM   H10F12441   4.679   4.961   7.738  0.7751  0.0168  2.1769
  118OSM   C11F12442   4.533   5.048   7.884 -0.1233  0.2972 -0.6677
  118OSM   H11F12443   4.484   4.950   7.904  0.6957  0.1898  0.9142
  118OSM   H11G12444   4.445   5.115   7.882 -0.3472  0.0448  0.3488
  118OSM   C12F12445   4.634   5.089   7.995  0.6985  0.0703  0.6196
  118OSM   H12F12446   4.576   5.090   8.090 -1.7442 -1.1872 -0.8061
  118OSM   H12G12447   4.672   5.191   7.974 -0.5996  0.6063  0.8012
  118OSM   C13F12448   4.753   4.999   8.016  0.0711 -0.0359 -0.7125
  118OSM   H13F12449   4.815   5.050   8.092 -0.4684  0.8501 -0.8585
  118OSM   H13G12450   4.807   4.993   7.919  0.6526  3.6140 -0.6831
  118OSM   C14F12451   4.738   4.860   8.085 -0.4209 -0.4843 -0.3476
  118OSM   H14F12452   4.693   4.872   8.186  0.0464 -0.3631 -0.1504
  118OSM   H14G12453   4.845   4.830   8.095 -0.1027  0.1576 -1.6905
  118OSM   C15F12454   4.672   4.747   8.009  0.2739 -0.8062  0.4254
  118OSM   H15F12455   4.720   4.706   7.918  1.8943  2.5026 -0.3137
  118OSM   H15G12456   4.572   4.786   7.981  0.4774  0.0024  0.8115
  118OSM   C16F12457   4.648   4.631   8.107 -1.0343  0.3997  0.1072
  118OSM   H16F12458   4.608   4.675   8.201 -3.7858  0.3062 -0.9824
  118OSM   H16G12459   4.740   4.572   8.125  0.0397  2.1579  0.5715
  118OSM   C17F12460   4.529   4.547   8.056 -0.3893  0.2539 -0.2901
  118OSM   H17F12461   4.560   4.494   7.964  1.6290 -1.3021  1.2448
  118OSM   H17G12462   4.448   4.618   8.025  0.7265  1.2096 -1.0581
  118OSM   C18F12463   4.483   4.447   8.168  0.0498 -0.5393 -0.3228
  118OSM   H18F12464   4.558   4.370   8.197 -2.7818 -2.7194  1.4588
  118OSM   H18G12465   4.393   4.395   8.129 -1.3999  2.7067 -1.4291
  118OSM   H18H12466   4.453   4.504   8.258 -2.0311  0.5709 -1.6579
  119OSM      N12467   5.939   4.712   5.761  0.1733 -0.8921  0.1519
  119OSM    C1512468   5.857   4.836   5.782  0.4232  0.5492  0.1111
  119OSM   H15A12469   5.763   4.848   5.732  1.0739 -0.6493 -1.4402
  119OSM   H15B12470   5.901   4.929   5.749  0.4544  0.5901  0.2659
  119OSM   H15C12471   5.840   4.854   5.887 -1.0728 -0.0416 -0.0292
  119OSM    C1412472   5.983   4.700   5.615  0.4794 -1.0955  0.5239
  119OSM   H14A12473   6.047   4.614   5.601 -0.5406 -1.5876 -1.2756
  119OSM   H14B12474   6.039   4.786   5.581 -0.7558  0.0450  1.3271
  119OSM   H14C12475   5.898   4.696   5.548 -0.8664  0.0050  2.1357
  119OSM    C1312476   6.062   4.715   5.849  0.5781 -0.1060 -0.2055
  119OSM   H13A12477   6.132   4.796   5.834 -0.5744  0.9189 -0.1438
  119OSM   H13B12478   6.120   4.624   5.842 -1.0105 -1.1832  0.4395
  119OSM   H13C12479   6.032   4.720   5.952 -0.8747 -0.2506 -0.6138
  119OSM    C1212480   5.860   4.587   5.798  0.3710 -0.6989  0.2038
  119OSM   H12A12481   5.928   4.504   5.790  1.5080  0.1513  0.9521
  119OSM   H12B12482   5.766   4.579   5.746 -1.6769 -1.2677  3.7960
  119OSM    C1112483   5.810   4.575   5.943  0.2617  0.2326  1.1928
  119OSM   H11A12484   5.890   4.608   6.011  1.8061  0.4127 -0.6650
  119OSM   H11B12485   5.789   4.468   5.966  0.5625  0.3999  2.2446
  119OSM      P12486   5.558   4.614   5.937 -0.3128  0.2553 -0.1540
  119OSM    O1312487   5.526   4.621   5.795  0.0589  0.6742 -0.3219
  119OSM    O1412488   5.523   4.491   6.010 -0.0148  0.1426  0.6495
  119OSM    O1112489   5.499   4.738   6.007 -0.3364 -0.1436  0.1701
  119OSM    O1212490   5.701   4.659   5.957 -0.7069 -0.4372  0.0414
  119OSM    C1S12491   5.456   4.734   6.146  0.8632  0.3010 -0.2073
  119OSM    H1S12492   5.414   4.637   6.182 -1.5644  0.3699 -2.7114
  119OSM    H1T12493   5.375   4.810   6.148 -2.5769 -3.1641 -2.3163
  119OSM     NF12494   5.515   4.773   6.378  0.2555  0.2798 -0.4557
  119OSM    HNF12495   5.479   4.856   6.420  0.2441 -0.6958  1.5156
  119OSM    C2S12496   5.570   4.777   6.246  0.0786  0.5160  0.5476
  119OSM    H2S12497   5.654   4.704   6.256 -0.3338  0.0557  0.6835
  119OSM    C3S12498   5.618   4.920   6.211  0.2314 -0.4655 -0.9335
  119OSM    H3S12499   5.533   4.992   6.207 -0.1412 -0.6803  1.9622
  119OSM     O312500   5.682   4.926   6.082 -0.1940  0.1581 -0.0072
  119OSM    HO312501   5.675   4.835   6.054  0.5395 -0.0667  0.5266
  119OSM    C4S12502   5.713   4.961   6.315  0.0135  0.5210  0.2047
  119OSM    H4S12503   5.779   4.877   6.343 -2.3253 -1.2541  0.5601
  119OSM    C5S12504   5.718   5.071   6.391 -0.2880 -0.2004  0.5684
  119OSM    H5S12505   5.666   5.159   6.350 -1.4567 -1.2088 -0.1550
  119OSM    C6S12506   5.812   5.099   6.510  0.2521  0.7064  0.3548
  119OSM    H6S12507   5.833   5.206   6.530 -0.9674  1.2494 -1.1319
  119OSM    H6T12508   5.913   5.058   6.487  0.8544  0.4118  3.3442
  119OSM    C7S12509   5.757   5.032   6.636 -0.0589  0.8120  0.3467
  119OSM    H7S12510   5.820   5.060   6.723 -0.8906 -2.5455  2.1127
  119OSM    H7T12511   5.768   4.922   6.625  0.0052  0.8555 -0.0415
  119OSM    C8S12512   5.609   5.061   6.658 -0.0316 -0.4621 -0.0616
  119OSM    H8S12513   5.548   4.994   6.594 -0.5588 -0.7470  0.7390
  119OSM    H8T12514   5.588   5.168   6.635 -2.0186 -1.2908 -2.3472
  119OSM    C9S12515   5.568   5.046   6.811  1.4841 -0.1762  0.6878
  119OSM    H9S12516   5.464   5.084   6.808  1.1479 -1.1452 -2.0474
  119OSM    H9T12517   5.632   5.113   6.872  1.1525  0.2144  0.6023
  119OSM   C10S12518   5.578   4.902   6.853 -0.3600 -0.0252  0.5814
  119OSM   H10S12519   5.680   4.866   6.826  0.3033  1.4203  1.1424
  119OSM   H10T12520   5.510   4.842   6.788  0.2846 -2.0185  1.6928
  119OSM   C11S12521   5.553   4.885   7.007  0.4911 -0.1381  0.1994
  119OSM   H11S12522   5.566   4.777   7.027  0.4666 -0.1101  0.3687
  119OSM   H11T12523   5.449   4.904   7.042  0.0790 -1.7316 -0.1444
  119OSM   C12S12524   5.648   4.958   7.099 -0.1164  0.4055 -0.1179
  119OSM   H12S12525   5.609   5.062   7.103 -0.6963  0.2100 -0.6413
  119OSM   H12T12526   5.744   4.964   7.045 -0.2907 -0.1207 -0.4863
  119OSM   C13S12527   5.664   4.893   7.233  0.8785 -0.8902 -0.0721
  119OSM   H13S12528   5.714   4.963   7.303  1.2275 -2.0225  0.8083
  119OSM   H13T12529   5.732   4.806   7.219 -0.2024 -1.4340 -2.1411
  119OSM   C14S12530   5.537   4.848   7.302  0.7624 -0.6417 -0.1703
  119OSM   H14S12531   5.558   4.768   7.376  0.6267 -0.5538 -0.0379
  119OSM   H14T12532   5.488   4.785   7.225  0.0958 -0.2846 -0.0399
  119OSM   C15S12533   5.445   4.959   7.354  0.8027  0.6225  0.2761
  119OSM   H15S12534   5.414   5.011   7.261  2.5545  0.2689 -0.5367
  119OSM   H15T12535   5.489   5.035   7.422  2.2144  0.2544 -0.1880
  119OSM   C16S12536   5.317   4.908   7.422  0.1808  0.5416  0.1472
  119OSM   H16S12537   5.285   4.824   7.358  1.4961  0.1691 -0.0176
  119OSM   H16T12538   5.235   4.984   7.415  1.0799  1.5330  0.2453
  119OSM   C17S12539   5.338   4.883   7.571  0.0844  0.3743  0.0607
  119OSM   H17S12540   5.434   4.826   7.580 -0.3925 -0.5793 -0.7749
  119OSM   H17T12541   5.271   4.799   7.600  1.7081 -1.5282 -1.4754
  119OSM   C18S12542   5.346   5.004   7.659 -0.3598 -0.0219 -0.0333
  119OSM   H18S12543   5.363   4.969   7.763 -0.1661 -0.6939 -0.2865
  119OSM   H18T12544   5.253   5.065   7.663 -0.7169 -0.6903  3.3018
  119OSM   H18U12545   5.427   5.073   7.628 -1.8273  1.2353 -1.2089
  119OSM    C1F12546   5.496   4.663   6.436  0.4603 -0.0270 -0.6928
  119OSM     OF12547   5.536   4.557   6.389  0.0575  0.1195  0.0407
  119OSM    C2F12548   5.405   4.679   6.556 -0.1464 -0.3160 -0.5311
  119OSM    H2F12549   5.302   4.679   6.514 -0.4008  1.7096  0.0609
  119OSM    H2G12550   5.426   4.779   6.600 -0.2052 -1.0918  1.2936
  119OSM    C3F12551   5.432   4.568   6.662  0.4427 -0.3200 -0.1850
  119OSM    H3F12552   5.539   4.558   6.690 -0.3482 -2.3732  2.2284
  119OSM    H3G12553   5.404   4.467   6.625  0.2500  0.4466 -2.2433
  119OSM    C4F12554   5.348   4.593   6.786  0.6283  0.6503  0.0378
  119OSM    H4F12555   5.249   4.624   6.748 -1.3720 -5.6507 -0.5467
  119OSM    H4G12556   5.389   4.681   6.840  0.9287 -0.4696  1.6735
  119OSM    C5F12557   5.336   4.470   6.888 -0.0307 -0.1522 -0.5168
  119OSM    H5F12558   5.432   4.460   6.941  0.0100 -1.5694 -0.8544
  119OSM    H5G12559   5.306   4.378   6.833 -0.5787 -0.9451  1.0810
  119OSM    C6F12560   5.221   4.496   6.989  0.2439  0.3973  0.2245
  119OSM    H6F12561   5.129   4.486   6.927  1.1819 -1.3863 -0.9014
  119OSM    H6G12562   5.233   4.596   7.037  0.6002 -0.2111  1.4200
  119OSM    C7F12563   5.221   4.392   7.097 -0.9524  0.2716  0.3228
  119OSM    H7F12564   5.204   4.289   7.057  0.8723  0.7423 -1.7565
  119OSM    H7G12565   5.136   4.417   7.164  1.5033 -0.6302  3.9379
  119OSM    C8F12566   5.346   4.392   7.175  0.3853 -0.2568 -0.2807
  119OSM    H8F12567   5.434   4.382   7.108  1.9015  0.2444  1.5891
  119OSM    H8G12568   5.350   4.304   7.242  3.1766  1.1565  1.5041
  119OSM    C9F12569   5.358   4.519   7.252  0.7077  0.5501 -0.3362
  119OSM    H9F12570   5.394   4.607   7.197  0.4724  0.8581  0.0029
  119OSM   C10F12571   5.329   4.537   7.381  0.2501 -0.9122  0.4095
  119OSM   H10F12572   5.330   4.638   7.426  1.7702 -0.2079 -1.1491
  119OSM   C11F12573   5.284   4.435   7.491 -0.4934  0.3827 -0.0443
  119OSM   H11F12574   5.330   4.471   7.585 -1.0633  0.8588  0.0576
  119OSM   H11G12575   5.325   4.332   7.488  1.6513  1.2129 -0.1345
  119OSM   C12F12576   5.131   4.418   7.512 -0.0308  0.8073  0.2861
  119OSM   H12F12577   5.119   4.316   7.555 -0.3177  1.0047  0.6715
  119OSM   H12G12578   5.070   4.407   7.419 -2.2563 -0.2029  1.8210
  119OSM   C13F12579   5.068   4.530   7.595  0.0068  0.3508 -0.6292
  119OSM   H13F12580   4.959   4.511   7.604  0.8247 -4.9532 -0.1716
  119OSM   H13G12581   5.096   4.627   7.548 -1.5971  0.3918 -1.5404
  119OSM   C14F12582   5.120   4.530   7.740  0.9910  0.1924  0.2197
  119OSM   H14F12583   5.224   4.569   7.754 -0.4321  4.1380  0.4912
  119OSM   H14G12584   5.115   4.424   7.773 -0.5380 -0.2297 -1.3012
  119OSM   C15F12585   5.043   4.622   7.830 -0.0733 -0.5091 -0.5358
  119OSM   H15F12586   4.935   4.616   7.806 -0.0652  1.2993 -1.1212
  119OSM   H15G12587   5.064   4.727   7.798  2.2174 -0.9678 -0.6548
  119OSM   C16F12588   5.055   4.607   7.981  0.2507  0.5662  0.2526
  119OSM   H16F12589   5.027   4.501   7.995  0.0065  0.4533 -1.0500
  119OSM   H16G12590   4.978   4.660   8.042  1.6131  1.4622  1.2232
  119OSM   C17F12591   5.195   4.643   8.032  0.3476  1.0726  0.3220
  119OSM   H17F12592   5.233   4.727   7.971 -0.3026  0.0410 -1.5357
  119OSM   H17G12593   5.266   4.560   8.009  0.8892  1.9955 -1.3870
  119OSM   C18F12594   5.205   4.653   8.183 -0.0653 -0.0943  0.3071
  119OSM   H18F12595   5.175   4.754   8.216  1.6013  1.3175 -2.2893
  119OSM   H18G12596   5.306   4.633   8.226 -0.4973 -1.0903  0.8673
  119OSM   H18H12597   5.139   4.582   8.237 -0.0257 -0.2660  0.1314
  120OSM      N12598   2.545   1.714   6.241 -0.7600 -0.4214 -0.3621
  120OSM    C1512599   2.620   1.579   6.245  0.0998 -0.6669  0.8328
  120OSM   H15A12600   2.558   1.490   6.238 -0.5589 -0.0060 -3.3059
  120OSM   H15B12601   2.671   1.565   6.339  1.5592 -0.4696  0.0871
  120OSM   H15C12602   2.700   1.572   6.172 -0.3246  0.6035  0.2449
  120OSM    C1412603   2.461   1.718   6.124 -0.5258 -0.2541 -0.0560
  120OSM   H14A12604   2.387   1.640   6.130 -0.4027 -0.4318 -0.8970
  120OSM   H14B12605   2.514   1.710   6.030 -1.6134 -1.5942 -0.5663
  120OSM   H14C12606   2.405   1.811   6.119  0.3290  0.2250 -0.8199
  120OSM    C1312607   2.453   1.736   6.353 -0.3624  0.1331 -0.6616
  120OSM   H13A12608   2.363   1.676   6.349  0.0131 -0.6169  1.4878
  120OSM   H13B12609   2.417   1.837   6.348 -1.1156 -0.1171 -0.3220
  120OSM   H13C12610   2.502   1.716   6.447 -0.9825  0.1789 -0.3253
  120OSM    C1212611   2.650   1.827   6.240  0.3546  0.1429 -0.0875
  120OSM   H12A12612   2.733   1.813   6.172  1.3329 -1.9940  1.5045
  120OSM   H12B12613   2.697   1.824   6.336 -0.2329  2.2051  0.2920
  120OSM    C1112614   2.608   1.972   6.228  0.5538 -0.7558  0.2192
  120OSM   H11A12615   2.522   1.978   6.158 -0.6380 -1.4740  1.5883
  120OSM   H11B12616   2.688   2.037   6.187 -1.6220  1.1987 -1.0557
  120OSM      P12617   2.655   2.064   6.472  0.5442  0.1686 -0.0528
  120OSM    O1312618   2.730   2.183   6.420 -0.0331  0.4389 -0.6108
  120OSM    O1412619   2.583   2.079   6.601  0.7873 -0.3432  0.3689
  120OSM    O1112620   2.758   1.937   6.485 -0.5581  0.2788 -0.1059
  120OSM    O1212621   2.561   2.014   6.355 -0.0885 -0.4832  0.3702
  120OSM    C1S12622   2.881   1.959   6.552 -0.7810  0.2521 -0.7699
  120OSM    H1S12623   2.906   2.067   6.556 -2.2370  0.5827 -0.0684
  120OSM    H1T12624   2.960   1.908   6.494 -1.3054 -3.9381  1.9528
  120OSM     NF12625   3.012   1.944   6.755 -0.0936 -0.1163  0.5636
  120OSM    HNF12626   3.097   1.895   6.735 -0.0411  0.8972 -1.8506
  120OSM    C2S12627   2.888   1.897   6.698 -0.2130 -0.1387  0.5893
  120OSM    H2S12628   2.802   1.947   6.748 -0.4526  0.0940 -0.0384
  120OSM    C3S12629   2.868   1.746   6.699 -0.1249 -0.1954 -0.0664
  120OSM    H3S12630   2.933   1.695   6.624  0.9043  1.2427 -0.1780
  120OSM     O312631   2.737   1.717   6.646 -0.3152 -0.1176  0.1626
  120OSM    HO312632   2.724   1.793   6.589 -0.4575  1.4739  2.2716
  120OSM    C4S12633   2.881   1.701   6.843  0.0310  0.4573 -0.2724
  120OSM    H4S12634   2.797   1.725   6.909  0.3591 -0.6191  0.5533
  120OSM    C5S12635   2.982   1.631   6.895  0.2307 -0.0029 -0.3565
  120OSM    H5S12636   3.066   1.602   6.830  1.0526  1.3523  0.0691
  120OSM    C6S12637   2.992   1.575   7.032  0.0133  0.0522 -0.2931
  120OSM    H6S12638   3.096   1.588   7.068  0.1402 -0.7109 -0.3742
  120OSM    H6T12639   2.991   1.464   7.022  1.0926 -0.1488  1.5876
  120OSM    C7S12640   2.889   1.617   7.141  0.2463 -0.3188  0.0845
  120OSM    H7S12641   2.786   1.597   7.107  0.0886  1.0375 -0.2614
  120OSM    H7T12642   2.893   1.728   7.147 -0.0088 -0.3051 -0.0294
  120OSM    C8S12643   2.930   1.557   7.278 -0.5508  0.1823  0.7085
  120OSM    H8S12644   3.035   1.581   7.303 -0.2477  1.5327 -1.6589
  120OSM    H8T12645   2.947   1.447   7.266  2.6194  0.8172 -1.1621
  120OSM    C9S12646   2.834   1.571   7.390 -0.0526  0.4071  0.4550
  120OSM    H9S12647   2.734   1.528   7.366  1.5887 -2.2433 -1.8229
  120OSM    H9T12648   2.804   1.678   7.395  0.0331  0.4489  0.0521
  120OSM   C10S12649   2.893   1.544   7.528  0.0157  0.0150 -0.0682
  120OSM   H10S12650   2.998   1.576   7.539  0.6720 -2.2874  0.7346
  120OSM   H10T12651   2.898   1.433   7.538 -0.0502 -0.0191 -0.4177
  120OSM   C11S12652   2.820   1.597   7.649 -0.1416 -0.6773 -0.1379
  120OSM   H11S12653   2.711   1.603   7.627  0.0790  0.1547 -1.0792
  120OSM   H11T12654   2.858   1.699   7.672 -0.6181 -0.7430  0.9380
  120OSM   C12S12655   2.864   1.525   7.780  0.2941 -0.3259  0.4865
  120OSM   H12S12656   2.973   1.534   7.801  0.4122 -0.4118 -0.0801
  120OSM   H12T12657   2.831   1.419   7.774  0.7396 -0.4573  0.2842
  120OSM   C13S12658   2.804   1.596   7.906 -0.1965  0.6309 -0.5293
  120OSM   H13S12659   2.694   1.580   7.900 -0.2517  0.6359  0.3549
  120OSM   H13T12660   2.827   1.705   7.911  3.0472 -0.0822  2.8948
  120OSM   C14S12661   2.856   1.531   8.032 -0.3359 -0.1322  0.1079
  120OSM   H14S12662   2.966   1.545   8.030 -0.3146 -0.2785  0.2413
  120OSM   H14T12663   2.836   1.423   8.043  0.4529 -0.0588  2.4727
  120OSM   C15S12664   2.812   1.604   8.160 -0.0792 -0.3073 -0.9132
  120OSM   H15S12665   2.702   1.586   8.167 -0.5894  2.6559 -0.6129
  120OSM   H15T12666   2.825   1.714   8.155  1.9000 -0.4653  0.4673
  120OSM   C16S12667   2.884   1.563   8.291  0.6690 -0.6225 -0.2035
  120OSM   H16S12668   2.994   1.568   8.273  0.5372  0.5520 -0.6858
  120OSM   H16T12669   2.852   1.457   8.307 -0.8641 -0.3661 -1.4933
  120OSM   C17S12670   2.848   1.641   8.420  0.1284 -0.1308  0.2466
  120OSM   H17S12671   2.737   1.645   8.422  0.1796  0.3788  3.6303
  120OSM   H17T12672   2.897   1.739   8.402  3.6332 -2.1644 -1.8177
  120OSM   C18S12673   2.897   1.574   8.552 -0.0778 -0.2299 -0.3516
  120OSM   H18S12674   2.889   1.633   8.645  0.4384 -2.4020  1.1047
  120OSM   H18T12675   3.003   1.543   8.535  0.3203  1.0134 -0.2291
  120OSM   H18U12676   2.839   1.480   8.561  0.4728 -0.3133  2.9044
  120OSM    C1F12677   3.031   2.071   6.802 -0.1041 -0.2196  0.3811
  120OSM     OF12678   2.942   2.157   6.807  0.0736  0.3887  0.0895
  120OSM    C2F12679   3.166   2.114   6.844 -0.3929 -0.2472  0.0500
  120OSM    H2F12680   3.166   2.221   6.872 -2.0132 -0.3787  0.6199
  120OSM    H2G12681   3.233   2.104   6.755  0.0059 -1.7186  0.4967
  120OSM    C3F12682   3.209   2.021   6.956 -0.7406  0.1179  0.1901
  120OSM    H3F12683   3.319   2.026   6.973 -0.9816  2.3569  1.2968
  120OSM    H3G12684   3.196   1.916   6.921 -1.9236  0.6213 -0.9221
  120OSM    C4F12685   3.156   2.039   7.096  0.3673 -0.5037  0.0362
  120OSM    H4F12686   3.047   2.015   7.098 -0.5146  3.0230 -0.8959
  120OSM    H4G12687   3.161   2.142   7.140 -0.4628 -0.2236 -0.5184
  120OSM    C5F12688   3.216   1.946   7.205 -0.2067  0.2388  0.6909
  120OSM    H5F12689   3.325   1.955   7.221  0.7528 -3.5578 -2.7670
  120OSM    H5G12690   3.196   1.839   7.182 -1.4757  0.3272  1.3220
  120OSM    C6F12691   3.142   1.969   7.339 -0.4788  0.1046  0.3156
  120OSM    H6F12692   3.033   1.971   7.314 -0.4639 -1.5301  0.0622
  120OSM    H6G12693   3.168   2.061   7.396 -2.0824  1.3993 -0.9526
  120OSM    C7F12694   3.164   1.845   7.428 -0.3317 -0.3103 -0.1953
  120OSM    H7F12695   3.275   1.836   7.433 -0.1974  0.3590 -1.6768
  120OSM    H7G12696   3.113   1.762   7.375 -0.2988 -0.6883  0.3562
  120OSM    C8F12697   3.087   1.864   7.564  0.0699 -0.4331  0.6121
  120OSM    H8F12698   3.084   1.758   7.598 -2.1952 -1.2768 -1.9777
  120OSM    H8G12699   2.982   1.894   7.544  0.0526 -0.8830  0.0076
  120OSM    C9F12700   3.156   1.960   7.652 -0.6808  0.0756 -0.3095
  120OSM    H9F12701   3.222   2.030   7.599  0.1473 -1.1246 -0.8778
  120OSM   C10F12702   3.164   1.957   7.785 -0.2130  0.3889 -0.2283
  120OSM   H10F12703   3.225   2.040   7.825  1.6294 -1.6115  1.2986
  120OSM   C11F12704   3.096   1.860   7.876  0.1740 -0.2575  0.4847
  120OSM   H11F12705   3.167   1.775   7.886 -0.9637 -1.2307  0.3570
  120OSM   H11G12706   3.001   1.819   7.836 -0.8743 -2.0738  4.6535
  120OSM   C12F12707   3.055   1.907   8.023  0.2557  1.3386 -0.3830
  120OSM   H12F12708   2.997   1.823   8.067  2.9744  0.0062  0.8106
  120OSM   H12G12709   2.998   2.002   8.032 -1.8627 -0.0625  1.3696
  120OSM   C13F12710   3.179   1.919   8.118 -0.5652 -0.0247 -0.6152
  120OSM   H13F12711   3.243   1.997   8.070  0.4380  0.1815  1.0214
  120OSM   H13G12712   3.248   1.833   8.115 -0.9151 -0.4557  2.4513
  120OSM   C14F12713   3.136   1.923   8.264 -0.1849  0.0288 -1.2368
  120OSM   H14F12714   3.050   1.855   8.280 -0.0905  0.5697  2.0994
  120OSM   H14G12715   3.101   2.025   8.294 -0.6740 -1.2853  3.0969
  120OSM   C15F12716   3.243   1.893   8.363  0.0730  0.1667 -0.0764
  120OSM   H15F12717   3.333   1.957   8.350 -0.4245  0.7404 -0.7523
  120OSM   H15G12718   3.266   1.785   8.358  1.3576  0.4077  0.3153
  120OSM   C16F12719   3.196   1.900   8.509 -0.7703 -0.7915 -0.8917
  120OSM   H16F12720   3.103   1.847   8.538 -0.9030 -0.2979 -0.4102
  120OSM   H16G12721   3.179   2.008   8.528 -1.9277 -1.1353  0.0623
  120OSM   C17F12722   3.295   1.847   8.603 -0.9334  0.1964  0.6081
  120OSM   H17F12723   3.387   1.904   8.579 -0.7215 -0.5741 -0.4286
  120OSM   H17G12724   3.327   1.743   8.581  1.6872  0.4869  2.8293
  120OSM   C18F12725   3.268   1.847   8.755 -0.4211  0.7218  0.1792
  120OSM   H18F12726   3.340   1.786   8.813  0.8615  1.3585 -0.7110
  120OSM   H18G12727   3.164   1.822   8.787  1.1812 -2.6240  3.1061
  120OSM   H18H12728   3.285   1.952   8.788  0.7947  0.6934 -0.3245
  121OSM      N12729   4.902   3.672   5.844 -0.0681 -0.1576 -0.1047
  121OSM    C1512730   4.926   3.805   5.774 -0.0921  0.5589 -0.5303
  121OSM   H15A12731   5.007   3.859   5.819  1.4865 -0.8443 -1.5971
  121OSM   H15B12732   4.837   3.865   5.780 -0.8861 -0.4755 -1.6684
  121OSM   H15C12733   4.942   3.793   5.667  0.1824  0.3329 -0.4653
  121OSM    C1412734   4.780   3.624   5.768 -0.9412 -0.2684 -0.4695
  121OSM   H14A12735   4.757   3.521   5.793  0.1368 -0.5116 -0.4496
  121OSM   H14B12736   4.789   3.634   5.661  1.8788 -0.6300 -0.2901
  121OSM   H14C12737   4.685   3.669   5.794 -1.3820 -1.8352  0.7679
  121OSM    C1312738   5.020   3.577   5.814  0.8044 -0.2465 -0.4271
  121OSM   H13A12739   5.002   3.544   5.713 -0.8547  0.6633 -0.4565
  121OSM   H13B12740   5.017   3.487   5.874 -0.7849 -1.3269 -2.0890
  121OSM   H13C12741   5.118   3.622   5.821  0.5335  0.3278 -0.2761
  121OSM    C1212742   4.868   3.681   5.992 -0.4608 -0.5873  0.4455
  121OSM   H12A12743   4.846   3.580   6.023  1.2451 -0.9538  0.4920
  121OSM   H12B12744   4.783   3.744   6.013  0.5909  0.5144  1.3983
  121OSM    C1112745   4.981   3.731   6.088  0.0003 -0.0549 -0.3844
  121OSM   H11A12746   5.073   3.671   6.068 -0.0646 -0.3101  0.0858
  121OSM   H11B12747   4.950   3.715   6.193 -1.4556 -1.0959 -0.9579
  121OSM      P12748   5.150   3.936   6.076 -0.1295 -0.1642  0.2763
  121OSM    O1312749   5.201   3.949   5.942  0.0456 -0.0574  0.0262
  121OSM    O1412750   5.157   4.052   6.165 -0.1838  0.4779 -0.4129
  121OSM    O1112751   5.247   3.816   6.130 -0.0131 -0.4445  0.0708
  121OSM    O1212752   5.009   3.873   6.068  0.1568  0.5697 -0.0742
  121OSM    C1S12753   5.379   3.837   6.185  0.3665 -0.0330  0.4005
  121OSM    H1S12754   5.417   3.940   6.168 -0.8526  0.6770  1.8104
  121OSM    H1T12755   5.450   3.768   6.134 -0.4640  0.3314 -1.2807
  121OSM     NF12756   5.489   3.876   6.407  0.0394 -0.5111  0.4575
  121OSM    HNF12757   5.554   3.814   6.450 -1.9963 -1.3819  2.3490
  121OSM    C2S12758   5.374   3.816   6.339  0.6558 -0.5721 -0.1100
  121OSM    H2S12759   5.282   3.870   6.371  0.1974 -0.2869 -1.8529
  121OSM    C3S12760   5.362   3.662   6.369  0.1922  0.0606  0.1355
  121OSM    H3S12761   5.441   3.598   6.325 -0.5769  0.9200 -2.5987
  121OSM     O312762   5.237   3.612   6.311 -0.0466  0.0581 -0.3597
  121OSM    HO312763   5.228   3.678   6.242 -0.7350  0.0558 -0.2781
  121OSM    C4S12764   5.353   3.647   6.520  0.0820  0.0450  0.0489
  121OSM    H4S12765   5.450   3.634   6.571  0.1606  1.5267  0.3081
  121OSM    C5S12766   5.243   3.648   6.597 -0.6961  0.0752 -0.5026
  121OSM    H5S12767   5.144   3.638   6.548  0.0304  2.3550 -2.5926
  121OSM    C6S12768   5.251   3.641   6.744  0.0850 -0.7239 -0.1441
  121OSM    H6S12769   5.348   3.600   6.780  1.9331  1.6242 -2.3071
  121OSM    H6T12770   5.165   3.581   6.780 -0.9194  0.6939 -0.1555
  121OSM    C7S12771   5.241   3.786   6.804  0.3518  0.0251  0.0701
  121OSM    H7S12772   5.164   3.844   6.748  0.3089  1.1548  1.2746
  121OSM    H7T12773   5.327   3.855   6.788  1.4808 -1.0599  1.3564
  121OSM    C8S12774   5.207   3.776   6.953 -1.5667  0.1804 -0.5435
  121OSM    H8S12775   5.214   3.880   6.992 -0.9774 -0.5507  1.3298
  121OSM    H8T12776   5.293   3.722   6.998  0.2610  1.8342 -1.9876
  121OSM    C9S12777   5.078   3.711   6.995  0.2560  0.8165  0.1575
  121OSM    H9S12778   5.046   3.635   6.920  3.8795  0.8442 -1.5395
  121OSM    H9T12779   4.999   3.787   7.008 -0.4833 -0.5853  4.8878
  121OSM   C10S12780   5.086   3.632   7.129  0.1623  0.7028 -0.5646
  121OSM   H10S12781   5.184   3.580   7.124 -0.8758 -1.4538  0.5709
  121OSM   H10T12782   5.006   3.556   7.120 -0.6119  1.5997 -1.4053
  121OSM   C11S12783   5.058   3.715   7.253 -0.4521  0.2084  0.7729
  121OSM   H11S12784   4.955   3.753   7.234  0.3129  2.4555  0.9311
  121OSM   H11T12785   5.125   3.802   7.234 -0.6078  0.3097  0.6778
  121OSM   C12S12786   5.072   3.650   7.390 -0.0116 -0.0058  0.7057
  121OSM   H12S12787   5.179   3.622   7.394  0.1462  0.7201  1.9426
  121OSM   H12T12788   5.008   3.559   7.397 -0.0202 -0.3259 -2.7751
  121OSM   C13S12789   5.035   3.751   7.504 -0.2946  0.2328 -0.1351
  121OSM   H13S12790   4.928   3.779   7.496 -0.4158 -0.5383 -1.3601
  121OSM   H13T12791   5.083   3.850   7.493 -1.4574  1.0223  1.8210
  121OSM   C14S12792   5.060   3.702   7.642  0.1483  0.0779 -0.0531
  121OSM   H14S12793   5.167   3.692   7.669  0.8765 -0.1806 -2.9228
  121OSM   H14T12794   5.009   3.604   7.651 -0.8674  0.7254  1.4551
  121OSM   C15S12795   4.994   3.796   7.746 -0.4072  0.4271 -0.9016
  121OSM   H15S12796   4.884   3.806   7.733 -0.3369  0.0745 -1.7788
  121OSM   H15T12797   5.041   3.895   7.725  0.0559  0.1861 -1.0218
  121OSM   C16S12798   5.023   3.761   7.897  0.6183  0.7203 -0.2208
  121OSM   H16S12799   5.122   3.717   7.920  1.3020  1.5405 -1.4887
  121OSM   H16T12800   4.952   3.678   7.917 -1.0455  2.2095  0.2301
  121OSM   C17S12801   4.989   3.871   7.996 -0.5564 -0.3632  0.6133
  121OSM   H17S12802   4.903   3.936   7.967 -0.2655  0.1618  0.9241
  121OSM   H17T12803   5.070   3.946   7.983 -2.7597  2.3637  1.9196
  121OSM   C18S12804   4.972   3.819   8.135 -0.6482 -0.2881 -0.2564
  121OSM   H18S12805   5.029   3.724   8.149  2.1632  1.3323 -0.4442
  121OSM   H18T12806   4.868   3.802   8.170 -0.2003 -1.4713  0.5706
  121OSM   H18U12807   5.015   3.902   8.195 -0.6074  0.4525 -1.2952
  121OSM    C1F12808   5.521   4.007   6.409  0.6690  0.4291 -0.4074
  121OSM     OF12809   5.446   4.087   6.354  0.0409  0.2195  0.3124
  121OSM    C2F12810   5.649   4.039   6.484  0.0313  0.2260 -0.7424
  121OSM    H2F12811   5.727   4.046   6.405  0.3556  2.9017 -0.2280
  121OSM    H2G12812   5.674   3.955   6.551  2.0899  0.6895 -0.8948
  121OSM    C3F12813   5.653   4.176   6.557 -0.0487 -0.1681 -0.1231
  121OSM    H3F12814   5.632   4.252   6.479  0.7025 -0.6260 -0.7783
  121OSM    H3G12815   5.758   4.197   6.586 -0.7857  1.6366  1.3966
  121OSM    C4F12816   5.578   4.196   6.687 -0.0045  0.6213 -0.5090
  121OSM    H4F12817   5.472   4.219   6.663  0.7920  3.9538 -1.0387
  121OSM    H4G12818   5.616   4.281   6.748  1.4995  0.7622 -1.6348
  121OSM    C5F12819   5.581   4.074   6.784  0.4647 -0.4298 -0.8253
  121OSM    H5F12820   5.684   4.045   6.814  1.2101  1.4879 -1.4475
  121OSM    H5G12821   5.528   3.985   6.743  0.0928  0.0716 -1.4366
  121OSM    C6F12822   5.522   4.104   6.925 -0.1198 -0.4416  0.8392
  121OSM    H6F12823   5.414   4.120   6.904 -0.0691 -2.8164 -1.5525
  121OSM    H6G12824   5.561   4.197   6.971  0.0958  0.3241 -0.8502
  121OSM    C7F12825   5.540   3.993   7.029  0.1089  0.0902  0.4004
  121OSM    H7F12826   5.647   3.970   7.049 -0.2050 -0.1428  1.8741
  121OSM    H7G12827   5.488   3.899   6.999 -0.7858  0.8257 -0.4015
  121OSM    C8F12828   5.484   4.035   7.171  0.3359 -0.3552  0.0310
  121OSM    H8F12829   5.392   4.096   7.156  0.4216 -0.8605 -2.8131
  121OSM    H8G12830   5.562   4.100   7.214  1.2601 -0.5140 -1.3617
  121OSM    C9F12831   5.463   3.923   7.265  0.5330  0.0693  0.5236
  121OSM    H9F12832   5.535   3.841   7.247  1.7940  1.0285  1.1361
  121OSM   C10F12833   5.394   3.918   7.381 -0.1350  0.3904 -0.7505
  121OSM   H10F12834   5.405   3.829   7.445 -0.1289  1.2801  0.5197
  121OSM   C11F12835   5.305   4.034   7.429 -0.5176  0.5130  0.4849
  121OSM   H11F12836   5.207   4.022   7.377 -1.2584  0.8491  1.7766
  121OSM   H11G12837   5.351   4.129   7.393  1.7257 -0.2733  1.2661
  121OSM   C12F12838   5.294   4.049   7.579 -0.2762  0.0886 -0.3932
  121OSM   H12F12839   5.249   3.955   7.619 -0.4857  0.1820 -0.4095
  121OSM   H12G12840   5.226   4.128   7.617  0.5754 -0.4476  2.4397
  121OSM   C13F12841   5.432   4.081   7.636  0.8376 -0.5594 -0.5609
  121OSM   H13F12842   5.477   4.157   7.569  0.0072 -0.7329 -1.3277
  121OSM   H13G12843   5.481   3.982   7.625 -1.6491 -1.9716  0.5148
  121OSM   C14F12844   5.438   4.142   7.773  0.7045  0.7963  1.1184
  121OSM   H14F12845   5.365   4.226   7.772  0.6726  0.7691  0.3885
  121OSM   H14G12846   5.538   4.182   7.802  1.1057  1.9488 -1.6226
  121OSM   C15F12847   5.407   4.035   7.880  0.1429 -0.0449 -0.0185
  121OSM   H15F12848   5.473   3.948   7.857  0.8177  0.1591  1.1028
  121OSM   H15G12849   5.310   3.990   7.850 -0.0532  0.3946 -0.0494
  121OSM   C16F12850   5.424   4.072   8.024  0.3617  0.2331  0.0867
  121OSM   H16F12851   5.368   4.166   8.038 -1.2906 -0.6568 -0.4187
  121OSM   H16G12852   5.528   4.099   8.051 -0.0707  1.9589  0.1017
  121OSM   C17F12853   5.361   3.971   8.125  0.0358 -0.1720 -0.3817
  121OSM   H17F12854   5.420   3.878   8.125 -0.1328 -0.3006  1.3112
  121OSM   H17G12855   5.256   3.950   8.095  0.4279 -2.2667 -0.3541
  121OSM   C18F12856   5.364   4.021   8.268  0.3871  0.7220 -0.8483
  121OSM   H18F12857   5.324   3.947   8.340 -1.3182  2.5164  0.1280
  121OSM   H18G12858   5.302   4.113   8.275 -1.5843 -0.6988  1.2931
  121OSM   H18H12859   5.469   4.039   8.298  0.1083 -1.7519  1.7828
  122OSM      N12860   3.664   6.225   5.895 -0.6590 -0.2080 -0.0941
  122OSM    C1512861   3.676   6.089   5.836 -0.1697  0.5782 -0.2017
  122OSM   H15A12862   3.596   6.028   5.876 -0.2141 -0.6047 -2.0104
  122OSM   H15B12863   3.768   6.043   5.870 -0.0477  0.9420 -0.0340
  122OSM   H15C12864   3.660   6.105   5.731 -1.7182 -0.1434 -0.0844
  122OSM    C1412865   3.768   6.330   5.843  0.7238 -0.7504  0.0022
  122OSM   H14A12866   3.745   6.426   5.886  3.1422 -1.1574  2.3416
  122OSM   H14B12867   3.766   6.349   5.736  0.9287 -0.5228  0.0388
  122OSM   H14C12868   3.871   6.308   5.869  0.9086  1.9989  1.7207
  122OSM    C1312869   3.530   6.282   5.860  0.6787  0.3641 -0.1840
  122OSM   H13A12870   3.514   6.364   5.928  0.9517 -0.1387  0.4964
  122OSM   H13B12871   3.456   6.211   5.896  2.5935 -1.2642  0.6697
  122OSM   H13C12872   3.524   6.313   5.757  1.5066  1.7514  0.1760
  122OSM    C1212873   3.676   6.216   6.047 -0.6802  0.5558 -0.6998
  122OSM   H12A12874   3.599   6.158   6.095  0.5981  0.1722  0.9350
  122OSM   H12B12875   3.665   6.314   6.091  3.2375  0.5540  0.4640
  122OSM    C1112876   3.806   6.146   6.095  0.0186 -0.3718 -0.7786
  122OSM   H11A12877   3.831   6.162   6.202 -0.3419  0.5206 -0.8254
  122OSM   H11B12878   3.894   6.195   6.049 -0.4269  1.0857 -0.0919
  122OSM      P12879   3.750   5.886   6.137  0.1179 -0.0937 -0.1432
  122OSM    O1312880   3.607   5.870   6.127  0.4629  0.4396  0.5134
  122OSM    O1412881   3.824   5.760   6.109 -0.3017  0.4224 -0.2436
  122OSM    O1112882   3.785   5.916   6.293  0.3177  0.1052  0.3567
  122OSM    O1212883   3.815   6.004   6.060  0.1328 -0.0037 -0.1624
  122OSM    C1S12884   3.922   5.891   6.338  0.4317  0.0795  0.1348
  122OSM    H1S12885   4.002   5.926   6.268  1.0649 -0.9805  0.3192
  122OSM    H1T12886   3.939   5.782   6.352 -0.7589 -0.4176 -2.1227
  122OSM     NF12887   4.079   5.981   6.520 -0.2795  0.7656  0.2509
  122OSM    HNF12888   4.101   5.916   6.592  0.5096  1.0494  0.2659
  122OSM    C2S12889   3.939   5.963   6.479  0.1491 -1.0710 -0.4001
  122OSM    H2S12890   3.897   6.065   6.462  1.4451 -0.1974  1.4717
  122OSM    C3S12891   3.849   5.886   6.578  0.6723 -0.2316  0.1305
  122OSM    H3S12892   3.897   5.791   6.611  2.2464  1.6659  3.5925
  122OSM     O312893   3.714   5.855   6.536 -0.1423  0.0988 -0.0785
  122OSM    HO312894   3.711   5.903   6.453  1.3764  1.6114  0.7226
  122OSM    C4S12895   3.851   5.971   6.698  0.0225  0.6881 -0.5707
  122OSM    H4S12896   3.916   5.933   6.778 -0.2209 -0.9821 -1.1607
  122OSM    C5S12897   3.771   6.079   6.722 -0.0317 -0.0749  0.4423
  122OSM    H5S12898   3.688   6.096   6.651 -0.7610 -1.2916  0.9842
  122OSM    C6S12899   3.773   6.156   6.853  0.5367 -0.2104  0.3294
  122OSM    H6S12900   3.680   6.217   6.860  0.4053 -0.4744  0.8857
  122OSM    H6T12901   3.855   6.231   6.855 -0.4000  0.8162  0.6295
  122OSM    C7S12902   3.794   6.076   6.975 -0.4947  0.2366 -0.4100
  122OSM    H7S12903   3.895   6.030   6.977 -0.7483 -0.3011  1.6208
  122OSM    H7T12904   3.713   6.001   6.988 -0.7716  0.7409  0.8476
  122OSM    C8S12905   3.789   6.165   7.102 -0.6926  0.1420  0.7595
  122OSM    H8S12906   3.694   6.224   7.102  0.2218  1.6698  2.3560
  122OSM    H8T12907   3.873   6.237   7.094  0.5876 -1.4147 -0.0096
  122OSM    C9S12908   3.783   6.075   7.228  0.8908  0.1095 -1.1201
  122OSM    H9S12909   3.882   6.025   7.231  0.9394  0.2592  0.9108
  122OSM    H9T12910   3.705   5.999   7.206 -1.3128  2.4867 -1.6308
  122OSM   C10S12911   3.762   6.153   7.357  0.2928 -0.4825  0.0545
  122OSM   H10S12912   3.680   6.226   7.339  1.2139  0.3802 -0.6935
  122OSM   H10T12913   3.858   6.199   7.386 -0.4424 -0.4356  2.4998
  122OSM   C11S12914   3.719   6.060   7.472 -0.1087 -0.4787 -0.6745
  122OSM   H11S12915   3.793   5.980   7.493 -1.8398 -1.2534  3.0085
  122OSM   H11T12916   3.627   6.009   7.437 -0.0307 -0.2375 -1.2368
  122OSM   C12S12917   3.704   6.130   7.605 -0.2010  0.4308 -0.3020
  122OSM   H12S12918   3.611   6.189   7.595 -0.8344 -0.6486 -0.8665
  122OSM   H12T12919   3.795   6.191   7.624  0.2637 -0.5245  0.6077
  122OSM   C13S12920   3.699   6.034   7.722 -0.1031 -0.7871 -0.2546
  122OSM   H13S12921   3.798   5.985   7.716  0.1963 -0.5901  2.3670
  122OSM   H13T12922   3.611   5.967   7.712  1.1866 -2.5443  0.0004
  122OSM   C14S12923   3.700   6.110   7.856 -0.7017 -0.1269  0.5044
  122OSM   H14S12924   3.615   6.180   7.874  1.3966  3.0489 -1.3311
  122OSM   H14T12925   3.787   6.179   7.868 -0.1759 -0.5105 -1.0109
  122OSM   C15S12926   3.704   6.009   7.973 -0.3913 -0.5841  0.4112
  122OSM   H15S12927   3.778   5.929   7.948 -0.1670 -0.4790  0.7323
  122OSM   H15T12928   3.605   5.963   7.995 -0.4741 -0.5126  0.1782
  122OSM   C16S12929   3.730   6.083   8.107  0.1546 -0.0294  0.0600
  122OSM   H16S12930   3.648   6.149   8.145  1.6584  0.8239  1.8831
  122OSM   H16T12931   3.819   6.149   8.105  0.6424 -0.6835  0.2360
  122OSM   C17S12932   3.769   5.991   8.224 -0.1513  0.0039  0.1378
  122OSM   H17S12933   3.851   5.922   8.196  1.1506  1.0916  1.2165
  122OSM   H17T12934   3.681   5.930   8.254  0.1803 -0.7677 -0.4747
  122OSM   C18S12935   3.811   6.066   8.350 -0.2243  0.6349  0.2546
  122OSM   H18S12936   3.886   6.147   8.333 -0.7964  1.1683  0.2572
  122OSM   H18T12937   3.849   6.006   8.435 -0.6146  2.0245  1.4266
  122OSM   H18U12938   3.723   6.119   8.392  0.2764  1.4119  0.3502
  122OSM    C1F12939   4.157   6.084   6.477 -0.1384 -0.3879 -0.8829
  122OSM     OF12940   4.114   6.177   6.416  0.1538 -0.5375 -1.2730
  122OSM    C2F12941   4.306   6.071   6.517 -0.3952 -0.9651 -0.8288
  122OSM    H2F12942   4.371   6.057   6.428 -0.0612 -2.3809 -0.3618
  122OSM    H2G12943   4.312   5.984   6.585 -1.3706  0.7694  1.5524
  122OSM    C3F12944   4.345   6.205   6.583  0.3553  0.5169 -0.0549
  122OSM    H3F12945   4.317   6.290   6.516  2.1531  1.9872  1.0107
  122OSM    H3G12946   4.455   6.203   6.599 -0.0368  0.2167  2.8854
  122OSM    C4F12947   4.285   6.238   6.721  0.0256 -0.2846  0.2391
  122OSM    H4F12948   4.187   6.288   6.705  0.5837  0.6487 -0.3530
  122OSM    H4G12949   4.349   6.312   6.775 -2.6550  2.5083 -0.2759
  122OSM    C5F12950   4.269   6.124   6.830 -0.1686 -0.5559 -0.3791
  122OSM    H5F12951   4.367   6.078   6.856 -1.3628 -3.9287 -1.5248
  122OSM    H5G12952   4.218   6.035   6.787 -2.4987 -0.2755  1.7374
  122OSM    C6F12953   4.190   6.166   6.958  0.0381  0.2320  1.1209
  122OSM    H6F12954   4.156   6.070   7.002 -1.6547  0.2565 -0.0833
  122OSM    H6G12955   4.089   6.208   6.936  0.4604  0.7768  0.1844
  122OSM    C7F12956   4.264   6.257   7.047  0.1063  0.0943  0.7633
  122OSM    H7F12957   4.268   6.359   7.003  0.2320  0.6844  2.1447
  122OSM    H7G12958   4.365   6.222   7.075 -0.1317 -1.3325 -0.0550
  122OSM    C8F12959   4.181   6.267   7.178  0.3844 -0.1912 -0.2799
  122OSM    H8F12960   4.168   6.161   7.209  1.1774  0.1886  1.3596
  122OSM    H8G12961   4.084   6.302   7.137 -0.9427 -1.3209  1.8066
  122OSM    C9F12962   4.245   6.365   7.275 -0.1332  0.8001 -0.0078
  122OSM    H9F12963   4.317   6.435   7.231 -0.9362  0.1004 -2.5451
  122OSM   C10F12964   4.220   6.364   7.406  0.4239 -0.9437 -0.2543
  122OSM   H10F12965   4.266   6.446   7.462 -0.9536  0.2641 -0.8578
  122OSM   C11F12966   4.123   6.276   7.483 -0.0655  0.3554  0.3711
  122OSM   H11F12967   4.076   6.195   7.423 -2.0127  1.0084  1.0044
  122OSM   H11G12968   4.035   6.339   7.507 -0.6573  1.1864 -3.6052
  122OSM   C12F12969   4.188   6.193   7.605 -0.5849 -0.4639 -0.3672
  122OSM   H12F12970   4.258   6.117   7.564  0.0859  0.6938 -1.3973
  122OSM   H12G12971   4.111   6.138   7.663 -1.6180  1.4262  0.0737
  122OSM   C13F12972   4.260   6.295   7.700  0.3212 -0.3771 -1.0406
  122OSM   H13F12973   4.209   6.392   7.713  1.3348 -0.1176  1.1466
  122OSM   H13G12974   4.359   6.312   7.653  0.6359 -0.5372 -0.4374
  122OSM   C14F12975   4.280   6.223   7.841 -0.5989 -0.0819  0.0092
  122OSM   H14F12976   4.354   6.284   7.897 -1.4998  2.3314 -1.3598
  122OSM   H14G12977   4.322   6.124   7.814 -0.5634  0.8151 -3.4722
  122OSM   C15F12978   4.152   6.192   7.926 -0.5186 -0.7923 -0.0652
  122OSM   H15F12979   4.069   6.148   7.868 -1.4740  0.4007  0.3884
  122OSM   H15G12980   4.102   6.286   7.959 -0.0581 -0.3479 -0.6115
  122OSM   C16F12981   4.174   6.111   8.058  0.1677  0.3632 -0.9324
  122OSM   H16F12982   4.076   6.067   8.084  0.6779 -0.6075 -0.6152
  122OSM   H16G12983   4.200   6.180   8.140 -2.4301 -0.0658  0.3002
  122OSM   C17F12984   4.282   6.006   8.050 -0.3947 -0.0957  0.1425
  122OSM   H17F12985   4.379   6.056   8.032 -1.1053  1.2748  0.0863
  122OSM   H17G12986   4.252   5.951   7.959 -2.9614 -1.6720  1.8714
  122OSM   C18F12987   4.268   5.915   8.176  0.2256  0.5831  0.2275
  122OSM   H18F12988   4.349   5.841   8.159  1.5459  1.8200  1.0641
  122OSM   H18G12989   4.168   5.867   8.183  1.5006 -2.2339 -0.0593
  122OSM   H18H12990   4.293   5.969   8.270  2.6480  0.1058 -0.1042
  123OSM      N12991   1.200   1.072   6.369  0.5029 -0.1300 -0.1530
  123OSM    C1512992   1.182   1.058   6.221  0.1641 -0.5711  0.6028
  123OSM   H15A12993   1.202   0.960   6.180 -1.3093 -1.0612  1.0329
  123OSM   H15B12994   1.240   1.131   6.167  1.2785 -1.3947  0.6888
  123OSM   H15C12995   1.078   1.072   6.195  1.1229 -0.3754 -3.6033
  123OSM    C1412996   1.148   0.968   6.455 -0.3577 -0.0352  0.3608
  123OSM   H14A12997   1.172   0.976   6.560 -2.4521  0.1629  0.8523
  123OSM   H14B12998   1.192   0.872   6.429  1.5910  1.1118 -0.7058
  123OSM   H14C12999   1.040   0.970   6.448 -0.4056 -0.1656  1.0405
  123OSM    C1313000   1.346   1.086   6.388  0.5663 -0.4853  0.4542
  123OSM   H13A13001   1.391   0.990   6.368 -1.9768 -1.3480 -1.4181
  123OSM   H13B13002   1.372   1.130   6.483 -1.1442  0.0599  0.6858
  123OSM   H13C13003   1.394   1.154   6.319  0.1852  1.2380  1.8638
  123OSM    C1213004   1.137   1.209   6.405  0.2692  0.4632  0.3718
  123OSM   H12A13005   1.031   1.200   6.391  0.5895 -0.9417 -1.2780
  123OSM   H12B13006   1.175   1.282   6.335  0.8857 -1.0552 -0.9007
  123OSM    C1113007   1.152   1.269   6.547  0.4195  0.1757  0.3797
  123OSM   H11A13008   1.130   1.191   6.624 -1.1224  1.4781  1.2823
  123OSM   H11B13009   1.077   1.345   6.576 -0.3920  0.5170 -2.4860
  123OSM      P13010   1.330   1.454   6.546  0.1818 -0.3844 -0.0774
  123OSM    O1313011   1.477   1.433   6.522  0.4787  0.3615  0.0948
  123OSM    O1413012   1.243   1.513   6.440 -0.3519  0.6141  0.1224
  123OSM    O1113013   1.294   1.535   6.682 -0.3247  0.0485 -0.3222
  123OSM    O1213014   1.281   1.307   6.568 -0.1307 -0.0468  0.6272
  123OSM    C1S13015   1.323   1.479   6.811 -0.0401 -0.5981 -0.3114
  123OSM    H1S13016   1.434   1.486   6.822 -0.0131  0.8144 -1.4240
  123OSM    H1T13017   1.300   1.370   6.816 -0.5708 -0.4265  1.2252
  123OSM     NF13018   1.302   1.495   7.067 -0.0706  0.1869  0.5587
  123OSM    HNF13019   1.265   1.404   7.082  1.8348 -0.5559  0.8359
  123OSM    C2S13020   1.258   1.545   6.940  0.4279  1.3539  0.3218
  123OSM    H2S13021   1.292   1.651   6.944 -0.2406  1.5612  0.6997
  123OSM    C3S13022   1.105   1.537   6.913 -0.3455 -0.0454  0.5832
  123OSM    H3S13023   1.070   1.432   6.903 -1.1333  0.0542  2.1904
  123OSM     O313024   1.068   1.605   6.795  0.1366  0.1535  0.2953
  123OSM    HO313025   1.145   1.605   6.738 -0.3591  0.4457 -0.3761
  123OSM    C4S13026   1.035   1.604   7.023  0.0344 -0.3964 -0.8702
  123OSM    H4S13027   1.046   1.713   7.022 -1.9053 -0.1374  1.2485
  123OSM    C5S13028   0.960   1.554   7.119 -1.0317 -0.4860 -0.4988
  123OSM    H5S13029   0.953   1.444   7.115  2.0037 -0.7570  0.3977
  123OSM    C6S13030   0.888   1.633   7.223  0.3306 -0.5720 -0.4781
  123OSM    H6S13031   0.892   1.586   7.323 -0.3631  1.3707  0.4810
  123OSM    H6T13032   0.780   1.628   7.196 -0.1516 -1.4141  1.5233
  123OSM    C7S13033   0.934   1.777   7.268  0.7491 -0.0562 -0.4580
  123OSM    H7S13034   0.855   1.824   7.331  0.2663 -0.5058 -0.7265
  123OSM    H7T13035   0.938   1.843   7.179 -0.4411 -0.5998 -0.9372
  123OSM    C8S13036   1.059   1.771   7.349 -0.6310  0.4886  0.1711
  123OSM    H8S13037   1.139   1.730   7.283 -0.8740 -0.0328  0.1920
  123OSM    H8T13038   1.058   1.686   7.421 -1.0856  0.3349 -0.0135
  123OSM    C9S13039   1.103   1.904   7.398  0.1970  0.4724 -0.4560
  123OSM    H9S13040   1.072   1.979   7.323  1.5979  0.7353 -0.7927
  123OSM    H9T13041   1.214   1.903   7.406 -0.0148 -1.4966  2.9349
  123OSM   C10S13042   1.054   1.935   7.543 -0.4375 -0.4945  0.1652
  123OSM   H10S13043   0.944   1.943   7.529 -0.5450 -0.7900  0.8132
  123OSM   H10T13044   1.082   2.038   7.571 -0.0239 -0.5778  0.0582
  123OSM   C11S13045   1.103   1.851   7.667 -0.5612 -0.3222 -0.1145
  123OSM   H11S13046   1.212   1.833   7.676 -0.6089 -0.1163  0.8820
  123OSM   H11T13047   1.051   1.755   7.647  0.6477 -1.0541  0.2175
  123OSM   C12S13048   1.071   1.918   7.805 -0.5370 -0.3385 -0.1933
  123OSM   H12S13049   0.967   1.956   7.804 -0.9647 -1.4797 -0.2960
  123OSM   H12T13050   1.140   2.004   7.818  0.2263 -0.5500 -2.7014
  123OSM   C13S13051   1.100   1.811   7.910  0.2662 -0.4880 -0.4032
  123OSM   H13S13052   1.195   1.761   7.879  0.0676 -0.6761 -0.7092
  123OSM   H13T13053   1.032   1.724   7.911 -2.0274  1.2830  1.0572
  123OSM   C14S13054   1.116   1.862   8.057  0.1184 -0.4482 -0.0010
  123OSM   H14S13055   1.017   1.905   8.083 -0.9342 -2.3972 -0.7141
  123OSM   H14T13056   1.196   1.938   8.073 -0.8018  0.5705 -0.2266
  123OSM   C15S13057   1.134   1.744   8.155 -0.1767  0.2761 -0.1108
  123OSM   H15S13058   1.234   1.700   8.132  0.5162  0.1360  2.9437
  123OSM   H15T13059   1.053   1.670   8.135 -0.2483 -0.0030  1.1278
  123OSM   C16S13060   1.128   1.776   8.304  0.0020  0.0810  0.1681
  123OSM   H16S13061   1.126   1.682   8.363 -1.5604 -1.9544 -2.9765
  123OSM   H16T13062   1.032   1.827   8.324  0.0159  1.1708 -2.3069
  123OSM   C17S13063   1.246   1.854   8.365  0.2934  0.3955 -0.3264
  123OSM   H17S13064   1.242   1.952   8.314  0.2342  1.1455  1.0977
  123OSM   H17T13065   1.334   1.796   8.328 -0.2972  0.3059 -1.5940
  123OSM   C18S13066   1.219   1.867   8.514  0.5340 -0.3457 -0.2960
  123OSM   H18S13067   1.315   1.888   8.567  1.7553  1.0398 -2.9566
  123OSM   H18T13068   1.181   1.770   8.551  1.5644 -1.1040 -1.1723
  123OSM   H18U13069   1.153   1.953   8.540  0.5670 -0.9352  1.8423
  123OSM    C1F13070   1.415   1.541   7.129  0.1152 -0.2679  0.5458
  123OSM     OF13071   1.493   1.613   7.069  0.0435 -0.2026 -0.3622
  123OSM    C2F13072   1.435   1.503   7.269  0.8481  0.0475  0.2417
  123OSM    H2F13073   1.455   1.394   7.269  0.5818 -0.0019  0.4592
  123OSM    H2G13074   1.339   1.506   7.324  1.9407 -2.5633  2.4607
  123OSM    C3F13075   1.547   1.582   7.341 -0.7560  0.5807 -0.3056
  123OSM    H3F13076   1.541   1.692   7.324 -0.0817  0.8690  1.2678
  123OSM    H3G13077   1.646   1.549   7.303 -1.0713  0.5782 -1.1342
  123OSM    C4F13078   1.550   1.549   7.494  0.0007 -0.5258  0.1220
  123OSM    H4F13079   1.601   1.451   7.503 -0.8566 -1.0920 -1.1604
  123OSM    H4G13080   1.445   1.536   7.527 -0.0937  1.2400  0.5631
  123OSM    C5F13081   1.629   1.659   7.570  0.4423 -0.1705  0.0336
  123OSM    H5F13082   1.571   1.751   7.547 -0.4302 -0.7619 -0.1597
  123OSM    H5G13083   1.731   1.671   7.527  0.7423  1.6330  1.2021
  123OSM    C6F13084   1.645   1.633   7.722  0.2784 -0.5376 -0.4683
  123OSM    H6F13085   1.688   1.719   7.777  0.2030 -2.0205  1.9899
  123OSM    H6G13086   1.717   1.549   7.736 -0.2453 -0.5626  2.3706
  123OSM    C7F13087   1.522   1.584   7.797  0.0727  0.0201 -0.6225
  123OSM    H7F13088   1.495   1.477   7.783  0.0969 -0.2642  1.3216
  123OSM    H7G13089   1.438   1.650   7.768 -1.2526 -0.6623  1.5563
  123OSM    C8F13090   1.537   1.628   7.947 -0.3345 -0.4104 -0.0659
  123OSM    H8F13091   1.433   1.633   7.985  0.5082 -2.7335  2.7473
  123OSM    H8G13092   1.597   1.721   7.954 -0.5401 -0.1131 -1.9514
  123OSM    C9F13093   1.613   1.513   8.016  0.1208  0.3219  0.4887
  123OSM    H9F13094   1.618   1.418   7.961  2.4182  1.4887 -1.4101
  123OSM   C10F13095   1.669   1.525   8.135  0.4199 -0.5178  0.2258
  123OSM   H10F13096   1.708   1.435   8.184 -0.4953  0.2726  2.4418
  123OSM   C11F13097   1.674   1.648   8.225  0.6212 -0.0294 -0.3816
  123OSM   H11F13098   1.633   1.739   8.175  1.0008 -0.2470 -1.0858
  123OSM   H11G13099   1.769   1.681   8.273  1.8970 -2.6985 -1.0030
  123OSM   C12F13100   1.574   1.634   8.344  0.4745 -0.2249 -0.2971
  123OSM   H12F13101   1.475   1.588   8.319  2.0765 -4.7448  1.0765
  123OSM   H12G13102   1.549   1.733   8.387  1.8271  0.2974 -0.7106
  123OSM   C13F13103   1.618   1.529   8.461 -0.2362 -0.8498  0.1607
  123OSM   H13F13104   1.712   1.571   8.502 -1.9352  2.4935  0.7990
  123OSM   H13G13105   1.647   1.433   8.412  1.6235  0.4962 -1.4642
  123OSM   C14F13106   1.516   1.522   8.574  0.1434  0.1781 -0.3400
  123OSM   H14F13107   1.412   1.505   8.540  0.3394  0.0219 -0.8576
  123OSM   H14G13108   1.515   1.624   8.619  0.4878 -0.6090  1.4841
  123OSM   C15F13109   1.553   1.419   8.676  0.1447 -0.2684 -0.5050
  123OSM   H15F13110   1.636   1.472   8.729 -0.0988  0.6361 -1.0151
  123OSM   H15G13111   1.588   1.329   8.622  0.0638 -1.9034  2.0587
  123OSM   C16F13112   1.438   1.382   8.774 -0.3685  0.4173 -0.8354
  123OSM   H16F13113   1.477   1.329   8.863 -0.9727 -0.1118 -0.8772
  123OSM   H16G13114   1.373   1.318   8.710 -0.1055 -0.6487 -0.0479
  123OSM   C17F13115   1.348   1.497   8.818  1.3725  0.2476  0.2026
  123OSM   H17F13116   1.288   1.541   8.736 -1.7590 -2.0049  1.1898
  123OSM   H17G13117   1.410   1.576   8.866  1.7179 -1.1936  2.1884
  123OSM   C18F13118   1.246   1.440   8.926 -0.1029 -0.2554 -0.1911
  123OSM   H18F13119   1.176   1.522   8.955 -0.4783 -0.0463 -1.6502
  123OSM   H18G13120   1.306   1.405   9.013 -0.3471 -2.1826 -0.7804
  123OSM   H18H13121   1.189   1.355   8.883 -0.0399 -0.3913 -0.0079
  124OSM      N13122   2.809   4.887   5.836 -0.3145  0.0260 -0.3917
  124OSM    C1513123   2.732   5.003   5.784  0.1108 -0.3376 -0.0124
  124OSM   H15A13124   2.738   5.079   5.861 -3.7712  2.2268 -2.0392
  124OSM   H15B13125   2.630   4.983   5.756  0.4584 -0.3521 -1.3317
  124OSM   H15C13126   2.783   5.054   5.703  0.6550 -0.2594  0.3764
  124OSM    C1413127   2.874   4.818   5.725 -0.2776 -0.0310  0.2220
  124OSM   H14A13128   2.952   4.750   5.755  0.7914  1.8009  1.6594
  124OSM   H14B13129   2.927   4.881   5.657 -0.8381  0.1408 -0.0601
  124OSM   H14C13130   2.797   4.773   5.664  1.6216  0.9436 -2.9496
  124OSM    C1313131   2.923   4.938   5.920  0.3236 -0.1621  0.4665
  124OSM   H13A13132   2.975   4.850   5.956 -1.4262 -1.5955 -0.4310
  124OSM   H13B13133   2.888   4.985   6.011 -1.4767 -3.9029  1.8285
  124OSM   H13C13134   2.971   5.019   5.867 -2.1934  1.3239  0.3987
  124OSM    C1213135   2.726   4.792   5.921 -0.7270  0.2341 -0.0214
  124OSM   H12A13136   2.790   4.725   5.977  0.1225 -0.0875 -1.3404
  124OSM   H12B13137   2.659   4.743   5.853 -1.1571  0.1421  0.4686
  124OSM    C1113138   2.641   4.862   6.022 -0.6988 -0.3864  0.1373
  124OSM   H11A13139   2.564   4.929   5.977 -1.0062 -0.0356  1.1765
  124OSM   H11B13140   2.709   4.916   6.091  0.6056  1.1483 -2.2931
  124OSM      P13141   2.620   4.684   6.207 -0.3192 -0.0696 -0.3242
  124OSM    O1313142   2.616   4.784   6.319 -0.3257  0.5969  0.2276
  124OSM    O1413143   2.540   4.563   6.222  0.5951  0.3970  0.2377
  124OSM    O1113144   2.763   4.647   6.158 -0.1611  0.6776 -0.3312
  124OSM    O1213145   2.566   4.762   6.089 -0.1399  0.3760 -0.3480
  124OSM    C1S13146   2.880   4.703   6.225  0.4845  0.0971 -0.1155
  124OSM    H1S13147   2.862   4.797   6.282 -0.7962 -0.8305  1.0457
  124OSM    H1T13148   2.956   4.716   6.145 -0.0493 -0.6922 -0.7521
  124OSM     NF13149   3.025   4.685   6.408 -0.0707  0.5873 -0.1171
  124OSM    HNF13150   3.121   4.680   6.382  0.4226  3.9871  0.8578
  124OSM    C2S13151   2.930   4.608   6.334 -0.5126  1.1094  0.1436
  124OSM    H2S13152   2.842   4.587   6.398 -0.0850 -0.7070  0.1767
  124OSM    C3S13153   2.972   4.468   6.278 -0.1343  0.4232  0.4559
  124OSM    H3S13154   3.063   4.490   6.217  0.5809 -0.8811  1.0200
  124OSM     O313155   2.876   4.399   6.195  0.3592 -0.2490  0.1282
  124OSM    HO313156   2.812   4.470   6.189  1.2618  0.5436 -0.3631
  124OSM    C4S13157   3.009   4.377   6.387 -0.1176 -0.2773 -0.0754
  124OSM    H4S13158   3.115   4.350   6.386  0.0834  0.5271 -0.9164
  124OSM    C5S13159   2.938   4.305   6.477 -0.3121  0.2004  0.3995
  124OSM    H5S13160   2.829   4.325   6.477 -0.5789 -1.2001  0.8423
  124OSM    C6S13161   2.975   4.201   6.574  0.0625 -0.0196 -0.2677
  124OSM    H6S13162   2.988   4.095   6.542  0.5932 -0.4451  1.2681
  124OSM    H6T13163   2.890   4.199   6.647  0.0576  2.6734 -0.1701
  124OSM    C7S13164   3.102   4.232   6.654  0.4670 -0.1545  0.0669
  124OSM    H7S13165   3.109   4.339   6.680  1.9081 -0.0830 -0.5399
  124OSM    H7T13166   3.189   4.223   6.585  0.3215 -2.4978  0.1215
  124OSM    C8S13167   3.131   4.143   6.785 -0.0925 -0.0301  0.0128
  124OSM    H8S13168   3.101   4.040   6.756 -2.7389  1.7396 -4.0918
  124OSM    H8T13169   3.069   4.168   6.874 -0.1015 -2.8253  0.8367
  124OSM    C9S13170   3.276   4.143   6.826 -0.5951  0.2770  0.3751
  124OSM    H9S13171   3.348   4.103   6.753 -0.2644  3.0922 -0.9118
  124OSM    H9T13172   3.276   4.080   6.918  1.9815  0.0432  0.2472
  124OSM   C10S13173   3.323   4.279   6.863 -0.5768 -0.7377 -0.1982
  124OSM   H10S13174   3.241   4.326   6.921 -0.6378  1.0109 -1.6578
  124OSM   H10T13175   3.351   4.343   6.777 -1.3897 -1.0166 -0.6848
  124OSM   C11S13176   3.441   4.268   6.962 -0.0282 -0.1766 -0.0190
  124OSM   H11S13177   3.409   4.200   7.044 -0.1158 -1.0645 -0.7780
  124OSM   H11T13178   3.472   4.366   7.004  3.2459 -1.3687  0.4790
  124OSM   C12S13179   3.566   4.218   6.889 -0.8083  0.2017 -0.7343
  124OSM   H12S13180   3.626   4.303   6.850 -0.2154  0.0235 -0.2219
  124OSM   H12T13181   3.547   4.161   6.796 -1.6093 -0.7508  0.0070
  124OSM   C13S13182   3.661   4.139   6.985 -0.0429 -0.5109 -0.2246
  124OSM   H13S13183   3.675   4.215   7.065 -2.2157 -0.8046  0.4460
  124OSM   H13T13184   3.760   4.122   6.938  0.2020 -0.3984  0.2407
  124OSM   C14S13185   3.598   4.003   7.027 -0.2368  0.4880  0.4197
  124OSM   H14S13186   3.571   3.942   6.939 -0.7274  1.3374 -0.0257
  124OSM   H14T13187   3.503   4.032   7.077 -1.3460 -0.0949 -1.3442
  124OSM   C15S13188   3.697   3.931   7.126 -0.1947  0.6329  0.3823
  124OSM   H15S13189   3.720   4.004   7.207 -0.0681  2.2211 -1.0435
  124OSM   H15T13190   3.790   3.903   7.073 -0.5637 -0.5568  0.3590
  124OSM   C16S13191   3.630   3.811   7.202  0.1365  0.5303  0.3436
  124OSM   H16S13192   3.634   3.728   7.129 -0.5363  2.6057 -2.1489
  124OSM   H16T13193   3.526   3.827   7.237  0.2876  2.5331 -0.0287
  124OSM   C17S13194   3.721   3.771   7.326 -0.2995 -0.3333 -0.0474
  124OSM   H17S13195   3.711   3.848   7.405 -1.9975  0.6165 -1.1633
  124OSM   H17T13196   3.828   3.751   7.303 -0.2100 -1.1047  0.9888
  124OSM   C18S13197   3.666   3.639   7.390  0.7543 -0.0144  0.2336
  124OSM   H18S13198   3.569   3.674   7.431 -0.5258  0.0474 -2.7150
  124OSM   H18T13199   3.738   3.599   7.465  0.5635  3.1072  2.1561
  124OSM   H18U13200   3.635   3.559   7.319  1.7851 -0.4842  0.3071
  124OSM    C1F13201   2.996   4.789   6.488 -0.3822  0.5733  0.8774
  124OSM     OF13202   2.878   4.818   6.524  0.3753 -0.1846  0.1737
  124OSM    C2F13203   3.117   4.873   6.539  0.3937  0.2266  0.3472
  124OSM    H2F13204   3.108   4.981   6.513 -0.2545  0.2488  0.6567
  124OSM    H2G13205   3.218   4.853   6.497  0.6485 -1.0042  1.5078
  124OSM    C3F13206   3.121   4.872   6.698  0.9942  0.2477  0.3714
  124OSM    H3F13207   3.021   4.891   6.742 -0.4015  1.8238 -3.2171
  124OSM    H3G13208   3.197   4.944   6.734  0.1140  1.0161  0.7243
  124OSM    C4F13209   3.181   4.747   6.760  0.0675 -0.3418 -0.3025
  124OSM    H4F13210   3.266   4.706   6.702  1.6633 -1.0403  2.4527
  124OSM    H4G13211   3.098   4.673   6.763 -0.5506  0.3488 -0.2474
  124OSM    C5F13212   3.208   4.770   6.912 -0.3862 -0.0315  0.2016
  124OSM    H5F13213   3.116   4.785   6.972 -0.4603  1.4188 -0.2613
  124OSM    H5G13214   3.281   4.853   6.910 -0.8079  0.4052  2.1453
  124OSM    C6F13215   3.294   4.651   6.968 -0.1150  0.3165  0.0004
  124OSM    H6F13216   3.373   4.636   6.892 -0.5229 -0.6214 -0.2490
  124OSM    H6G13217   3.240   4.555   6.982  0.6237 -0.0134  0.5492
  124OSM    C7F13218   3.349   4.684   7.104  0.0402 -0.4356 -0.2285
  124OSM    H7F13219   3.394   4.785   7.119 -0.4031 -0.0152 -1.5812
  124OSM    H7G13220   3.433   4.613   7.118 -0.2990 -1.1554 -1.7629
  124OSM    C8F13221   3.232   4.648   7.213 -0.1099  0.1032  0.6448
  124OSM    H8F13222   3.202   4.542   7.198  2.0630 -0.1924 -2.0494
  124OSM    H8G13223   3.146   4.715   7.197 -0.5325 -0.8847 -1.2857
  124OSM    C9F13224   3.291   4.662   7.354  0.5142  0.2752 -0.3352
  124OSM    H9F13225   3.375   4.592   7.371 -0.7525 -1.0137  0.7055
  124OSM   C10F13226   3.251   4.747   7.450 -0.0565 -0.0762 -0.1671
  124OSM   H10F13227   3.296   4.735   7.550  1.4957  2.2555 -0.5706
  124OSM   C11F13228   3.134   4.845   7.430 -0.1361  0.3035  0.0315
  124OSM   H11F13229   3.041   4.787   7.413  2.5991 -3.7450 -2.0433
  124OSM   H11G13230   3.148   4.895   7.332  2.5041 -1.7552 -0.7097
  124OSM   C12F13231   3.116   4.956   7.538 -1.0673 -0.2244  0.1141
  124OSM   H12F13232   3.021   5.012   7.525  0.4473  1.7873 -2.7400
  124OSM   H12G13233   3.187   5.040   7.545 -0.4901 -0.5738 -1.3177
  124OSM   C13F13234   3.111   4.905   7.682  0.0334 -0.1155 -0.1062
  124OSM   H13F13235   3.210   4.877   7.723 -0.1735  0.5532  0.8956
  124OSM   H13G13236   3.040   4.819   7.691  0.1551 -0.7621 -4.4727
  124OSM   C14F13237   3.052   5.011   7.777 -0.3235 -0.2203  0.4805
  124OSM   H14F13238   2.947   5.043   7.762  0.5191  2.0327 -1.0493
  124OSM   H14G13239   3.109   5.106   7.764  0.4081 -0.8624 -1.1561
  124OSM   C15F13240   3.066   4.967   7.920  1.0345 -0.2746 -0.0644
  124OSM   H15F13241   3.124   4.878   7.954 -0.0898 -0.6421  0.9672
  124OSM   H15G13242   2.961   4.951   7.954  0.8476  2.1910  0.5535
  124OSM   C16F13243   3.117   5.086   8.015  0.1205 -0.3926 -0.1655
  124OSM   H16F13244   3.035   5.161   8.007  1.4664  1.3356  1.8263
  124OSM   H16G13245   3.213   5.118   7.968  0.6872  0.1320  1.3329
  124OSM   C17F13246   3.142   5.065   8.162 -0.3392 -0.5548  0.0663
  124OSM   H17F13247   3.241   5.026   8.194 -0.1227 -1.4926 -1.7082
  124OSM   H17G13248   3.072   4.987   8.198 -1.3137 -0.4607 -1.5682
  124OSM   C18F13249   3.111   5.197   8.241  0.0620  0.4651  0.2823
  124OSM   H18F13250   3.007   5.231   8.224 -0.0878 -0.2427 -0.2594
  124OSM   H18G13251   3.175   5.277   8.199  0.6578  1.0512  2.2526
  124OSM   H18H13252   3.131   5.190   8.351 -2.1269  0.0039  0.6740
  125OSM      N13253   6.181   3.488   5.856 -0.1636  0.3705  0.3650
  125OSM    C1513254   6.262   3.381   5.791 -0.4019 -0.0466 -0.2449
  125OSM   H15A13255   6.244   3.365   5.686 -2.3502 -0.3014  0.1145
  125OSM   H15B13256   6.237   3.287   5.839 -1.4777 -0.3743 -1.4267
  125OSM   H15C13257   6.367   3.398   5.812 -0.5879 -0.7022  1.2786
  125OSM    C1413258   6.218   3.616   5.789  0.2445  0.4475  0.6421
  125OSM   H14A13259   6.150   3.697   5.813  0.1997  0.4881  0.3796
  125OSM   H14B13260   6.226   3.620   5.682  0.2430  1.9845  0.6835
  125OSM   H14C13261   6.317   3.645   5.821  1.6069 -2.2750 -0.9885
  125OSM    C1313262   6.036   3.457   5.835  0.1765 -0.1903  0.2089
  125OSM   H13A13263   6.008   3.368   5.890 -2.5726  0.6533  0.2325
  125OSM   H13B13264   6.021   3.428   5.732  1.5687  0.0490 -0.0678
  125OSM   H13C13265   5.977   3.542   5.866  1.8948  0.6962  1.1294
  125OSM    C1213266   6.214   3.506   6.003  0.4249  0.8493  0.0482
  125OSM   H12A13267   6.141   3.574   6.043  0.7666  1.6358 -0.6488
  125OSM   H12B13268   6.312   3.550   6.005  0.3855  0.9486 -0.2421
  125OSM    C1113269   6.216   3.382   6.092 -0.4371 -0.4017  0.7949
  125OSM   H11A13270   6.243   3.422   6.192  1.7226 -4.2243  1.8520
  125OSM   H11B13271   6.303   3.323   6.056 -0.8389 -0.9362  0.7037
  125OSM      P13272   6.072   3.181   6.165  0.1687 -0.2754 -0.4324
  125OSM    O1313273   5.930   3.143   6.158 -0.1661 -0.3440 -0.1223
  125OSM    O1413274   6.169   3.086   6.109 -0.6811  0.6397 -0.3934
  125OSM    O1113275   6.118   3.218   6.315 -0.1052  0.1661 -0.1577
  125OSM    O1213276   6.092   3.318   6.092 -0.6652  0.4878 -0.1636
  125OSM    C1S13277   6.019   3.232   6.421  0.7893 -0.2861  0.5300
  125OSM    H1S13278   5.968   3.135   6.437  0.5332 -0.6215 -2.0648
  125OSM    H1T13279   5.941   3.305   6.391  0.0477 -0.8978  0.9560
  125OSM     NF13280   5.985   3.246   6.666 -0.4980 -1.1293 -0.1629
  125OSM    HNF13281   5.946   3.330   6.705  0.1031 -0.9721  0.1047
  125OSM    C2S13282   6.087   3.275   6.562 -0.8064  0.4255 -0.0854
  125OSM    H2S13283   6.175   3.208   6.569 -0.2840  1.0255 -0.8801
  125OSM    C3S13284   6.140   3.418   6.544 -0.3755 -0.6463  0.1228
  125OSM    H3S13285   6.046   3.473   6.524 -0.9962 -1.4612  0.7625
  125OSM     O313286   6.236   3.414   6.444 -0.3858 -0.0451 -0.0298
  125OSM    HO313287   6.219   3.333   6.396 -0.9848 -0.4121  0.7988
  125OSM    C4S13288   6.205   3.461   6.672 -0.1208 -0.3231  0.1903
  125OSM    H4S13289   6.283   3.399   6.719  0.5135 -0.8463 -1.4763
  125OSM    C5S13290   6.163   3.558   6.749 -0.3586 -0.0814 -0.0832
  125OSM    H5S13291   6.078   3.623   6.723 -0.9593  0.0921  2.2075
  125OSM    C6S13292   6.215   3.599   6.890 -0.3464  0.2856  0.1489
  125OSM    H6S13293   6.166   3.527   6.959  2.4947 -2.5272 -0.6669
  125OSM    H6T13294   6.182   3.703   6.910  2.8280  0.8975  2.7079
  125OSM    C7S13295   6.370   3.595   6.925 -0.4952  0.1067  0.1867
  125OSM    H7S13296   6.433   3.648   6.851 -0.1462 -0.1265  0.3103
  125OSM    H7T13297   6.412   3.493   6.935 -2.9839 -0.9563  0.1896
  125OSM    C8S13298   6.388   3.682   7.053 -0.0581 -0.0064 -0.1491
  125OSM    H8S13299   6.374   3.791   7.035  1.7922  0.2671 -0.0042
  125OSM    H8T13300   6.491   3.674   7.093  0.4853  1.3263 -1.2344
  125OSM    C9S13301   6.300   3.641   7.163  0.1513  1.2619  0.5005
  125OSM    H9S13302   6.313   3.533   7.187 -2.1348  1.0075  0.6843
  125OSM    H9T13303   6.192   3.649   7.138  0.0175  0.4452  0.7749
  125OSM   C10S13304   6.333   3.728   7.283  0.0007  0.3093 -0.7018
  125OSM   H10S13305   6.327   3.837   7.265  2.7257  0.2402 -2.2954
  125OSM   H10T13306   6.433   3.698   7.321 -1.1317 -1.2811  1.1186
  125OSM   C11S13307   6.232   3.707   7.399  0.8453  0.3328 -0.0761
  125OSM   H11S13308   6.237   3.601   7.435 -1.6582  0.0478 -0.4803
  125OSM   H11T13309   6.128   3.722   7.363  1.0290 -3.1594 -2.3691
  125OSM   C12S13310   6.250   3.810   7.513  0.1668  0.2534 -0.4050
  125OSM   H12S13311   6.225   3.913   7.480  0.2701  0.7915  1.1773
  125OSM   H12T13312   6.357   3.806   7.545 -0.1522  0.3152  0.6577
  125OSM   C13S13313   6.155   3.783   7.635 -0.2153  0.1995 -0.4743
  125OSM   H13S13314   6.047   3.804   7.617 -0.6146 -1.5365 -0.2086
  125OSM   H13T13315   6.183   3.859   7.711  1.4353 -1.2233  0.3652
  125OSM   C14S13316   6.168   3.642   7.698  0.3169 -0.2218 -0.2004
  125OSM   H14S13317   6.273   3.611   7.675 -1.1008 -2.4561 -4.0383
  125OSM   H14T13318   6.108   3.564   7.648 -1.6719 -0.3102  2.2413
  125OSM   C15S13319   6.134   3.642   7.845 -0.3049 -0.3214  0.0262
  125OSM   H15S13320   6.032   3.685   7.854 -0.9864 -1.8520 -0.2567
  125OSM   H15T13321   6.200   3.719   7.892  0.3930  0.8717 -2.7824
  125OSM   C16S13322   6.147   3.507   7.915 -0.3818 -0.0811 -0.1814
  125OSM   H16S13323   6.087   3.427   7.866  0.4296 -1.5857  1.2504
  125OSM   H16T13324   6.100   3.509   8.016  3.0924 -0.7947  1.5016
  125OSM   C17S13325   6.296   3.472   7.947  0.0684  0.8703 -0.6300
  125OSM   H17S13326   6.347   3.569   7.967  2.1185  0.2159 -2.4752
  125OSM   H17T13327   6.337   3.436   7.850  1.2242  0.9958 -0.1975
  125OSM   C18S13328   6.306   3.366   8.065 -0.1599 -0.6194  0.0956
  125OSM   H18S13329   6.412   3.348   8.092 -0.4504 -2.0450  0.3172
  125OSM   H18T13330   6.267   3.270   8.023 -0.9491 -0.9377  1.5302
  125OSM   H18U13331   6.247   3.396   8.155  1.1059 -0.9032  1.0279
  125OSM    C1F13332   5.950   3.118   6.693 -0.4298 -0.2353  0.0949
  125OSM     OF13333   6.023   3.030   6.656  0.3117 -0.6729 -0.4550
  125OSM    C2F13334   5.826   3.095   6.772 -0.5672 -0.0543 -0.1355
  125OSM    H2F13335   5.750   3.034   6.719 -0.0560  0.2388 -1.2125
  125OSM    H2G13336   5.791   3.190   6.818 -1.4228 -0.5088  0.1607
  125OSM    C3F13337   5.864   2.989   6.882 -0.3630 -0.7456 -0.3749
  125OSM    H3F13338   5.960   3.027   6.925  0.3397 -1.5953 -1.1837
  125OSM    H3G13339   5.891   2.889   6.843 -0.7536 -1.7102  1.7310
  125OSM    C4F13340   5.769   2.973   6.991  0.0068  0.1748  0.0436
  125OSM    H4F13341   5.731   2.870   6.975  0.9621 -0.1871  0.0886
  125OSM    H4G13342   5.687   3.046   6.974  1.3281  1.1233 -2.4364
  125OSM    C5F13343   5.829   3.014   7.125 -0.1785 -0.1616  0.0378
  125OSM    H5F13344   5.894   3.103   7.110  0.4531 -0.4094  1.2492
  125OSM    H5G13345   5.905   2.938   7.152  1.4384  1.1257 -0.8484
  125OSM    C6F13346   5.719   3.039   7.225  0.7561 -0.6035 -0.4163
  125OSM    H6F13347   5.639   2.962   7.236 -0.4511  0.5739 -0.7134
  125OSM    H6G13348   5.658   3.126   7.190 -0.1465 -1.2939 -0.5915
  125OSM    C7F13349   5.771   3.081   7.370  0.0668  0.1341  0.0809
  125OSM    H7F13350   5.826   3.177   7.372  3.0191 -1.4248 -2.0404
  125OSM    H7G13351   5.848   3.021   7.424  0.5163  1.5601  1.0519
  125OSM    C8F13352   5.655   3.101   7.467 -0.0462  0.4331  0.8131
  125OSM    H8F13353   5.599   3.189   7.429  0.3932  1.2030  1.9347
  125OSM    H8G13354   5.697   3.144   7.560 -2.3985  2.5104  0.9783
  125OSM    C9F13355   5.578   2.975   7.493  0.5668 -0.2776 -0.2954
  125OSM    H9F13356   5.555   2.912   7.405  2.4244 -2.0828  0.4631
  125OSM   C10F13357   5.535   2.929   7.613 -0.1942 -0.0839 -0.3279
  125OSM   H10F13358   5.486   2.830   7.612 -2.9442  1.2220  1.3456
  125OSM   C11F13359   5.562   2.990   7.749 -0.2133 -0.1226 -0.9260
  125OSM   H11F13360   5.495   3.077   7.766 -1.9786 -1.9134  1.5859
  125OSM   H11G13361   5.663   3.036   7.751 -0.4818  0.4548  1.2884
  125OSM   C12F13362   5.542   2.907   7.876 -0.1647 -0.2675 -0.2567
  125OSM   H12F13363   5.628   2.837   7.870  0.6357  0.5396  1.3099
  125OSM   H12G13364   5.451   2.845   7.884 -0.0560 -0.0814  3.3396
  125OSM   C13F13365   5.553   2.990   7.994 -1.0001 -0.0761 -0.5138
  125OSM   H13F13366   5.462   3.053   7.996  0.2371  1.7500 -0.4459
  125OSM   H13G13367   5.638   3.062   7.985 -0.0226 -1.2861 -1.1596
  125OSM   C14F13368   5.590   2.921   8.125 -0.1441  0.4647 -0.1878
  125OSM   H14F13369   5.681   2.857   8.119 -0.2664  0.2753 -0.0333
  125OSM   H14G13370   5.505   2.855   8.152 -0.3739  0.9322  0.2176
  125OSM   C15F13371   5.616   3.035   8.230 -0.3008  0.6963  0.5032
  125OSM   H15F13372   5.593   2.989   8.328  1.7811 -4.1991 -1.0922
  125OSM   H15G13373   5.540   3.113   8.208 -0.2694  1.3751  2.6772
  125OSM   C16F13374   5.756   3.096   8.217  0.5373  0.1540 -0.2010
  125OSM   H16F13375   5.735   3.204   8.226  0.4602  0.1477 -0.3091
  125OSM   H16G13376   5.798   3.091   8.114 -0.1967  0.7735 -0.5350
  125OSM   C17F13377   5.853   3.074   8.333 -0.1316 -0.4318  0.0889
  125OSM   H17F13378   5.878   2.968   8.358  0.7589 -0.4657 -0.9362
  125OSM   H17G13379   5.794   3.116   8.417 -2.4492 -0.8445 -1.2901
  125OSM   C18F13380   5.990   3.143   8.323 -0.3146 -0.6129  0.0811
  125OSM   H18F13381   6.060   3.124   8.408 -0.9555  1.1223  1.0362
  125OSM   H18G13382   5.979   3.250   8.295  2.9295  0.4951  2.7730
  125OSM   H18H13383   6.043   3.097   8.237  0.7811 -2.1159  1.5292
  126OSM      N13384   3.213   0.373   6.438 -0.1236 -0.2025 -0.2163
  126OSM    C1513385   3.279   0.507   6.450  0.0847  0.1199  0.6367
  126OSM   H15A13386   3.386   0.493   6.461  0.3476  1.0937 -0.6478
  126OSM   H15B13387   3.243   0.560   6.537 -1.8135  0.2088 -0.1868
  126OSM   H15C13388   3.263   0.558   6.357  2.1081 -1.5472 -0.6904
  126OSM    C1413389   3.256   0.304   6.315 -0.7543  0.5104  0.0847
  126OSM   H14A13390   3.361   0.280   6.318 -0.6473  0.9137 -0.3220
  126OSM   H14B13391   3.239   0.370   6.231  4.4744  1.0719 -0.6765
  126OSM   H14C13392   3.217   0.206   6.291 -1.2117  0.4413  1.0758
  126OSM    C1313393   3.237   0.290   6.559  0.9990  0.2902  0.0091
  126OSM   H13A13394   3.194   0.192   6.543  1.0041  0.2521  0.2272
  126OSM   H13B13395   3.195   0.343   6.644 -1.6558 -3.4296  1.1509
  126OSM   H13C13396   3.344   0.280   6.568  1.2615  0.6010 -2.3721
  126OSM    C1213397   3.063   0.396   6.426  0.1257  0.1779 -0.0016
  126OSM   H12A13398   3.015   0.300   6.416 -0.5529  0.4227  0.8016
  126OSM   H12B13399   3.053   0.456   6.337 -1.3640 -0.0484 -0.0018
  126OSM    C1113400   2.987   0.460   6.546  0.3987 -0.8020  0.7752
  126OSM   H11A13401   2.978   0.393   6.634 -3.7733  2.5731  3.1213
  126OSM   H11B13402   2.886   0.487   6.510  1.6133  1.6104 -0.9956
  126OSM      P13403   3.015   0.720   6.597 -0.0921 -0.1654 -0.2994
  126OSM    O1313404   3.106   0.798   6.682  0.0659  0.6321  0.2562
  126OSM    O1413405   3.002   0.765   6.453  0.1445  0.6866 -0.1090
  126OSM    O1113406   2.868   0.718   6.659 -0.3597  0.6435  0.3480
  126OSM    O1213407   3.060   0.572   6.603  0.1812 -0.1417 -0.1316
  126OSM    C1S13408   2.843   0.671   6.792 -0.0584  0.4396 -0.0533
  126OSM    H1S13409   2.871   0.564   6.799 -0.0733  0.5255  1.4519
  126OSM    H1T13410   2.733   0.678   6.809  0.1978  0.5069  1.6734
  126OSM     NF13411   2.832   0.680   7.027 -0.3382 -0.1220  0.4692
  126OSM    HNF13412   2.750   0.725   7.062 -1.0959 -1.0631 -0.0781
  126OSM    C2S13413   2.892   0.747   6.919 -0.5561 -0.5861  0.0475
  126OSM    H2S13414   3.003   0.748   6.919 -0.5428  2.2998  0.8746
  126OSM    C3S13415   2.855   0.896   6.914  0.3162 -0.1546 -0.5277
  126OSM    H3S13416   2.745   0.909   6.922  0.2834 -1.9822  2.6561
  126OSM     O313417   2.884   0.973   6.795 -0.0459 -0.0184  0.0058
  126OSM    HO313418   2.936   0.915   6.738  0.7112  0.4283  0.2353
  126OSM    C4S13419   2.908   0.979   7.033  0.0358 -0.3568 -0.4056
  126OSM    H4S13420   3.018   0.987   7.036 -0.1471  2.8474  0.1141
  126OSM    C5S13421   2.841   1.048   7.126  0.6464 -0.3958  0.5842
  126OSM    H5S13422   2.733   1.063   7.111  0.7702 -0.7742 -0.7274
  126OSM    C6S13423   2.906   1.117   7.243  0.0605  0.0297  0.8753
  126OSM    H6S13424   2.883   1.225   7.242 -3.3019 -0.5833  3.1841
  126OSM    H6T13425   3.017   1.110   7.248  0.0386 -0.9411  0.1610
  126OSM    C7S13426   2.861   1.065   7.379  0.5503 -0.6453 -0.1232
  126OSM    H7S13427   2.873   0.955   7.384  0.2824 -0.5906  2.6437
  126OSM    H7T13428   2.752   1.073   7.399  0.1366 -2.2066 -1.6396
  126OSM    C8S13429   2.931   1.130   7.507  0.3533 -0.5202 -0.0085
  126OSM    H8S13430   2.962   1.237   7.496  0.9592 -0.9898 -3.3636
  126OSM    H8T13431   3.020   1.065   7.521  0.0529 -0.5371  2.0089
  126OSM    C9S13432   2.849   1.134   7.644  0.1052 -0.0301 -0.3225
  126OSM    H9S13433   2.774   1.052   7.635 -0.6109  0.5760  0.1154
  126OSM    H9T13434   2.788   1.226   7.636 -1.7020 -1.2845 -1.3670
  126OSM   C10S13435   2.929   1.107   7.765  0.0754 -0.0443 -0.1992
  126OSM   H10S13436   3.015   1.178   7.769 -1.9381  2.4557 -0.2292
  126OSM   H10T13437   2.969   1.004   7.762 -0.5344 -0.2924  0.1848
  126OSM   C11S13438   2.844   1.130   7.888 -0.6937 -0.0287 -0.4979
  126OSM   H11S13439   2.757   1.061   7.893 -0.7901  0.2775  3.3580
  126OSM   H11T13440   2.801   1.232   7.892 -1.2623 -0.3195  1.6549
  126OSM   C12S13441   2.919   1.112   8.024 -0.7164 -0.5783 -0.0047
  126OSM   H12S13442   2.978   1.204   8.047  0.2243 -1.1211 -0.2347
  126OSM   H12T13443   2.985   1.023   8.012 -1.4066 -1.1704  0.5552
  126OSM   C13S13444   2.839   1.089   8.154  0.3817 -0.2627 -0.0374
  126OSM   H13S13445   2.826   0.981   8.176 -0.7734 -0.4316 -1.4833
  126OSM   H13T13446   2.735   1.128   8.145  0.9953  1.1656 -1.0674
  126OSM   C14S13447   2.906   1.155   8.269 -0.2612  0.5015  0.7815
  126OSM   H14S13448   2.841   1.150   8.359 -1.6630 -0.7688 -0.2815
  126OSM   H14T13449   2.933   1.261   8.249 -1.4584  0.5816 -0.4862
  126OSM   C15S13450   3.040   1.088   8.306  0.2230 -0.3794  0.0666
  126OSM   H15S13451   3.097   1.054   8.216 -1.8185  0.9447 -1.7612
  126OSM   H15T13452   3.017   0.993   8.359 -0.5401 -1.7547 -2.6521
  126OSM   C16S13453   3.134   1.178   8.393 -0.7342 -0.3027  0.1693
  126OSM   H16S13454   3.142   1.282   8.355  1.4096 -0.6174 -0.2867
  126OSM   H16T13455   3.239   1.145   8.406 -0.8108 -0.5956  0.0451
  126OSM   C17S13456   3.093   1.181   8.535 -0.4086  0.1538  0.0393
  126OSM   H17S13457   3.092   1.082   8.586  0.3516  1.0795  1.8693
  126OSM   H17T13458   2.990   1.220   8.531 -0.4160  0.5686  3.3413
  126OSM   C18S13459   3.182   1.269   8.618  0.1234  0.4562  0.1632
  126OSM   H18S13460   3.284   1.227   8.620 -0.7532 -1.7645 -0.5194
  126OSM   H18T13461   3.150   1.278   8.724  1.1530  0.0378  0.5057
  126OSM   H18U13462   3.200   1.370   8.574  2.6991  0.4834  1.2014
  126OSM    C1F13463   2.870   0.558   7.063 -1.3403 -0.0622 -0.5371
  126OSM     OF13464   2.965   0.500   7.010 -0.1249  0.2440 -0.5378
  126OSM    C2F13465   2.794   0.483   7.162  0.5289  0.4598  0.0963
  126OSM    H2F13466   2.720   0.410   7.122 -0.5530  1.5110  0.1562
  126OSM    H2G13467   2.732   0.558   7.215 -1.0668  1.3337 -2.8631
  126OSM    C3F13468   2.885   0.413   7.264  0.2731 -0.6739 -0.0225
  126OSM    H3F13469   2.933   0.494   7.324 -0.4107 -0.2028 -0.1119
  126OSM    H3G13470   2.956   0.342   7.217  0.5313  0.8762 -2.0052
  126OSM    C4F13471   2.806   0.334   7.377 -0.0793 -0.0740  0.0520
  126OSM    H4F13472   2.741   0.261   7.325 -1.2128  1.6322 -0.9577
  126OSM    H4G13473   2.743   0.400   7.439  0.5627 -2.3384  3.2079
  126OSM    C5F13474   2.895   0.254   7.475  0.5389  0.5831  0.0629
  126OSM    H5F13475   2.994   0.301   7.455  0.2691 -0.0065 -2.9236
  126OSM    H5G13476   2.901   0.144   7.463 -1.7705  0.0936  2.7744
  126OSM    C6F13477   2.867   0.276   7.624  0.7589 -0.6429  0.1420
  126OSM    H6F13478   2.926   0.203   7.683  1.6435  0.2536  0.3805
  126OSM    H6G13479   2.763   0.244   7.645  0.2962  2.6664  3.5828
  126OSM    C7F13480   2.891   0.423   7.679  0.0756  0.6530 -0.4195
  126OSM    H7F13481   2.823   0.498   7.633  0.5710  0.7992 -0.9145
  126OSM    H7G13482   2.995   0.451   7.655  0.5702  0.3962  1.3718
  126OSM    C8F13483   2.864   0.432   7.835  0.2011  0.7184 -0.3359
  126OSM    H8F13484   2.864   0.541   7.857 -2.0686  1.1333 -2.2699
  126OSM    H8G13485   2.953   0.390   7.887  0.2569  1.0846 -0.1319
  126OSM    C9F13486   2.726   0.380   7.880 -0.1547  0.6101 -0.0790
  126OSM    H9F13487   2.651   0.394   7.801  0.0372  1.4042 -0.1273
  126OSM   C10F13488   2.694   0.315   7.990 -0.5700 -0.1037  0.2764
  126OSM   H10F13489   2.588   0.298   8.011 -0.3180 -0.4964  1.2826
  126OSM   C11F13490   2.783   0.278   8.103 -0.5695  0.7301  0.2281
  126OSM   H11F13491   2.886   0.315   8.081  0.1227 -1.5334 -0.5767
  126OSM   H11G13492   2.780   0.168   8.120 -0.5455  1.0067  2.0648
  126OSM   C12F13493   2.734   0.316   8.241 -0.4238  0.0118  0.4029
  126OSM   H12F13494   2.797   0.264   8.316  0.3844  1.2746  0.6112
  126OSM   H12G13495   2.625   0.297   8.253 -0.3297  0.8016  2.7860
  126OSM   C13F13496   2.768   0.464   8.276 -0.5300 -0.0726  0.3133
  126OSM   H13F13497   2.710   0.533   8.211 -1.6277 -1.4933 -0.2308
  126OSM   H13G13498   2.874   0.483   8.249 -0.3235  0.8990  1.6961
  126OSM   C14F13499   2.742   0.502   8.423 -0.6488  0.1112  0.0285
  126OSM   H14F13500   2.809   0.438   8.485 -0.9286 -0.6111 -0.4026
  126OSM   H14G13501   2.639   0.487   8.462 -0.9883 -1.1401 -1.2779
  126OSM   C15F13502   2.788   0.656   8.450 -0.1659 -0.4121 -0.2860
  126OSM   H15F13503   2.734   0.724   8.380  1.2844  0.6068 -0.4246
  126OSM   H15G13504   2.896   0.664   8.423  0.9020 -2.4074  3.1071
  126OSM   C16F13505   2.752   0.708   8.593  0.1041  0.7410  0.1214
  126OSM   H16F13506   2.816   0.669   8.675  0.1355  0.6923  0.0731
  126OSM   H16G13507   2.646   0.684   8.615  0.1667 -0.8399 -1.2295
  126OSM   C17F13508   2.767   0.861   8.606 -0.2626  0.1898  0.1619
  126OSM   H17F13509   2.724   0.915   8.520 -0.3595  0.5414  0.4292
  126OSM   H17G13510   2.877   0.881   8.611 -0.1092 -0.3893 -0.9042
  126OSM   C18F13511   2.702   0.911   8.732 -0.4314 -0.3176 -0.6231
  126OSM   H18F13512   2.702   1.022   8.734  1.6939 -0.3123  0.1271
  126OSM   H18G13513   2.751   0.892   8.830  0.6468  1.0665 -0.8780
  126OSM   H18H13514   2.593   0.891   8.741 -0.8952  1.9727 -0.6802
  127OSM      N13515   0.877   1.576   6.283  0.1312 -0.3663 -0.2477
  127OSM    C1513516   0.959   1.644   6.169  0.5906  0.2506 -0.6408
  127OSM   H15A13517   0.920   1.625   6.070 -0.2014 -0.6537 -0.1674
  127OSM   H15B13518   1.059   1.603   6.164 -0.4608 -2.5496  0.1937
  127OSM   H15C13519   0.974   1.749   6.190  2.2300  0.1780 -1.3850
  127OSM    C1413520   0.880   1.428   6.267 -0.6479 -0.4048 -0.0670
  127OSM   H14A13521   0.834   1.401   6.173 -0.8935 -1.8095  0.4420
  127OSM   H14B13522   0.821   1.388   6.348  2.2007 -1.3491  1.6383
  127OSM   H14C13523   0.979   1.384   6.259 -0.1164  0.7381  0.1601
  127OSM    C1313524   0.950   1.608   6.411  0.0780 -0.0283 -0.4450
  127OSM   H13A13525   1.048   1.561   6.413 -1.4257 -3.2739 -0.5885
  127OSM   H13B13526   0.909   1.569   6.503 -0.0152 -0.7863 -0.8026
  127OSM   H13C13527   0.968   1.713   6.424 -0.1179 -0.2173  1.5674
  127OSM    C1213528   0.740   1.636   6.288 -0.7265  0.1216  1.2005
  127OSM   H12A13529   0.686   1.605   6.200  1.0445 -0.4837  0.3102
  127OSM   H12B13530   0.752   1.744   6.286  0.5546  0.0221 -3.8100
  127OSM    C1113531   0.653   1.590   6.406  0.0589 -0.3688 -0.3178
  127OSM   H11A13532   0.691   1.630   6.502 -1.0698 -2.3302  0.9874
  127OSM   H11B13533   0.643   1.480   6.421 -1.0823 -0.4885 -1.8359
  127OSM      P13534   0.467   1.791   6.386 -0.1601  0.0182  0.0662
  127OSM    O1313535   0.578   1.883   6.368  0.5592  0.3240  0.1115
  127OSM    O1413536   0.362   1.800   6.282  0.1028  0.0166 -0.3560
  127OSM    O1113537   0.406   1.820   6.526 -0.0601 -0.4741 -0.6715
  127OSM    O1213538   0.519   1.639   6.378 -0.5495 -0.1445 -0.1070
  127OSM    C1S13539   0.445   1.753   6.644 -0.1959 -0.0719  0.9036
  127OSM    H1S13540   0.511   1.664   6.630  1.2565  0.9320  1.3058
  127OSM    H1T13541   0.354   1.710   6.693 -0.5283  0.5060  0.7915
  127OSM     NF13542   0.510   1.781   6.878  0.4263 -0.0382  0.1086
  127OSM    HNF13543   0.423   1.801   6.922  1.6624  0.1540  2.6014
  127OSM    C2S13544   0.509   1.848   6.742  0.3164  0.2342 -0.4509
  127OSM    H2S13545   0.616   1.854   6.714  0.0088  0.9774 -1.5035
  127OSM    C3S13546   0.447   1.993   6.737  0.1789 -0.0100  0.1737
  127OSM    H3S13547   0.348   1.971   6.693 -0.8705 -0.2691  2.6080
  127OSM     O313548   0.504   2.080   6.637 -0.0625  0.1071  0.1859
  127OSM    HO313549   0.558   2.018   6.586 -0.3869 -0.6060  0.6977
  127OSM    C4S13550   0.456   2.055   6.872  0.0863 -0.1784  0.1185
  127OSM    H4S13551   0.556   2.066   6.916 -0.6598  3.7747  0.9513
  127OSM    C5S13552   0.347   2.115   6.936  0.2800  0.3132 -0.4219
  127OSM    H5S13553   0.246   2.115   6.893  0.3570  0.2788 -0.6011
  127OSM    C6S13554   0.367   2.193   7.067  0.6057  0.5841  0.6220
  127OSM    H6S13555   0.315   2.291   7.073  2.1153  1.4649 -0.5196
  127OSM    H6T13556   0.476   2.217   7.067  0.8030 -0.2969  0.3549
  127OSM    C7S13557   0.336   2.130   7.208 -0.3807  0.5059 -0.2896
  127OSM    H7S13558   0.373   2.027   7.192 -0.1048  0.4817  0.5268
  127OSM    H7T13559   0.229   2.126   7.237 -0.8926 -0.5016 -2.2535
  127OSM    C8S13560   0.415   2.210   7.319 -0.2275 -0.0533  0.8000
  127OSM    H8S13561   0.370   2.311   7.305  0.5475  0.3445  1.1348
  127OSM    H8T13562   0.520   2.219   7.282 -0.7307  1.5632 -0.2787
  127OSM    C9S13563   0.404   2.138   7.457  0.4205 -1.0246  0.3152
  127OSM    H9S13564   0.449   2.037   7.445  0.1053 -0.8264 -3.0077
  127OSM    H9T13565   0.294   2.136   7.473  0.0242  0.2842 -2.0330
  127OSM   C10S13566   0.479   2.205   7.577  0.3442  0.6893 -0.2094
  127OSM   H10S13567   0.431   2.305   7.581  0.7535  0.8853 -0.1441
  127OSM   H10T13568   0.588   2.223   7.560  0.6120  1.1885  1.9605
  127OSM   C11S13569   0.454   2.133   7.707  0.0726  0.2129  0.1901
  127OSM   H11S13570   0.409   2.032   7.695  0.7421 -0.1336  0.5845
  127OSM   H11T13571   0.380   2.186   7.772  0.4358  1.0446 -0.0673
  127OSM   C12S13572   0.580   2.124   7.788  0.4349  0.0715  0.0883
  127OSM   H12S13573   0.624   2.225   7.775  0.0706  0.2749  0.4562
  127OSM   H12T13574   0.652   2.043   7.762 -0.2124 -0.9308  1.4222
  127OSM   C13S13575   0.542   2.099   7.939  0.1586 -0.1357  0.2109
  127OSM   H13S13576   0.451   2.036   7.947 -1.1106  1.6455  0.1180
  127OSM   H13T13577   0.521   2.201   7.976  0.9371  0.6959 -1.5760
  127OSM   C14S13578   0.660   2.051   8.028 -0.3523  0.0346 -0.4748
  127OSM   H14S13579   0.753   2.103   8.000 -0.0327 -1.7201 -2.8784
  127OSM   H14T13580   0.677   1.941   8.030 -2.5553 -0.3352  3.5187
  127OSM   C15S13581   0.635   2.073   8.180  0.1829 -0.0932  0.9282
  127OSM   H15S13582   0.548   2.007   8.202  1.0350 -0.5160  3.0780
  127OSM   H15T13583   0.606   2.178   8.204 -1.0831 -0.3306  0.5089
  127OSM   C16S13584   0.756   2.032   8.264 -0.5710 -0.0398  0.6557
  127OSM   H16S13585   0.848   2.064   8.211  0.2034  1.0233  2.5827
  127OSM   H16T13586   0.764   1.921   8.260  2.3166  0.1770 -0.6975
  127OSM   C17S13587   0.750   2.088   8.406 -0.6725 -0.3093 -0.5894
  127OSM   H17S13588   0.658   2.039   8.445 -1.2273  1.6442  0.6821
  127OSM   H17T13589   0.742   2.199   8.398 -0.8283 -0.3440 -0.9236
  127OSM   C18S13590   0.857   2.058   8.502  0.9697  0.2647  0.2576
  127OSM   H18S13591   0.869   1.949   8.522  1.0394  0.0029 -1.2170
  127OSM   H18T13592   0.834   2.112   8.596  0.3707  1.6508 -0.6758
  127OSM   H18U13593   0.954   2.090   8.460  0.2586 -0.0245 -1.6270
  127OSM    C1F13594   0.586   1.677   6.904 -0.1599 -0.5847 -0.6032
  127OSM     OF13595   0.674   1.641   6.829  0.4135 -0.0276  0.1312
  127OSM    C2F13596   0.538   1.582   7.011  0.1710  0.8998  0.2320
  127OSM    H2F13597   0.429   1.568   6.993  0.6434 -0.8092 -1.4492
  127OSM    H2G13598   0.558   1.632   7.108  2.3818 -1.5831  1.1050
  127OSM    C3F13599   0.608   1.439   7.017 -0.7807  0.7429  0.3982
  127OSM    H3F13600   0.717   1.453   7.028 -0.2030 -2.4668 -0.7271
  127OSM    H3G13601   0.616   1.387   6.919 -1.2202  0.3083  0.5919
  127OSM    C4F13602   0.561   1.342   7.122  0.0790 -0.7347  0.3791
  127OSM    H4F13603   0.450   1.344   7.115  0.1005  1.2195  0.1498
  127OSM    H4G13604   0.594   1.376   7.223 -2.1903  0.8586  0.6096
  127OSM    C5F13605   0.620   1.206   7.101  0.6828 -0.1335  0.3221
  127OSM    H5F13606   0.727   1.223   7.080  0.5004 -1.8399 -2.1338
  127OSM    H5G13607   0.574   1.156   7.013 -0.5233  1.1965  0.1765
  127OSM    C6F13608   0.601   1.114   7.222  0.2026 -0.1662 -0.2517
  127OSM    H6F13609   0.656   1.161   7.306 -1.1988  1.1460 -0.0321
  127OSM    H6G13610   0.645   1.017   7.191  0.8464  0.7222 -2.2336
  127OSM    C7F13611   0.452   1.085   7.272  0.5823 -0.1701  0.7322
  127OSM    H7F13612   0.404   1.028   7.190  0.3661 -0.9147  1.3733
  127OSM    H7G13613   0.385   1.174   7.281  0.7780  0.1230 -0.5729
  127OSM    C8F13614   0.456   0.999   7.398  0.7263 -0.3500  0.4465
  127OSM    H8F13615   0.355   1.018   7.440 -1.3571  1.2978 -4.8641
  127OSM    H8G13616   0.524   1.033   7.478 -0.5596  1.7960  0.6661
  127OSM    C9F13617   0.457   0.842   7.382  0.0779 -0.1638  0.7641
  127OSM    H9F13618   0.412   0.803   7.290 -0.5623 -2.1449  1.8891
  127OSM   C10F13619   0.501   0.756   7.473  0.5492  0.3824 -0.5178
  127OSM   H10F13620   0.495   0.648   7.453  1.3380  0.1746  0.3880
  127OSM   C11F13621   0.554   0.781   7.609 -0.2029 -0.3492 -0.0046
  127OSM   H11F13622   0.600   0.881   7.618 -0.0269 -0.3399 -0.9575
  127OSM   H11G13623   0.627   0.701   7.632  0.1285 -0.7848 -2.4407
  127OSM   C12F13624   0.445   0.800   7.719 -0.6584 -0.7291  0.5609
  127OSM   H12F13625   0.366   0.725   7.699 -1.2527 -0.3305  1.3738
  127OSM   H12G13626   0.403   0.902   7.713  1.9266  0.3923  0.9282
  127OSM   C13F13627   0.498   0.775   7.867  0.0710  0.4253 -0.3163
  127OSM   H13F13628   0.581   0.849   7.875  0.3753  0.2167 -1.4606
  127OSM   H13G13629   0.543   0.675   7.883 -1.1097 -0.1719 -0.7287
  127OSM   C14F13630   0.393   0.797   7.975  0.5396 -0.1475  0.1261
  127OSM   H14F13631   0.429   0.770   8.076 -0.2320 -0.5535  0.2943
  127OSM   H14G13632   0.301   0.740   7.952  0.6432  0.4390 -1.8254
  127OSM   C15F13633   0.357   0.952   7.971 -0.3330 -0.3011 -0.0269
  127OSM   H15F13634   0.248   0.960   7.956 -0.1043  2.0859 -0.5566
  127OSM   H15G13635   0.420   1.007   7.898  0.6876  0.9214  1.7377
  127OSM   C16F13636   0.369   1.024   8.109 -0.2097 -0.3345 -0.1269
  127OSM   H16F13637   0.476   1.027   8.140 -1.0207  0.0825  2.8170
  127OSM   H16G13638   0.320   0.971   8.194  1.4739  0.2906  1.2680
  127OSM   C17F13639   0.290   1.157   8.114  0.3106  0.3930 -0.6941
  127OSM   H17F13640   0.313   1.216   8.023  0.3214  0.0094 -0.9433
  127OSM   H17G13641   0.333   1.220   8.194 -0.5445  1.4231 -1.0382
  127OSM   C18F13642   0.138   1.148   8.115  0.4180 -0.1755  0.2183
  127OSM   H18F13643   0.099   1.122   8.014  1.4240 -0.3566 -0.1315
  127OSM   H18G13644   0.091   1.244   8.146  0.4310  0.7628 -2.4971
  127OSM   H18H13645   0.110   1.060   8.176  2.9684  0.0188  1.7761
  128OSM      N13646   0.905   5.573   6.331  0.5832  0.1788  0.4752
  128OSM    C1513647   0.992   5.645   6.430  0.8541  0.4288 -0.4867
  128OSM   H15A13648   0.964   5.624   6.532 -0.2785 -0.4102 -0.9540
  128OSM   H15B13649   0.988   5.751   6.411  2.3634  0.7365  0.7903
  128OSM   H15C13650   1.093   5.611   6.414  0.7781 -1.3613  2.3104
  128OSM    C1413651   0.881   5.429   6.353  0.4287  0.3892  0.1448
  128OSM   H14A13652   0.978   5.384   6.363  1.0039  1.1433 -1.8647
  128OSM   H14B13653   0.826   5.377   6.276  0.1825 -1.6963  1.6909
  128OSM   H14C13654   0.806   5.422   6.430 -1.1704  3.6019 -1.0420
  128OSM    C1313655   0.772   5.641   6.336  0.5136 -0.5762 -0.2171
  128OSM   H13A13656   0.704   5.579   6.280 -2.7893  0.5967  2.3368
  128OSM   H13B13657   0.774   5.740   6.294 -1.1256  0.3894  1.9291
  128OSM   H13C13658   0.740   5.645   6.439  2.5193 -0.6289  0.4396
  128OSM    C1213659   0.958   5.601   6.190  0.6231 -0.3100  0.4964
  128OSM   H12A13660   0.934   5.701   6.157 -1.9710 -1.5932 -1.6469
  128OSM   H12B13661   0.909   5.528   6.128  1.1486 -2.5365  2.6222
  128OSM    C1113662   1.109   5.569   6.167 -0.5315 -0.2712 -0.3477
  128OSM   H11A13663   1.166   5.648   6.221 -1.5322 -0.9797  1.8275
  128OSM   H11B13664   1.125   5.597   6.061  0.5469  0.2782 -0.0471
  128OSM      P13665   1.300   5.382   6.211 -0.0790 -0.0284 -0.1593
  128OSM    O1313666   1.300   5.258   6.290  0.3650  0.3843  0.4798
  128OSM    O1413667   1.355   5.381   6.077  0.0120 -0.1765  0.0697
  128OSM    O1113668   1.383   5.490   6.300 -0.2508 -0.0969 -0.0008
  128OSM    O1213669   1.149   5.434   6.206  0.0233  0.7412  0.8594
  128OSM    C1S13670   1.445   5.447   6.428 -0.0930 -0.2230  0.2113
  128OSM    H1S13671   1.527   5.373   6.412 -0.2880  0.2620 -3.6875
  128OSM    H1T13672   1.371   5.397   6.494  1.4100 -0.2466  1.9070
  128OSM     NF13673   1.548   5.526   6.627  0.1879  0.3393  1.0498
  128OSM    HNF13674   1.482   5.521   6.703 -0.7541  0.6045  0.2570
  128OSM    C2S13675   1.482   5.574   6.510 -0.5165  0.5137 -0.2135
  128OSM    H2S13676   1.554   5.642   6.460 -0.8678  0.6825 -0.4922
  128OSM    C3S13677   1.357   5.662   6.540 -0.0069 -0.0561  0.4687
  128OSM    H3S13678   1.276   5.602   6.587  0.4560 -0.2965  0.9661
  128OSM     O313679   1.297   5.733   6.427 -0.2671 -0.6411 -0.2855
  128OSM    HO313680   1.355   5.703   6.356 -1.4148 -1.9768 -0.6784
  128OSM    C4S13681   1.392   5.757   6.646  0.7643  0.9948  0.6125
  128OSM    H4S13682   1.425   5.708   6.739 -0.1132 -1.9295 -0.5675
  128OSM    C5S13683   1.412   5.893   6.635 -0.0157 -0.0377 -0.0579
  128OSM    H5S13684   1.387   5.946   6.542  0.8915  0.2755 -0.1285
  128OSM    C6S13685   1.458   5.986   6.737  1.1234 -0.1980 -0.1862
  128OSM    H6S13686   1.378   6.062   6.750 -0.2368 -1.7358  0.5853
  128OSM    H6T13687   1.549   6.038   6.701  1.9491 -2.1817 -1.0238
  128OSM    C7S13688   1.490   5.933   6.875 -0.8727  0.5286 -0.3174
  128OSM    H7S13689   1.545   5.997   6.947 -1.1977 -1.0417  1.3663
  128OSM    H7T13690   1.563   5.849   6.870  0.6840  1.9513 -2.5477
  128OSM    C8S13691   1.370   5.900   6.964 -0.0407  0.2245  0.0848
  128OSM    H8S13692   1.418   5.847   7.048 -0.9263  0.1227  0.5317
  128OSM    H8T13693   1.297   5.844   6.901  1.0769 -2.3556  0.9841
  128OSM    C9S13694   1.312   6.036   7.018 -0.2609  0.3903 -0.0524
  128OSM    H9S13695   1.253   6.082   6.936 -0.1374 -0.7694 -0.8155
  128OSM    H9T13696   1.390   6.110   7.046 -0.0006 -1.3151  4.1690
  128OSM   C10S13697   1.213   6.001   7.127 -0.3245  0.1537 -0.4401
  128OSM   H10S13698   1.261   5.927   7.195 -0.5707  0.3845 -0.0154
  128OSM   H10T13699   1.130   5.947   7.077 -1.3228  0.7926  0.4925
  128OSM   C11S13700   1.171   6.119   7.213 -0.3496 -0.6922 -0.1741
  128OSM   H11S13701   1.108   6.187   7.153 -3.0314 -0.3443  2.9263
  128OSM   H11T13702   1.258   6.179   7.248 -2.3523  0.3294  3.2705
  128OSM   C12S13703   1.096   6.069   7.337 -0.5834  0.0930 -0.1255
  128OSM   H12S13704   1.173   6.013   7.395 -1.8796 -0.4208  1.1367
  128OSM   H12T13705   1.014   6.010   7.289 -0.9457  0.7966 -0.3704
  128OSM   C13S13706   1.049   6.187   7.430  0.3853  0.2682  0.5392
  128OSM   H13S13707   0.995   6.263   7.370 -0.0280  0.2501  0.8922
  128OSM   H13T13708   1.149   6.226   7.462  1.0049 -1.7482  1.1042
  128OSM   C14S13709   0.971   6.147   7.557 -0.0840  0.2973 -0.4950
  128OSM   H14S13710   1.034   6.065   7.597 -0.7813 -0.2343 -0.4676
  128OSM   H14T13711   0.869   6.111   7.528 -1.5192 -0.0586  4.4930
  128OSM   C15S13712   0.961   6.265   7.662 -0.1099  0.7442 -0.2344
  128OSM   H15S13713   0.913   6.357   7.622  1.4587  1.0456 -1.4985
  128OSM   H15T13714   1.065   6.281   7.699 -0.3726 -1.6375  1.6704
  128OSM   C16S13715   0.870   6.220   7.780  0.1233  0.2243  0.2852
  128OSM   H16S13716   0.894   6.116   7.811  0.8902  0.4940  0.5886
  128OSM   H16T13717   0.770   6.234   7.734  0.8600 -2.2277 -2.2078
  128OSM   C17S13718   0.878   6.320   7.894  0.6065 -0.8271 -0.2523
  128OSM   H17S13719   0.852   6.417   7.848 -0.6583 -0.4015  1.3431
  128OSM   H17T13720   0.984   6.327   7.927  0.6366  1.7354 -0.8265
  128OSM   C18S13721   0.782   6.277   7.998 -0.2440 -0.2293  0.6077
  128OSM   H18S13722   0.815   6.183   8.047  1.6321  1.0201  1.8088
  128OSM   H18T13723   0.683   6.255   7.954 -0.8290  2.8360  0.2613
  128OSM   H18U13724   0.770   6.350   8.081 -0.3709  0.5806 -0.1189
  128OSM    C1F13725   1.662   5.458   6.620 -0.0425  0.2870  1.0158
  128OSM     OF13726   1.737   5.454   6.522 -0.0579 -0.6055 -0.3152
  128OSM    C2F13727   1.697   5.367   6.738  0.4155 -0.0529  0.0832
  128OSM    H2F13728   1.746   5.287   6.678 -0.0241  0.4632 -0.9830
  128OSM    H2G13729   1.606   5.338   6.795 -0.2068 -1.5416 -1.6226
  128OSM    C3F13730   1.795   5.446   6.829 -0.0562 -0.1307  0.4016
  128OSM    H3F13731   1.869   5.496   6.763 -0.4709  1.4952  1.1457
  128OSM    H3G13732   1.854   5.372   6.887  1.1396  0.5600  0.0799
  128OSM    C4F13733   1.725   5.551   6.913 -0.3835 -0.2669  0.5118
  128OSM    H4F13734   1.626   5.579   6.872 -0.7961  0.3090  1.8445
  128OSM    H4G13735   1.793   5.639   6.927  0.6093 -0.7155 -1.4109
  128OSM    C5F13736   1.678   5.496   7.041 -0.7179 -0.1426  1.0451
  128OSM    H5F13737   1.765   5.457   7.099 -0.9671 -1.0396  0.8304
  128OSM    H5G13738   1.603   5.413   7.043 -2.8057  1.6065 -1.5345
  128OSM    C6F13739   1.603   5.607   7.122 -0.4174  0.2719 -0.1729
  128OSM    H6F13740   1.505   5.630   7.076  0.1200  1.4632 -0.7259
  128OSM    H6G13741   1.665   5.699   7.121 -0.2307  0.1416 -0.8725
  128OSM    C7F13742   1.570   5.547   7.261  0.0567  0.8254  0.0353
  128OSM    H7F13743   1.664   5.527   7.317 -1.5142 -1.0520  2.0653
  128OSM    H7G13744   1.521   5.448   7.259  1.6475 -0.0453  1.9100
  128OSM    C8F13745   1.487   5.652   7.350  0.5376 -0.5126 -0.3659
  128OSM    H8F13746   1.473   5.593   7.444 -0.5839 -0.9985 -0.8239
  128OSM    H8G13747   1.384   5.651   7.308  0.2503 -2.6729  0.3189
  128OSM    C9F13748   1.550   5.782   7.385  0.0812 -0.2190  0.4902
  128OSM    H9F13749   1.569   5.845   7.297  2.4483 -1.0660  0.3743
  128OSM   C10F13750   1.579   5.840   7.504 -0.2820 -0.0967 -0.1393
  128OSM   H10F13751   1.611   5.945   7.513  0.6756 -0.2404 -1.6479
  128OSM   C11F13752   1.573   5.784   7.639  0.4815 -0.2818 -0.9324
  128OSM   H11F13753   1.675   5.779   7.683 -0.2052  1.8374  0.9626
  128OSM   H11G13754   1.535   5.679   7.637  0.2850 -0.3212  2.2509
  128OSM   C12F13755   1.503   5.884   7.734 -0.7787  0.4363 -0.0081
  128OSM   H12F13756   1.399   5.891   7.697  0.4620 -1.0876 -4.0806
  128OSM   H12G13757   1.553   5.983   7.721 -1.6108  0.9466  0.6702
  128OSM   C13F13758   1.507   5.849   7.883  0.2632  1.0608  0.3133
  128OSM   H13F13759   1.464   5.747   7.883 -0.3550  1.3179 -0.6344
  128OSM   H13G13760   1.444   5.911   7.950 -1.2422  1.9314 -1.8820
  128OSM   C14F13761   1.653   5.832   7.943  0.8245  0.6427 -0.4837
  128OSM   H14F13762   1.692   5.936   7.945 -0.2626  1.0909 -1.7227
  128OSM   H14G13763   1.715   5.765   7.879 -0.8838 -2.0943  0.6774
  128OSM   C15F13764   1.643   5.781   8.085 -0.0830  0.6766  0.2255
  128OSM   H15F13765   1.568   5.700   8.075  1.1532 -0.3851 -0.7402
  128OSM   H15G13766   1.596   5.861   8.145 -1.6952 -1.9137  2.5227
  128OSM   C16F13767   1.771   5.722   8.138  0.9928  0.0247  0.4277
  128OSM   H16F13768   1.857   5.787   8.112  1.5692 -0.6425  0.6430
  128OSM   H16G13769   1.798   5.623   8.096 -0.9375 -0.3438  0.0262
  128OSM   C17F13770   1.763   5.703   8.292  0.5472  0.0572 -0.2172
  128OSM   H17F13771   1.675   5.637   8.306  1.8123 -1.3098  1.3860
  128OSM   H17G13772   1.740   5.800   8.343 -2.0977 -0.3715 -0.5272
  128OSM   C18F13773   1.887   5.631   8.352  0.0269  1.1652  0.2240
  128OSM   H18F13774   1.936   5.553   8.291 -1.8767  0.0085  0.1337
  128OSM   H18G13775   1.858   5.586   8.449  0.7677 -0.0753 -0.1216
  128OSM   H18H13776   1.966   5.704   8.377 -0.2910  1.3056  0.8206
  129OSM      N13777   5.828   0.242   6.264  0.8262  0.0067 -0.3804
  129OSM    C1513778   5.788   0.145   6.156 -0.3894 -0.6491 -0.3949
  129OSM   H15A13779   5.768   0.056   6.214  2.9273  0.7187  3.0739
  129OSM   H15B13780   5.859   0.118   6.079  0.2724 -0.1286  0.0277
  129OSM   H15C13781   5.694   0.182   6.117 -0.6881 -2.3811 -1.3573
  129OSM    C1413782   5.713   0.257   6.367  0.0683  0.4550 -0.2049
  129OSM   H14A13783   5.741   0.327   6.445 -0.5316 -0.3360  0.7362
  129OSM   H14B13784   5.673   0.168   6.414  0.1672  1.5661  2.0312
  129OSM   H14C13785   5.630   0.298   6.312  0.5773  0.6830 -0.8041
  129OSM    C1313786   5.940   0.176   6.335 -0.2487 -0.2193 -0.3929
  129OSM   H13A13787   6.028   0.161   6.273 -0.6038 -2.3655 -0.4165
  129OSM   H13B13788   5.906   0.082   6.375 -3.3718  0.5660 -1.1276
  129OSM   H13C13789   5.977   0.231   6.419 -2.0818 -0.3403  0.5155
  129OSM    C1213790   5.881   0.370   6.204 -1.0429 -0.0993 -0.4085
  129OSM   H12A13791   5.988   0.369   6.187 -1.2498 -1.1290 -1.8388
  129OSM   H12B13792   5.850   0.450   6.269 -0.9593  0.1391 -0.6585
  129OSM    C1113793   5.821   0.404   6.068 -0.0691  0.3067  0.8262
  129OSM   H11A13794   5.847   0.340   5.982  1.5113 -0.5444  1.9248
  129OSM   H11B13795   5.864   0.500   6.033  0.6116 -0.8590 -1.6326
  129OSM      P13796   5.617   0.567   6.099 -0.1599  0.1056 -0.0912
  129OSM    O1313797   5.684   0.655   6.008 -0.0407 -0.5311 -0.1075
  129OSM    O1413798   5.473   0.582   6.100  0.2224 -0.3854  0.1243
  129OSM    O1113799   5.685   0.599   6.237  0.2166 -0.3834 -0.1096
  129OSM    O1213800   5.674   0.419   6.069  0.0854  0.1117 -0.1559
  129OSM    C1S13801   5.588   0.618   6.350  1.1580 -0.3707  0.0734
  129OSM    H1S13802   5.509   0.540   6.351  1.9384 -1.1744  2.6303
  129OSM    H1T13803   5.531   0.712   6.336  0.0143 -1.0063  0.3782
  129OSM     NF13804   5.571   0.625   6.601 -0.1555 -0.5501 -0.1955
  129OSM    HNF13805   5.548   0.709   6.649  1.3373 -1.4339  2.1495
  129OSM    C2S13806   5.659   0.638   6.485 -0.2966  0.4475 -0.2716
  129OSM    H2S13807   5.734   0.556   6.491  0.1021  0.7303 -1.1711
  129OSM    C3S13808   5.746   0.764   6.472  0.4832  0.3291 -1.5687
  129OSM    H3S13809   5.679   0.840   6.426 -1.3098 -0.5184 -0.4278
  129OSM     O313810   5.857   0.759   6.387  0.2160  0.2788 -0.3337
  129OSM    HO313811   5.819   0.704   6.317 -0.1657  1.9049 -1.4404
  129OSM    C4S13812   5.790   0.809   6.604 -0.7110 -0.0195 -0.1831
  129OSM    H4S13813   5.746   0.905   6.633  1.7519  0.8546  0.7989
  129OSM    C5S13814   5.885   0.758   6.681 -0.4769  0.2482  0.7997
  129OSM    H5S13815   5.937   0.668   6.643 -2.1192 -0.5672  0.4323
  129OSM    C6S13816   5.939   0.817   6.807  0.1463  0.2254 -0.1844
  129OSM    H6S13817   5.943   0.924   6.779 -2.0971 -0.0055 -1.5075
  129OSM    H6T13818   6.036   0.778   6.845  0.1625  0.0628 -0.3892
  129OSM    C7S13819   5.839   0.806   6.926 -0.9446  0.3352  0.8477
  129OSM    H7S13820   5.749   0.865   6.898  0.6816  2.2278 -0.4985
  129OSM    H7T13821   5.881   0.862   7.012  2.8136  1.2014 -1.4489
  129OSM    C8S13822   5.812   0.662   6.978  0.3763  0.1866 -0.1717
  129OSM    H8S13823   5.908   0.635   7.027  0.4237  2.9045  1.2773
  129OSM    H8T13824   5.787   0.609   6.883  0.6954  0.1393 -0.2293
  129OSM    C9S13825   5.697   0.666   7.079 -0.9076 -0.0978 -0.0397
  129OSM    H9S13826   5.678   0.560   7.103  1.1660 -0.4197  0.2571
  129OSM    H9T13827   5.601   0.707   7.038 -3.6882 -2.6986  3.5357
  129OSM   C10S13828   5.739   0.746   7.207  0.4074 -0.3894 -0.0697
  129OSM   H10S13829   5.743   0.857   7.199 -5.4811 -0.2824 -4.3753
  129OSM   H10T13830   5.841   0.716   7.239  0.2021 -2.4740 -1.2891
  129OSM   C11S13831   5.641   0.710   7.321 -0.6275  0.4213  0.2276
  129OSM   H11S13832   5.651   0.601   7.340 -2.6634  0.1848  0.0993
  129OSM   H11T13833   5.536   0.715   7.284 -0.4272 -3.5646 -1.0334
  129OSM   C12S13834   5.681   0.785   7.450  0.1670  0.3273  0.0005
  129OSM   H12S13835   5.673   0.896   7.444  2.0707  0.4111 -1.8004
  129OSM   H12T13836   5.786   0.758   7.472  0.8275  3.7278  1.4118
  129OSM   C13S13837   5.604   0.742   7.575  0.0831  0.1318  0.6625
  129OSM   H13S13838   5.632   0.636   7.592  0.4185  0.1339  0.1388
  129OSM   H13T13839   5.495   0.755   7.560  0.3467 -2.7445 -4.6415
  129OSM   C14S13840   5.649   0.815   7.705 -0.1176  0.1368 -0.7083
  129OSM   H14S13841   5.643   0.923   7.676 -1.9606 -0.5675 -3.2011
  129OSM   H14T13842   5.758   0.804   7.721 -0.3119 -0.7919  0.0122
  129OSM   C15S13843   5.565   0.793   7.831  0.2727  0.0072  0.4655
  129OSM   H15S13844   5.591   0.699   7.885  0.4433 -0.1387  0.1342
  129OSM   H15T13845   5.456   0.796   7.814  0.2136 -0.3982  0.7632
  129OSM   C16S13846   5.589   0.908   7.933  0.0556 -0.2111 -0.4932
  129OSM   H16S13847   5.575   1.003   7.877 -1.0290 -0.8665 -1.3451
  129OSM   H16T13848   5.693   0.903   7.973 -0.7926 -1.1028  1.6971
  129OSM   C17S13849   5.490   0.904   8.052  0.2915 -0.2518 -0.0629
  129OSM   H17S13850   5.387   0.911   8.012 -0.2522 -0.4716  1.2730
  129OSM   H17T13851   5.500   0.982   8.131 -0.5999  0.9377 -1.1062
  129OSM   C18S13852   5.510   0.776   8.136  0.1286 -0.5431  0.3462
  129OSM   H18S13853   5.615   0.750   8.109  1.0685  0.0869  3.1863
  129OSM   H18T13854   5.447   0.687   8.118  0.4647 -1.0579  1.6234
  129OSM   H18U13855   5.512   0.794   8.246  2.3645 -1.1463  0.4405
  129OSM    C1F13856   5.511   0.507   6.627  0.0984 -0.0963 -0.6689
  129OSM     OF13857   5.556   0.407   6.569 -0.2566 -0.0751  0.3030
  129OSM    C2F13858   5.396   0.500   6.719  0.2688 -0.1826 -0.5457
  129OSM    H2F13859   5.317   0.447   6.662  0.3548 -0.9107 -0.0006
  129OSM    H2G13860   5.357   0.602   6.743 -1.5027 -1.2523  1.3187
  129OSM    C3F13861   5.439   0.432   6.849 -0.7621  0.0343 -0.6402
  129OSM    H3F13862   5.524   0.488   6.894 -0.7009  0.3977 -1.2090
  129OSM    H3G13863   5.487   0.333   6.833  0.5472  0.4121  0.8168
  129OSM    C4F13864   5.331   0.416   6.956  0.7900  0.0608 -0.1712
  129OSM    H4F13865   5.354   0.328   7.019 -1.4245  0.5440  1.3740
  129OSM    H4G13866   5.232   0.391   6.911  0.3061 -0.1400  0.9846
  129OSM    C5F13867   5.294   0.532   7.054  0.0218 -0.5100  0.7183
  129OSM    H5F13868   5.185   0.537   7.073  0.0901  0.0243  0.9649
  129OSM    H5G13869   5.316   0.632   7.011 -0.2185 -0.7782 -0.0535
  129OSM    C6F13870   5.363   0.516   7.188  0.3324 -0.1697 -0.1244
  129OSM    H6F13871   5.355   0.615   7.238  0.3049 -0.7342  1.0187
  129OSM    H6G13872   5.471   0.491   7.179  0.0158 -1.5270 -0.2041
  129OSM    C7F13873   5.283   0.419   7.276 -0.7336  0.2378  0.5227
  129OSM    H7F13874   5.311   0.314   7.251  0.4284  0.4757  0.8475
  129OSM    H7G13875   5.176   0.444   7.259 -0.9345  0.0129  1.4761
  129OSM    C8F13876   5.304   0.453   7.426 -0.2035  0.1827 -0.2551
  129OSM    H8F13877   5.235   0.535   7.453  0.3411  1.6932 -3.2573
  129OSM    H8G13878   5.409   0.485   7.438 -0.0976  0.4241 -1.7593
  129OSM    C9F13879   5.264   0.337   7.526 -0.5104 -0.0602  0.8811
  129OSM    H9F13880   5.230   0.243   7.482 -1.7583  1.5309 -1.6912
  129OSM   C10F13881   5.291   0.328   7.657 -0.2307  0.0822  0.0899
  129OSM   H10F13882   5.260   0.237   7.709 -1.1999 -0.5697 -1.6002
  129OSM   C11F13883   5.355   0.438   7.748  0.5737  0.7866  0.7442
  129OSM   H11F13884   5.367   0.520   7.674 -1.2290  0.0429 -0.3749
  129OSM   H11G13885   5.461   0.423   7.781  1.2018  2.3477 -0.4977
  129OSM   C12F13886   5.271   0.479   7.865  0.2194 -0.5184  0.0021
  129OSM   H12F13887   5.163   0.479   7.840  0.3770  1.6484 -0.8290
  129OSM   H12G13888   5.293   0.587   7.877 -2.0902  0.0840 -0.9162
  129OSM   C13F13889   5.316   0.401   7.987 -0.5721  0.3962 -0.4674
  129OSM   H13F13890   5.427   0.399   7.990 -0.5987  0.8085  0.7971
  129OSM   H13G13891   5.273   0.298   7.983  0.1709 -0.0044  1.4196
  129OSM   C14F13892   5.268   0.454   8.125 -0.2782 -0.6999 -0.0624
  129OSM   H14F13893   5.164   0.422   8.143 -0.3093  0.0753  1.2463
  129OSM   H14G13894   5.270   0.565   8.136 -2.0508 -0.5953 -0.6963
  129OSM   C15F13895   5.357   0.400   8.240  0.2241 -0.2712 -0.0892
  129OSM   H15F13896   5.453   0.451   8.218 -0.1388  1.2066  1.6373
  129OSM   H15G13897   5.373   0.291   8.229  1.3345  0.0966 -2.4382
  129OSM   C16F13898   5.308   0.418   8.382 -0.5570 -0.2698 -0.4310
  129OSM   H16F13899   5.348   0.339   8.448 -1.7843  0.4580  1.2333
  129OSM   H16G13900   5.197   0.407   8.381 -0.4621 -1.3845  0.2774
  129OSM   C17F13901   5.329   0.557   8.442  1.1173 -0.1085  0.2454
  129OSM   H17F13902   5.261   0.579   8.527  1.3354 -2.0939  0.9449
  129OSM   H17G13903   5.304   0.639   8.371  0.6668 -0.6814 -0.2594
  129OSM   C18F13904   5.470   0.580   8.498  0.1099  0.1781 -0.0898
  129OSM   H18F13905   5.530   0.641   8.427  1.9523  0.3115  1.5423
  129OSM   H18G13906   5.523   0.483   8.506  2.5978  1.6112  1.5426
  129OSM   H18H13907   5.459   0.627   8.598 -2.8335  1.0113 -0.7504
  130OSM      N13908   6.049   4.215   6.172 -0.1414 -0.3174 -0.6013
  130OSM    C1513909   6.101   4.332   6.096 -0.5191 -0.3709  0.0129
  130OSM   H15A13910   6.116   4.414   6.164  0.3195  1.6545 -2.5143
  130OSM   H15B13911   6.024   4.360   6.025 -0.6128  1.2225  0.7299
  130OSM   H15C13912   6.193   4.315   6.043 -1.2280 -0.5506 -1.1886
  130OSM    C1413913   5.936   4.246   6.266  0.4593 -0.4080  0.0441
  130OSM   H14A13914   5.965   4.330   6.328 -1.7884  0.8068 -0.5066
  130OSM   H14B13915   5.908   4.170   6.338 -1.4152 -0.8295 -1.0998
  130OSM   H14C13916   5.844   4.282   6.223  1.1481  1.6156  0.2242
  130OSM    C1313917   5.994   4.120   6.077  0.2174  0.0732  0.6213
  130OSM   H13A13918   6.057   4.118   5.989  1.3284  1.1071  1.3707
  130OSM   H13B13919   5.904   4.163   6.035  1.6182 -0.6056 -3.2744
  130OSM   H13C13920   5.973   4.022   6.117  0.9600 -0.4966 -0.3585
  130OSM    C1213921   6.159   4.153   6.260 -0.3580 -0.7284 -0.1047
  130OSM   H12A13922   6.114   4.074   6.319 -1.6366 -0.3215 -0.5139
  130OSM   H12B13923   6.172   4.227   6.338  1.2764 -2.1947  1.0461
  130OSM    C1113924   6.292   4.110   6.213 -0.2933 -0.9593 -0.0164
  130OSM   H11A13925   6.270   4.034   6.135  1.8411 -0.7517 -0.8623
  130OSM   H11B13926   6.360   4.067   6.289  1.4991 -0.2049 -1.1490
  130OSM      P13927   6.469   4.314   6.231  0.2509  0.2789  0.0053
  130OSM    O1313928   6.601   4.242   6.241 -0.1137 -0.1343  0.2482
  130OSM    O1413929   6.479   4.445   6.158 -0.2245 -0.3001  0.4723
  130OSM    O1113930   6.407   4.349   6.369 -0.2208  0.5569  0.3406
  130OSM    O1213931   6.362   4.221   6.155  0.5717  0.0475  0.1425
  130OSM    C1S13932   6.315   4.455   6.398 -0.1558 -0.6863  0.3200
  130OSM    H1S13933   6.219   4.428   6.349 -1.0194  1.2590  0.9148
  130OSM    H1T13934   6.342   4.549   6.347  1.4539 -1.2047  0.1808
  130OSM     NF13935   6.163   4.538   6.574  0.1229  0.0151 -0.1722
  130OSM    HNF13936   6.194   4.632   6.586  0.5618 -0.2796  1.0137
  130OSM    C2S13937   6.283   4.461   6.547  0.4032 -0.5728  0.3607
  130OSM    H2S13938   6.257   4.357   6.573  1.8232 -1.1483 -0.4790
  130OSM    C3S13939   6.411   4.506   6.632  0.1917  0.4657  0.0419
  130OSM    H3S13940   6.434   4.611   6.605 -0.0066  0.7456  0.9225
  130OSM     O313941   6.522   4.430   6.602  0.0365  0.7230 -0.2035
  130OSM    HO313942   6.514   4.420   6.507  2.7651 -0.9253 -0.3218
  130OSM    C4S13943   6.381   4.493   6.782  0.6015  0.1202 -0.3538
  130OSM    H4S13944   6.328   4.399   6.803 -1.3875  0.9755 -1.4295
  130OSM    C5S13945   6.414   4.569   6.894  0.3634 -0.2861  0.8309
  130OSM    H5S13946   6.478   4.658   6.883  1.8343 -1.1018  2.5094
  130OSM    C6S13947   6.362   4.530   7.035 -0.1291  0.2079  0.2577
  130OSM    H6S13948   6.331   4.618   7.096 -0.7603  0.9998 -1.1808
  130OSM    H6T13949   6.447   4.488   7.092 -1.4566 -0.7218  1.5975
  130OSM    C7S13950   6.253   4.421   7.049  0.4417 -0.4380 -0.3015
  130OSM    H7S13951   6.281   4.322   7.008 -4.1972 -1.7548 -0.5584
  130OSM    H7T13952   6.175   4.456   6.978 -1.1618 -0.0763  1.5930
  130OSM    C8S13953   6.198   4.405   7.199  0.5679  0.3486  1.3419
  130OSM    H8S13954   6.132   4.317   7.212  1.2899 -0.0774  2.1497
  130OSM    H8T13955   6.132   4.492   7.220  2.1611  1.4954  1.7313
  130OSM    C9S13956   6.303   4.400   7.310 -0.3563 -1.3821  0.7866
  130OSM    H9S13957   6.373   4.485   7.325 -1.6107 -0.1683 -0.1246
  130OSM    H9T13958   6.366   4.311   7.289  0.5354 -0.5182 -0.2635
  130OSM   C10S13959   6.233   4.379   7.443 -0.2540 -0.5923 -0.0178
  130OSM   H10S13960   6.138   4.323   7.434 -0.6749 -0.3247  2.5352
  130OSM   H10T13961   6.202   4.479   7.481  1.6127  0.2278 -0.5896
  130OSM   C11S13962   6.323   4.317   7.544  0.1958 -1.0689 -0.1333
  130OSM   H11S13963   6.413   4.376   7.569 -1.2543  1.2611 -0.2389
  130OSM   H11T13964   6.364   4.216   7.520  2.0497  0.0156 -1.5825
  130OSM   C12S13965   6.240   4.317   7.674 -0.2432  0.3267 -0.2770
  130OSM   H12S13966   6.150   4.259   7.644  0.7337  0.0987 -2.9221
  130OSM   H12T13967   6.205   4.419   7.699 -0.0180  0.7838 -1.7874
  130OSM   C13S13968   6.320   4.239   7.777 -0.0933 -0.0533 -0.2968
  130OSM   H13S13969   6.421   4.285   7.780  0.4787 -1.2797 -0.5433
  130OSM   H13T13970   6.335   4.135   7.743  0.1073 -0.8951  2.2832
  130OSM   C14S13971   6.254   4.230   7.919 -0.0693  0.6575  0.1749
  130OSM   H14S13972   6.147   4.201   7.911 -0.9690  3.7800  0.1893
  130OSM   H14T13973   6.269   4.322   7.979  2.8565 -0.8746  1.9716
  130OSM   C15S13974   6.313   4.119   8.012  0.2741  0.1041  0.1980
  130OSM   H15S13975   6.272   4.125   8.115  2.6855  0.3640  1.1776
  130OSM   H15T13976   6.422   4.139   8.025  0.8472 -1.9004 -1.3254
  130OSM   C16S13977   6.326   3.970   7.961 -0.7655  0.3499  0.1762
  130OSM   H16S13978   6.400   3.952   7.880 -0.2189 -1.1329  0.9812
  130OSM   H16T13979   6.224   3.932   7.938 -0.2467  1.3610 -4.1473
  130OSM   C17S13980   6.369   3.872   8.081  0.1869 -0.4642  0.8685
  130OSM   H17S13981   6.459   3.924   8.121 -1.3503  3.3331 -0.3339
  130OSM   H17T13982   6.412   3.782   8.033  0.3282  0.0699 -0.0005
  130OSM   C18S13983   6.256   3.851   8.181 -0.0026 -0.6187 -0.4289
  130OSM   H18S13984   6.173   3.803   8.124 -0.1486 -0.6261 -0.2101
  130OSM   H18T13985   6.236   3.943   8.240 -1.7948 -1.4819  0.3421
  130OSM   H18U13986   6.284   3.781   8.263 -0.2786 -0.7566 -0.4501
  130OSM    C1F13987   6.044   4.489   6.534 -0.2595 -0.5507  0.0308
  130OSM     OF13988   6.028   4.373   6.512 -0.2349  0.6943 -0.2758
  130OSM    C2F13989   5.936   4.590   6.522  0.0940  0.0430 -0.4138
  130OSM    H2F13990   5.887   4.569   6.424 -3.2418  1.1569  0.9322
  130OSM    H2G13991   5.983   4.691   6.522 -0.3664  0.2589 -0.8288
  130OSM    C3F13992   5.817   4.572   6.622 -0.2798 -0.2212 -0.1458
  130OSM    H3F13993   5.752   4.486   6.597 -0.0812 -0.3971 -0.0543
  130OSM    H3G13994   5.747   4.658   6.623  1.7524  1.4959  1.7084
  130OSM    C4F13995   5.875   4.551   6.769  0.2686 -0.7212  0.4632
  130OSM    H4F13996   5.937   4.632   6.813  0.5726 -0.4001 -0.5230
  130OSM    H4G13997   5.951   4.470   6.760 -0.0868 -1.0541  0.4679
  130OSM    C5F13998   5.775   4.508   6.871  0.2549 -0.0318 -0.3609
  130OSM    H5F13999   5.730   4.407   6.856 -0.6105  0.0461  1.5631
  130OSM    H5G14000   5.694   4.583   6.876 -1.2276 -1.6654  0.6362
  130OSM    C6F14001   5.840   4.497   7.010  0.2297  0.2408 -0.2591
  130OSM    H6F14002   5.906   4.584   7.032 -0.2407  0.6070 -0.2995
  130OSM    H6G14003   5.912   4.412   7.007 -0.2454 -0.1786  0.1062
  130OSM    C7F14004   5.731   4.487   7.116 -1.1172  0.2111 -0.0376
  130OSM    H7F14005   5.664   4.408   7.076 -2.0840  0.6601  0.6814
  130OSM    H7G14006   5.672   4.579   7.136  1.0801  1.5355  0.4983
  130OSM    C8F14007   5.773   4.440   7.260 -0.1020 -0.2906 -0.5381
  130OSM    H8F14008   5.840   4.352   7.246  0.2200 -0.3705  1.3119
  130OSM    H8G14009   5.685   4.397   7.312  0.7459 -0.5263  0.7460
  130OSM    C9F14010   5.837   4.544   7.342 -0.7371 -0.0429 -0.6635
  130OSM    H9F14011   5.916   4.595   7.284  3.4832 -1.0896  3.8324
  130OSM   C10F14012   5.801   4.594   7.461 -0.1862 -0.7292  0.1409
  130OSM   H10F14013   5.868   4.667   7.507 -2.2968  1.2781  0.1030
  130OSM   C11F14014   5.692   4.562   7.556 -0.5726  0.5212 -0.8461
  130OSM   H11F14015   5.626   4.485   7.510  0.2278  0.2587 -1.5720
  130OSM   H11G14016   5.626   4.651   7.563 -1.8222 -0.2569 -2.2693
  130OSM   C12F14017   5.747   4.513   7.692  0.0582 -0.0621 -0.0232
  130OSM   H12F14018   5.810   4.584   7.749  0.8590  0.2643 -1.3035
  130OSM   H12G14019   5.829   4.440   7.671 -2.2116 -2.0587 -2.2170
  130OSM   C13F14020   5.630   4.452   7.783 -0.6331  0.3117 -0.2180
  130OSM   H13F14021   5.681   4.398   7.866  0.1458 -1.0507 -1.5665
  130OSM   H13G14022   5.562   4.389   7.721 -0.3566 -0.8709  0.6646
  130OSM   C14F14023   5.543   4.561   7.853  0.2488  0.6908 -0.1303
  130OSM   H14F14024   5.471   4.508   7.919  0.2055  0.3191 -0.4772
  130OSM   H14G14025   5.485   4.612   7.772  0.8048 -0.5498 -1.3174
  130OSM   C15F14026   5.620   4.671   7.931 -0.8193 -0.4163 -0.3142
  130OSM   H15F14027   5.681   4.729   7.859  0.5315  0.7956  1.7421
  130OSM   H15G14028   5.683   4.613   8.001 -0.2317  0.6395  0.0405
  130OSM   C16F14029   5.525   4.782   7.997  0.2612 -0.2112  0.0064
  130OSM   H16F14030   5.461   4.724   8.067  0.8845  0.4492  1.1350
  130OSM   H16G14031   5.455   4.829   7.925  0.2557 -0.3938 -0.1067
  130OSM   C17F14032   5.593   4.885   8.073 -0.5667  0.2170  0.0709
  130OSM   H17F14033   5.646   4.942   7.994 -0.8382  2.7540  1.6595
  130OSM   H17G14034   5.658   4.840   8.150  0.2587  0.8912 -0.2220
  130OSM   C18F14035   5.499   4.983   8.134 -0.3265 -0.4417 -0.1568
  130OSM   H18F14036   5.443   4.933   8.216 -0.6442 -0.7636 -0.5638
  130OSM   H18G14037   5.420   5.011   8.060  0.3307  0.4239 -0.5387
  130OSM   H18H14038   5.550   5.074   8.171 -0.5828 -1.3444  2.5021
  131OSM      N14039   6.077   2.328   6.098 -0.4058  0.1371  0.2228
  131OSM    C1514040   5.971   2.376   6.191  0.2392 -0.1937  0.0157
  131OSM   H15A14041   5.943   2.478   6.168  0.8667  0.1970  0.9356
  131OSM   H15B14042   5.988   2.364   6.297 -3.2689 -0.8385  0.5667
  131OSM   H15C14043   5.876   2.328   6.168  1.4311 -1.6680 -1.9841
  131OSM    C1414044   6.007   2.266   5.978  0.5413  0.0195  0.5935
  131OSM   H14A14045   5.969   2.342   5.911  0.2930 -1.8740 -1.4653
  131OSM   H14B14046   5.931   2.195   6.006 -0.4901  1.4883  1.5920
  131OSM   H14C14047   6.074   2.221   5.906 -0.8119 -0.6690 -0.2419
  131OSM    C1314048   6.174   2.441   6.073  0.3995  0.8739 -0.5039
  131OSM   H13A14049   6.264   2.399   6.029 -1.2397 -3.9764  0.4790
  131OSM   H13B14050   6.197   2.489   6.167 -1.8111  0.3898  0.3113
  131OSM   H13C14051   6.134   2.505   5.996  0.6133 -2.4188 -3.5254
  131OSM    C1214052   6.149   2.215   6.177 -0.4052 -0.5117  0.3284
  131OSM   H12A14053   6.073   2.145   6.211 -1.1581  1.1312  2.1375
  131OSM   H12B14054   6.188   2.258   6.269 -0.8355  1.5774 -0.4430
  131OSM    C1114055   6.265   2.141   6.103  0.0871  0.0944 -0.8536
  131OSM   H11A14056   6.239   2.100   6.003  1.5675  1.9409 -2.0478
  131OSM   H11B14057   6.301   2.057   6.165  0.2187  1.8515  1.5184
  131OSM      P14058   6.495   2.248   6.181  0.1701 -0.0007  0.0600
  131OSM    O1314059   6.586   2.139   6.156 -0.5786  0.0097 -0.1230
  131OSM    O1414060   6.547   2.387   6.186 -0.6807 -0.1448  0.6642
  131OSM    O1114061   6.419   2.227   6.307 -0.3330  0.9989  0.3500
  131OSM    O1214062   6.375   2.232   6.073 -0.3497 -0.1131 -0.1282
  131OSM    C1S14063   6.450   2.162   6.427 -0.3088  0.2661 -0.7072
  131OSM    H1S14064   6.541   2.100   6.415  0.1507  0.9110 -0.6035
  131OSM    H1T14065   6.365   2.094   6.450 -2.5105  2.4316 -2.1999
  131OSM     NF14066   6.463   2.178   6.673  0.3865  0.0246  0.8572
  131OSM    HNF14067   6.377   2.150   6.714 -0.2425 -0.1829 -0.5868
  131OSM    C2S14068   6.464   2.261   6.551  0.8663  0.6024 -0.7687
  131OSM    H2S14069   6.558   2.317   6.531  1.5300 -0.5218 -0.8210
  131OSM    C3S14070   6.344   2.361   6.548  1.0588  0.1565  0.6821
  131OSM    H3S14071   6.250   2.302   6.547  1.7226 -0.9292  1.4937
  131OSM     O314072   6.323   2.441   6.429 -0.4874 -0.4363  0.1665
  131OSM    HO314073   6.377   2.401   6.360  0.7108  1.2133  0.1043
  131OSM    C4S14074   6.359   2.437   6.674  0.7051  0.5918 -0.6098
  131OSM    H4S14075   6.270   2.419   6.737  0.1533  1.4087 -1.1513
  131OSM    C5S14076   6.452   2.525   6.716 -0.0932  0.2600  0.0474
  131OSM    H5S14077   6.528   2.564   6.647 -0.5867  0.7519 -0.2233
  131OSM    C6S14078   6.473   2.587   6.853  0.0946  0.4959 -0.2123
  131OSM    H6S14079   6.483   2.695   6.832 -2.1109  0.7625 -0.0102
  131OSM    H6T14080   6.578   2.560   6.874 -0.1213 -1.1124 -1.1058
  131OSM    C7S14081   6.375   2.550   6.971 -0.1046 -0.1288 -0.1456
  131OSM    H7S14082   6.349   2.442   6.961  0.5514 -0.2590 -0.4823
  131OSM    H7T14083   6.284   2.609   6.949  0.8493  2.4018  2.3623
  131OSM    C8S14084   6.444   2.576   7.101 -0.1208  0.5235 -1.1283
  131OSM    H8S14085   6.450   2.686   7.114  0.7327  0.2841  0.7297
  131OSM    H8T14086   6.547   2.534   7.103 -0.8720 -1.4870 -2.9931
  131OSM    C9S14087   6.367   2.530   7.221  0.5880  0.0236  0.4843
  131OSM    H9S14088   6.334   2.426   7.201  1.9182 -0.3385  0.1404
  131OSM    H9T14089   6.274   2.591   7.228 -0.3362 -1.4556  1.3600
  131OSM   C10S14090   6.433   2.531   7.360 -0.2110  0.4609  0.1779
  131OSM   H10S14091   6.452   2.635   7.395 -1.8095  0.0633  2.3600
  131OSM   H10T14092   6.528   2.479   7.335  0.4099  2.3390 -1.4823
  131OSM   C11S14093   6.351   2.457   7.463  0.1713 -0.0631 -0.3342
  131OSM   H11S14094   6.327   2.354   7.430  0.1435  0.4318 -1.8655
  131OSM   H11T14095   6.260   2.520   7.474  0.0331 -0.1780 -0.8273
  131OSM   C12S14096   6.427   2.462   7.596  0.1877  0.6581 -0.2160
  131OSM   H12S14097   6.441   2.568   7.627 -1.1056  0.6202  0.5407
  131OSM   H12T14098   6.530   2.423   7.583  0.5009  1.1274  0.8097
  131OSM   C13S14099   6.352   2.384   7.704  0.0621  0.3372 -0.4969
  131OSM   H13S14100   6.343   2.277   7.674  0.7390  0.7527 -2.1983
  131OSM   H13T14101   6.252   2.424   7.729  0.8692  0.2572  3.1437
  131OSM   C14S14102   6.438   2.382   7.831 -0.1463 -0.0509 -0.3567
  131OSM   H14S14103   6.447   2.485   7.872 -0.0207 -0.3431  0.3620
  131OSM   H14T14104   6.546   2.361   7.813 -0.0280  0.5667 -0.3843
  131OSM   C15S14105   6.361   2.297   7.936 -0.4776  0.4684 -0.0234
  131OSM   H15S14106   6.332   2.200   7.891 -3.4948  2.1757 -1.8861
  131OSM   H15T14107   6.262   2.346   7.954 -1.8499 -1.1825 -2.8606
  131OSM   C16S14108   6.442   2.292   8.067 -0.2173  0.1241  0.4155
  131OSM   H16S14109   6.466   2.398   8.093  2.7402 -0.6697  1.1619
  131OSM   H16T14110   6.535   2.239   8.038 -0.7904 -0.5592 -0.1776
  131OSM   C17S14111   6.373   2.231   8.190  0.5301  1.0311  0.5075
  131OSM   H17S14112   6.289   2.294   8.227  0.1131  1.8104 -1.6515
  131OSM   H17T14113   6.455   2.225   8.264  0.1317 -0.8050  0.8174
  131OSM   C18S14114   6.327   2.094   8.163  0.2725 -0.8774 -0.1542
  131OSM   H18S14115   6.415   2.027   8.150  0.4965 -0.5028 -0.5991
  131OSM   H18T14116   6.266   2.095   8.070  1.2468 -0.5525 -0.8149
  131OSM   H18U14117   6.264   2.055   8.245  2.2883 -2.0931  0.8517
  131OSM    C1F14118   6.574   2.107   6.707  0.5214  0.1641  0.3099
  131OSM     OF14119   6.677   2.106   6.637 -0.0458 -0.1242  0.4388
  131OSM    C2F14120   6.553   2.001   6.807 -0.1563  0.3442 -0.5653
  131OSM    H2F14121   6.612   1.914   6.770  0.9290  0.3051  1.2164
  131OSM    H2G14122   6.444   1.979   6.816  0.5018 -2.3186  1.8242
  131OSM    C3F14123   6.596   2.040   6.946 -0.0962 -0.8543  0.4014
  131OSM    H3F14124   6.691   2.098   6.934 -0.2877 -1.0168 -2.1094
  131OSM    H3G14125   6.611   1.956   7.017 -3.7021 -1.8690  0.0763
  131OSM    C4F14126   6.512   2.147   7.018 -0.5298  0.5163 -0.4637
  131OSM    H4F14127   6.403   2.127   7.014 -0.4320 -0.3799  0.8396
  131OSM    H4G14128   6.517   2.240   6.958  1.8438  1.0252  0.4562
  131OSM    C5F14129   6.541   2.177   7.161 -0.4190  0.5478 -0.0953
  131OSM    H5F14130   6.484   2.269   7.184 -0.5493 -0.3585  3.6430
  131OSM    H5G14131   6.650   2.192   7.176  0.3583 -2.1660 -2.6100
  131OSM    C6F14132   6.506   2.077   7.269  0.0932  0.0171 -0.0644
  131OSM    H6F14133   6.564   1.986   7.240 -0.8037 -0.5742  0.0016
  131OSM    H6G14134   6.396   2.063   7.274  0.1566 -0.6578 -0.4570
  131OSM    C7F14135   6.562   2.130   7.398  0.4124  0.2755  0.3157
  131OSM    H7F14136   6.526   2.233   7.418  0.9807  0.9128 -1.7748
  131OSM    H7G14137   6.672   2.138   7.390  0.2434  0.3554 -2.6763
  131OSM    C8F14138   6.529   2.053   7.520 -0.4295 -0.8049 -0.6836
  131OSM    H8F14139   6.421   2.033   7.534 -0.4230 -0.1791  0.3378
  131OSM    H8G14140   6.548   2.133   7.595  0.5277  0.4818 -2.2770
  131OSM    C9F14141   6.611   1.928   7.547 -0.8284  0.6955 -0.3292
  131OSM    H9F14142   6.629   1.860   7.463 -0.3001 -0.1728  0.4882
  131OSM   C10F14143   6.657   1.902   7.672  0.5048  0.1895  1.0037
  131OSM   H10F14144   6.738   1.829   7.684 -0.4449 -0.9782  0.4533
  131OSM   C11F14145   6.631   1.977   7.801  0.2219 -0.3527  0.1610
  131OSM   H11F14146   6.527   2.012   7.818 -1.0368 -4.0124  0.3714
  131OSM   H11G14147   6.695   2.067   7.811 -0.2928 -0.0352  0.6331
  131OSM   C12F14148   6.672   1.896   7.924 -0.4832  0.1199  0.0074
  131OSM   H12F14149   6.658   1.972   8.004 -0.7477 -2.3980  2.4143
  131OSM   H12G14150   6.782   1.880   7.912 -0.2893  0.8522  0.8213
  131OSM   C13F14151   6.592   1.769   7.938 -0.6065  0.5484 -0.1586
  131OSM   H13F14152   6.597   1.703   7.848 -0.8562  1.2616 -0.7043
  131OSM   H13G14153   6.491   1.814   7.927  0.4298  2.4308 -2.5094
  131OSM   C14F14154   6.622   1.684   8.062 -0.3208  0.5894  0.0901
  131OSM   H14F14155   6.713   1.621   8.052  0.2451  0.9691  2.4312
  131OSM   H14G14156   6.540   1.610   8.071 -0.8023  0.8199 -2.1058
  131OSM   C15F14157   6.625   1.759   8.196  0.4414 -0.3154 -0.5742
  131OSM   H15F14158   6.519   1.789   8.209 -0.1975 -2.3299 -0.8631
  131OSM   H15G14159   6.690   1.848   8.190 -0.3707  0.3248  0.0747
  131OSM   C16F14160   6.643   1.668   8.321 -0.2243 -0.6607 -0.1160
  131OSM   H16F14161   6.563   1.591   8.331 -2.7714  1.9379  0.3721
  131OSM   H16G14162   6.619   1.727   8.412  1.9746 -1.3484  0.9266
  131OSM   C17F14163   6.781   1.602   8.350 -0.6276  0.3504  0.0695
  131OSM   H17F14164   6.854   1.682   8.374 -0.6169  0.7856 -1.3634
  131OSM   H17G14165   6.805   1.545   8.258  2.2257  2.0404 -0.3068
  131OSM   C18F14166   6.780   1.497   8.461  0.3202 -0.5036  0.1772
  131OSM   H18F14167   6.876   1.441   8.470  1.7219  2.0382  1.5332
  131OSM   H18G14168   6.700   1.420   8.446  0.0218 -0.5093  1.7181
  131OSM   H18H14169   6.758   1.551   8.556  1.5717 -0.4705  0.4571
  132OSM      N14170   2.240   5.512   6.093  0.2340 -0.2323 -0.9755
  132OSM    C1514171   2.371   5.503   6.161  0.1832 -1.0901 -0.7692
  132OSM   H15A14172   2.405   5.400   6.157 -1.0975 -1.4497 -3.2795
  132OSM   H15B14173   2.372   5.535   6.265 -1.3514 -1.2134 -0.6983
  132OSM   H15C14174   2.446   5.557   6.106  0.4511 -0.3268  0.3326
  132OSM    C1414175   2.265   5.452   5.958 -0.8159  0.6691 -0.4385
  132OSM   H14A14176   2.299   5.351   5.977 -0.4097  0.6359 -1.3103
  132OSM   H14B14177   2.351   5.502   5.916  0.5808 -0.6990  0.7301
  132OSM   H14C14178   2.177   5.466   5.897 -1.6676  0.8313  0.8122
  132OSM    C1314179   2.142   5.420   6.161 -0.0148 -0.3092 -0.0086
  132OSM   H13A14180   2.118   5.450   6.262  2.0738 -0.2772  0.4967
  132OSM   H13B14181   2.179   5.320   6.176 -1.6331 -0.7374  1.2435
  132OSM   H13C14182   2.048   5.408   6.110 -0.1320 -1.0381  0.3844
  132OSM    C1214183   2.192   5.651   6.091 -0.2386 -1.3943  0.7734
  132OSM   H12A14184   2.096   5.670   6.046  1.8271  1.5658 -2.6219
  132OSM   H12B14185   2.260   5.708   6.029 -1.5820 -1.5619 -0.8822
  132OSM    C1114186   2.176   5.719   6.230 -0.2664  1.0255  0.1853
  132OSM   H11A14187   2.115   5.668   6.307  1.2583 -2.2768 -0.7264
  132OSM   H11B14188   2.125   5.815   6.206 -1.4733  0.3185 -0.0813
  132OSM      P14189   2.399   5.868   6.240 -0.0117 -0.4037  0.0572
  132OSM    O1314190   2.522   5.855   6.313  0.3499 -0.5029  0.0943
  132OSM    O1414191   2.405   5.864   6.094 -0.2174 -0.0772  0.4069
  132OSM    O1114192   2.330   6.003   6.287 -0.1981 -0.0007 -0.4837
  132OSM    O1214193   2.301   5.751   6.291 -0.0661 -0.3519  0.2072
  132OSM    C1S14194   2.300   6.039   6.423  0.1449  0.3857  0.1236
  132OSM    H1S14195   2.314   5.953   6.491 -2.9446 -1.0253 -0.9687
  132OSM    H1T14196   2.196   6.075   6.433 -0.0721  0.2069 -1.3114
  132OSM     NF14197   2.342   6.201   6.603 -0.3024  0.1090 -0.4980
  132OSM    HNF14198   2.282   6.280   6.609 -0.3738  0.0773 -0.7680
  132OSM    C2S14199   2.391   6.163   6.473  0.5313  0.2821  0.5110
  132OSM    H2S14200   2.490   6.114   6.480  0.5538 -0.0107 -1.6381
  132OSM    C3S14201   2.413   6.280   6.378 -0.9525  0.3897  0.5592
  132OSM    H3S14202   2.323   6.343   6.358 -0.5615  0.7309 -0.1421
  132OSM     O314203   2.447   6.238   6.242 -0.5833 -0.3943 -0.0172
  132OSM    HO314204   2.418   6.147   6.241  2.6953 -1.5004 -0.3722
  132OSM    C4S14205   2.516   6.378   6.424  0.1880 -0.4517 -0.1295
  132OSM    H4S14206   2.608   6.387   6.364  0.5543  1.6882  0.7065
  132OSM    C5S14207   2.492   6.475   6.517  0.4547  0.3906 -0.2520
  132OSM    H5S14208   2.389   6.499   6.549 -0.1724 -1.3873 -0.8470
  132OSM    C6S14209   2.598   6.578   6.553 -0.0065  0.4028 -1.0134
  132OSM    H6S14210   2.561   6.679   6.525  0.1153  1.1931  1.5598
  132OSM    H6T14211   2.691   6.560   6.494  0.7162  0.5109  0.0873
  132OSM    C7S14212   2.631   6.566   6.706 -0.5141 -0.8225  0.0890
  132OSM    H7S14213   2.698   6.650   6.732 -0.8871 -0.2632 -0.7280
  132OSM    H7T14214   2.688   6.471   6.713  2.8325  1.0043 -1.1037
  132OSM    C8S14215   2.508   6.561   6.793 -0.1160  0.1189  0.3673
  132OSM    H8S14216   2.455   6.465   6.776  3.0109 -1.7382  0.7160
  132OSM    H8T14217   2.439   6.641   6.758 -0.1880  0.4985  1.3542
  132OSM    C9S14218   2.550   6.574   6.940 -0.2425 -0.4139  0.7841
  132OSM    H9S14219   2.583   6.679   6.953 -0.7851 -0.2507  0.8583
  132OSM    H9T14220   2.634   6.503   6.956  0.4641  0.7013  2.1057
  132OSM   C10S14221   2.435   6.548   7.034 -0.9431 -0.0390 -0.0845
  132OSM   H10S14222   2.395   6.445   7.022 -1.4035 -0.0879  1.6924
  132OSM   H10T14223   2.350   6.615   7.010  0.6924  1.7264 -1.1109
  132OSM   C11S14224   2.465   6.560   7.177 -0.0065 -0.6162  0.2386
  132OSM   H11S14225   2.496   6.666   7.192  2.5898 -1.3353  0.3052
  132OSM   H11T14226   2.557   6.500   7.194 -0.5662 -1.4873  0.2267
  132OSM   C12S14227   2.355   6.520   7.270  0.3096  0.1385 -0.2545
  132OSM   H12S14228   2.336   6.414   7.241 -0.6823 -0.1126  1.2415
  132OSM   H12T14229   2.258   6.567   7.241 -1.2354 -1.5584  1.9878
  132OSM   C13S14230   2.397   6.524   7.416  0.3088 -0.5156 -0.1296
  132OSM   H13S14231   2.431   6.626   7.444 -3.3493  0.6099  0.5075
  132OSM   H13T14232   2.472   6.445   7.437  0.0603 -0.4809  0.9326
  132OSM   C14S14233   2.280   6.499   7.518 -0.1156  0.5647  0.0857
  132OSM   H14S14234   2.220   6.417   7.474  1.2252  0.1194 -0.9663
  132OSM   H14T14235   2.202   6.577   7.526 -0.1376  0.6277 -0.6545
  132OSM   C15S14236   2.331   6.464   7.654 -0.0305  0.9502  0.1271
  132OSM   H15S14237   2.422   6.524   7.677  0.6505  1.8261 -4.5153
  132OSM   H15T14238   2.356   6.356   7.654 -0.7203  0.7906 -0.2094
  132OSM   C16S14239   2.234   6.503   7.761  0.0726  0.4948  0.0492
  132OSM   H16S14240   2.132   6.469   7.734  0.7045 -0.4644 -1.1699
  132OSM   H16T14241   2.220   6.613   7.764  0.1279  0.5034 -0.0090
  132OSM   C17S14242   2.277   6.453   7.904  0.4975 -0.3904  0.2111
  132OSM   H17S14243   2.380   6.491   7.921 -0.2164  1.3916  0.6907
  132OSM   H17T14244   2.279   6.342   7.911  0.8016 -0.3395  1.0418
  132OSM   C18S14245   2.194   6.511   8.018 -0.2432 -0.3449 -0.7855
  132OSM   H18S14246   2.173   6.618   8.000  0.5767  0.2871  1.8854
  132OSM   H18T14247   2.244   6.501   8.116 -1.1233  3.5394  0.1097
  132OSM   H18U14248   2.096   6.457   8.021 -0.9166  0.8735 -0.6442
  132OSM    C1F14249   2.353   6.122   6.713  0.4676 -0.1875 -0.3359
  132OSM     OF14250   2.442   6.034   6.719 -0.7151 -0.2099  0.0660
  132OSM    C2F14251   2.254   6.142   6.832 -0.2631  0.2424 -0.4078
  132OSM    H2F14252   2.186   6.056   6.817  2.2141 -1.7816 -0.2932
  132OSM    H2G14253   2.194   6.234   6.819 -0.0986  0.2951 -0.7769
  132OSM    C3F14254   2.315   6.131   6.973  0.0557 -0.1721  0.0183
  132OSM    H3F14255   2.388   6.209   7.001 -0.9075  0.5255  0.6116
  132OSM    H3G14256   2.374   6.037   6.980  0.3295  0.0516  0.7213
  132OSM    C4F14257   2.211   6.136   7.080  0.4453 -0.1501 -0.2253
  132OSM    H4F14258   2.145   6.048   7.064  2.5712 -1.9843  0.8694
  132OSM    H4G14259   2.146   6.225   7.065  0.9996  0.1754 -0.7195
  132OSM    C5F14260   2.270   6.112   7.222 -0.0019  0.3354 -0.2512
  132OSM    H5F14261   2.335   6.199   7.244  1.6203 -0.9716  0.2367
  132OSM    H5G14262   2.333   6.021   7.234  0.7493  0.9358  0.3592
  132OSM    C6F14263   2.150   6.105   7.324  0.4186 -0.4476  0.0445
  132OSM    H6F14264   2.093   6.010   7.309 -0.9596  0.6298 -1.6613
  132OSM    H6G14265   2.077   6.183   7.294  1.7518  0.8126  0.0872
  132OSM    C7F14266   2.184   6.131   7.470  0.4320 -0.2759  0.0404
  132OSM    H7F14267   2.269   6.203   7.478  0.1690  0.0151  0.2374
  132OSM    H7G14268   2.221   6.043   7.526 -0.2629  0.3372  1.5024
  132OSM    C8F14269   2.061   6.183   7.550 -0.6993 -0.1205 -0.1260
  132OSM    H8F14270   2.008   6.254   7.484 -2.0432 -0.3243  0.6934
  132OSM    H8G14271   2.103   6.244   7.633  1.1684 -3.0731  1.1662
  132OSM    C9F14272   1.970   6.086   7.619  0.1369  1.0422 -0.7240
  132OSM    H9F14273   1.964   5.987   7.571  2.4829  0.6023 -0.2196
  132OSM   C10F14274   1.900   6.102   7.737 -0.7759 -0.2456  0.7458
  132OSM   H10F14275   1.845   6.012   7.769  0.9179 -1.6481 -0.1482
  132OSM   C11F14276   1.895   6.214   7.833  0.0345 -0.7481  0.7342
  132OSM   H11F14277   1.799   6.266   7.810  0.4154 -0.0174  0.7747
  132OSM   H11G14278   1.969   6.296   7.818 -1.4301  0.4379 -0.2269
  132OSM   C12F14279   1.896   6.173   7.988  0.2475  1.0118  0.6559
  132OSM   H12F14280   1.808   6.106   7.998  0.7510  0.8443  4.9572
  132OSM   H12G14281   1.883   6.268   8.043 -0.3634  0.7972  0.8859
  132OSM   C13F14282   2.013   6.101   8.043  0.5669  0.5527  0.1358
  132OSM   H13F14283   2.106   6.163   8.035 -0.3597  1.8385 -0.8264
  132OSM   H13G14284   2.033   6.010   7.984 -0.8911  0.3462 -0.0327
  132OSM   C14F14285   1.991   6.068   8.192  0.4444 -0.7115  0.2690
  132OSM   H14F14286   1.892   6.018   8.201 -0.0090 -0.1475 -1.4934
  132OSM   H14G14287   1.973   6.165   8.243 -1.7320 -0.8143 -0.2383
  132OSM   C15F14288   2.093   5.987   8.270 -0.1219  0.2020 -0.3282
  132OSM   H15F14289   2.154   5.918   8.208  0.0157 -2.1900  2.3741
  132OSM   H15G14290   2.038   5.923   8.342  1.8145  1.5016  2.3822
  132OSM   C16F14291   2.187   6.072   8.350  0.2695 -0.6598  0.4629
  132OSM   H16F14292   2.227   6.022   8.441  1.6083 -1.5671 -0.6021
  132OSM   H16G14293   2.134   6.157   8.398  0.1496 -1.7353  2.2814
  132OSM   C17F14294   2.297   6.139   8.267 -0.0834  0.3235 -0.1885
  132OSM   H17F14295   2.269   6.130   8.160  1.4706  0.6539 -0.6341
  132OSM   H17G14296   2.396   6.090   8.281 -0.7977 -1.5130 -1.4033
  132OSM   C18F14297   2.316   6.287   8.305 -0.2322 -0.2119 -0.4959
  132OSM   H18F14298   2.396   6.325   8.238  0.1669 -0.8416 -0.3758
  132OSM   H18G14299   2.351   6.316   8.406 -0.0345 -0.1873 -0.5704
  132OSM   H18H14300   2.229   6.355   8.293 -0.6013 -0.0686  2.6486
  133SAPE     N14301   4.087   3.135  10.866 -0.0407  0.5319 -0.4514
  133SAPE   HN114302   4.004   3.163  10.922 -0.3331  1.8328 -1.4885
  133SAPE   HN214303   4.104   3.036  10.890  0.9201  1.4448  2.9805
  133SAPE   HN314304   4.164   3.195  10.903  0.5248 -1.8371  2.4157
  133SAPE   C1214305   4.067   3.152  10.720 -0.5052  0.1077  0.3523
  133SAPE  H12A14306   3.997   3.238  10.703 -1.3669 -0.4946  0.8310
  133SAPE  H12B14307   4.001   3.069  10.690  1.1941 -1.2288  0.2585
  133SAPE   C1114308   4.203   3.183  10.650  0.1151 -0.7381 -0.2803
  133SAPE  H11A14309   4.184   3.213  10.545  1.3366 -0.7639 -0.5152
  133SAPE  H11B14310   4.280   3.104  10.639  1.3704  0.2244  1.2635
  133SAPE     P14311   4.402   3.318  10.763  0.3557  0.0810  0.0495
  133SAPE   O1314312   4.429   3.455  10.794  0.1831  0.0788 -0.5859
  133SAPE   O1414313   4.417   3.224  10.873 -0.1197  0.3145 -0.4499
  133SAPE   O1214314   4.250   3.303  10.715 -0.0112 -0.2843  0.6110
  133SAPE   O1114315   4.480   3.265  10.641 -0.0165  0.2335 -0.3500
  133SAPE    C114316   4.590   3.321  10.575 -0.5699 -0.0690 -0.9105
  133SAPE    HA14317   4.633   3.399  10.640 -2.9496  0.9451 -0.4991
  133SAPE    HB14318   4.669   3.243  10.576  0.8971  1.3806  2.4697
  133SAPE    C214319   4.558   3.390  10.438  0.7811 -0.4838  0.2285
  133SAPE    HS14320   4.654   3.431  10.401 -0.1656  1.1912 -0.4406
  133SAPE   O2114321   4.460   3.494  10.455  0.0013 -0.6577  0.0132
  133SAPE   C2114322   4.491   3.616  10.395  0.0758 -0.5404 -0.5998
  133SAPE   O2214323   4.597   3.642  10.341  0.1220  0.3289 -0.1649
  133SAPE   C2214324   4.380   3.711  10.415  0.6724 -0.0070 -0.2876
  133SAPE   H2R14325   4.339   3.705  10.518  3.5738 -0.8325  0.8668
  133SAPE   H2S14326   4.423   3.813  10.401  2.0941 -0.7185 -1.2809
  133SAPE    C314327   4.509   3.279  10.329 -0.2315 -0.2113 -0.2357
  133SAPE    HX14328   4.413   3.234  10.363 -0.3153  0.0104 -0.1792
  133SAPE    HY14329   4.584   3.196  10.325  0.1309  0.1062 -0.1039
  133SAPE   O3114330   4.490   3.333  10.197  0.0680 -0.8238 -0.2567
  133SAPE   C3114331   4.610   3.379  10.148 -0.0914  0.4725 -0.1149
  133SAPE   O3214332   4.718   3.329  10.177  0.2644 -0.2191 -0.0754
  133SAPE   C3214333   4.587   3.484  10.039 -0.2205  0.5945  0.7793
  133SAPE   H2X14334   4.611   3.585  10.078  0.6534  1.4088 -1.7677
  133SAPE   H2Y14335   4.478   3.498  10.022 -0.8688 -1.2364  3.1465
  133SAPE   C2314336   4.259   3.688  10.313  0.2899 -0.3891  0.1539
  133SAPE   H3R14337   4.170   3.744  10.350  0.7194  0.2346  0.2601
  133SAPE   H3S14338   4.223   3.583  10.307 -0.3903 -0.1993  0.7855
  133SAPE   C2414339   4.298   3.734  10.175  0.6840 -0.2241 -0.7450
  133SAPE   H4R14340   4.389   3.680  10.140  1.1836  0.0959  0.0475
  133SAPE   H4S14341   4.338   3.836  10.190  1.3451 -0.4738 -0.7839
  133SAPE   C2514342   4.180   3.730  10.075 -0.4177 -0.2148 -0.2576
  133SAPE   H5R14343   4.166   3.628  10.035 -1.0000 -0.3852  0.3828
  133SAPE   C2614344   4.095   3.834  10.039  0.0266 -0.2477 -0.0314
  133SAPE   H6R14345   4.016   3.809   9.967 -2.0166  0.1834  2.0142
  133SAPE   C2714346   4.115   3.981  10.095  0.0892  0.1152 -0.3275
  133SAPE   H7R14347   4.087   4.045  10.008 -0.3935  1.5051  0.8271
  133SAPE   H7S14348   4.224   3.996  10.109  0.2291 -1.3214  0.2251
  133SAPE   C2814349   4.030   4.007  10.215 -0.8927 -0.1318 -0.2318
  133SAPE   H8R14350   4.053   3.953  10.308  0.6282  1.1552  0.1833
  133SAPE   C2914351   3.922   4.082  10.220  0.6465  0.5266 -0.7813
  133SAPE   H9R14352   3.869   4.086  10.316  0.9345 -1.8438 -0.4902
  133SAPE  C21014353   3.858   4.160  10.107  0.8623 -0.2640 -0.0085
  133SAPE  H10R14354   3.777   4.100  10.061 -1.4562  0.9414  2.3459
  133SAPE  H10S14355   3.933   4.185  10.029 -0.1078 -0.6157 -1.0663
  133SAPE  C21114356   3.797   4.293  10.149  0.1598  0.5665  0.3295
  133SAPE  H11R14357   3.755   4.300  10.251 -1.6913  1.0885 -0.4480
  133SAPE  C21214358   3.785   4.409  10.077  0.3452 -0.0359 -0.2269
  133SAPE  H12R14359   3.749   4.503  10.119  1.8087 -0.8750  3.0053
  133SAPE  C21314360   3.839   4.431   9.937 -0.1132  0.6326  0.3538
  133SAPE  H13R14361   3.945   4.400   9.949  0.0436  1.1226  0.2365
  133SAPE  H13S14362   3.836   4.541   9.919  1.1132  1.1210  2.8758
  133SAPE  C21414363   3.796   4.337   9.824 -0.2828  0.4389 -0.2187
  133SAPE  H14R14364   3.766   4.234   9.850  0.7507  0.5184  1.3765
  133SAPE  C21514365   3.805   4.367   9.694  0.5792  0.4777 -0.1261
  133SAPE  H15R14366   3.770   4.294   9.620 -0.0420 -0.0390  0.6657
  133SAPE  C21614367   3.841   4.499   9.635 -0.0494  0.0125  0.0692
  133SAPE  H16R14368   3.946   4.499   9.597 -1.3437 -0.6897 -3.6474
  133SAPE  H16S14369   3.818   4.580   9.707 -3.5875 -1.2602  0.4674
  133SAPE  C21714370   3.760   4.537   9.504 -0.6865  0.1375  0.1782
  133SAPE  H17R14371   3.787   4.640   9.475  2.4640 -0.2023  1.7034
  133SAPE  H17S14372   3.653   4.522   9.532 -0.1761 -2.5625  0.8170
  133SAPE  C21814373   3.783   4.450   9.389  0.4446  1.0777 -0.3320
  133SAPE  H18R14374   3.750   4.346   9.410 -0.8372  1.9522  2.0898
  133SAPE  H18S14375   3.892   4.442   9.365  0.0871 -1.4493 -1.3701
  133SAPE  C21914376   3.697   4.498   9.270  0.0423  0.6603  0.1193
  133SAPE  H19R14377   3.734   4.602   9.251  0.5367  0.5596  0.5020
  133SAPE  H19S14378   3.589   4.506   9.294 -0.3731  4.1417 -2.4003
  133SAPE  C22014379   3.717   4.416   9.142 -0.0567 -1.0412  0.2333
  133SAPE  H20R14380   3.692   4.308   9.148 -0.0712 -1.0838 -0.4730
  133SAPE  H20S14381   3.826   4.415   9.120 -0.0463 -4.2972  0.2325
  133SAPE  H20T14382   3.664   4.461   9.054 -0.5979  0.5235  1.3319
  133SAPE   C3314383   4.649   3.454   9.901  0.4134  0.5134 -0.0296
  133SAPE   H3X14384   4.631   3.354   9.857 -1.6224  1.0885 -0.5543
  133SAPE   H3Y14385   4.760   3.460   9.905  0.3986 -0.1214  1.8234
  133SAPE   C3414386   4.605   3.552   9.787 -0.1867 -0.0106 -0.4469
  133SAPE   H4X14387   4.634   3.654   9.819  0.9379 -0.1946 -0.8728
  133SAPE   H4Y14388   4.494   3.548   9.776 -0.2541  0.6050 -0.0289
  133SAPE   C3514389   4.649   3.531   9.639  0.0704 -1.3250 -0.4897
  133SAPE   H5X14390   4.760   3.525   9.640  0.2402  0.9412  2.2319
  133SAPE   H5Y14391   4.629   3.628   9.589 -0.9598 -0.1922  2.0269
  133SAPE   C3614392   4.587   3.422   9.549 -0.6193  0.4219 -0.2170
  133SAPE   H6X14393   4.480   3.446   9.567 -1.2299  0.2028 -3.2987
  133SAPE   H6Y14394   4.610   3.323   9.594  0.1356  1.5873  2.0781
  133SAPE   C3714395   4.616   3.424   9.395  0.1659  0.4752  0.4521
  133SAPE   H7X14396   4.593   3.527   9.360 -1.0074  0.1126  0.1315
  133SAPE   H7Y14397   4.548   3.353   9.345 -0.6703 -0.5252  2.9259
  133SAPE   C3814398   4.755   3.386   9.345  0.3107  0.7788  0.3655
  133SAPE   H8X14399   4.784   3.299   9.407 -0.2443  0.7298  0.5543
  133SAPE   H8Y14400   4.827   3.469   9.361  0.3225  1.0750 -1.1650
  133SAPE   C3914401   4.755   3.338   9.197  0.2312  0.5987  0.4450
  133SAPE   H9X14402   4.727   3.420   9.127  0.6150  0.6848  0.3939
  133SAPE   H9Y14403   4.683   3.256   9.179  2.0462 -0.9608  0.1507
  133SAPE  C31014404   4.892   3.284   9.148  0.3865  0.0453  0.0387
  133SAPE  H10X14405   4.934   3.197   9.203  2.2427  0.0814 -1.2876
  133SAPE  H10Y14406   4.961   3.371   9.143 -0.3969  0.6863  0.3717
  133SAPE  C31114407   4.876   3.236   9.006 -0.4013  0.1273  0.5875
  133SAPE  H11X14408   4.816   3.313   8.954 -0.5464  0.5372  1.3515
  133SAPE  H11Y14409   4.829   3.135   9.007  0.6185 -0.3527  1.9262
  133SAPE  C31214410   5.015   3.218   8.940  0.2898  0.3600  0.0468
  133SAPE  H12X14411   5.075   3.149   9.003  1.8002 -0.0096 -1.7556
  133SAPE  H12Y14412   5.072   3.314   8.945 -1.5311  1.5232 -0.9550
  133SAPE  C31314413   5.007   3.162   8.804  0.1379  0.1754 -0.0003
  133SAPE  H13X14414   4.950   3.068   8.810  1.1980 -0.4785  0.0496
  133SAPE  H13Y14415   5.108   3.129   8.771  0.2819 -1.3037  1.8572
  133SAPE  C31414416   4.955   3.262   8.704 -0.1265 -0.2161 -0.7633
  133SAPE  H14X14417   5.021   3.352   8.696  1.5111 -1.4617 -1.6831
  133SAPE  H14Y14418   4.851   3.282   8.735  0.0942  0.3929 -0.4081
  133SAPE  C31514419   4.940   3.205   8.560  0.6718  0.3646 -0.1025
  133SAPE  H15X14420   4.883   3.109   8.558  0.0562  0.7169  0.1918
  133SAPE  H15Y14421   5.038   3.174   8.518 -0.2369 -0.5266 -1.5907
  133SAPE  C31614422   4.870   3.312   8.468 -0.2165  0.2716  1.0236
  133SAPE  H16X14423   4.935   3.402   8.462  3.1389 -2.1362 -0.9915
  133SAPE  H16Y14424   4.774   3.340   8.514 -2.4502 -1.9111 -2.0701
  133SAPE  C31714425   4.844   3.267   8.323 -0.6099  0.6521  0.7182
  133SAPE  H17X14426   4.782   3.174   8.323 -1.2469  1.0710  0.7350
  133SAPE  H17Y14427   4.940   3.228   8.282 -0.3789  1.5149  0.4345
  133SAPE  C31814428   4.784   3.379   8.240  0.2176  0.0355  0.5743
  133SAPE  H18X14429   4.703   3.430   8.296  0.0720 -1.2451  1.5586
  133SAPE  H18Y14430   4.729   3.345   8.150 -1.5125  2.2711  0.7574
  133SAPE  H18Z14431   4.856   3.454   8.201 -1.4304  0.6147 -1.4334
  134SAPE     N14432   0.717   5.398  11.110 -0.6185  0.5932  0.0984
  134SAPE   HN114433   0.712   5.496  11.077 -0.7837  0.1669 -1.2070
  134SAPE   HN214434   0.776   5.382  11.194  0.3787 -0.2917 -0.7535
  134SAPE   HN314435   0.771   5.360  11.030 -0.2466  1.3827 -0.0255
  134SAPE   C1214436   0.584   5.334  11.087  0.2273  0.3054 -0.2005
  134SAPE  H12A14437   0.541   5.383  10.997 -1.0983 -2.7553 -1.2674
  134SAPE  H12B14438   0.519   5.352  11.175  0.0571 -0.5174 -0.1581
  134SAPE   C1114439   0.607   5.185  11.069  0.4233 -0.5476  0.0676
  134SAPE  H11A14440   0.509   5.134  11.058 -0.4287  1.0392  0.1584
  134SAPE  H11B14441   0.647   5.135  11.159  1.2803  1.3308  0.7764
  134SAPE     P14442   0.652   5.131  10.824 -0.1887  0.3631  0.4753
  134SAPE   O1314443   0.575   5.246  10.767  0.5803 -0.3010  0.1823
  134SAPE   O1414444   0.769   5.083  10.751  0.6371 -0.1410 -0.0882
  134SAPE   O1214445   0.703   5.163  10.970 -0.8964 -0.4502 -0.5839
  134SAPE   O1114446   0.549   5.005  10.844  0.4796  0.1938 -0.5895
  134SAPE    C114447   0.599   4.881  10.888  0.8144 -0.9527 -0.2100
  134SAPE    HA14448   0.695   4.884  10.945  0.4121 -4.0613  0.7207
  134SAPE    HB14449   0.532   4.835  10.964  2.1171 -0.6042  1.1777
  134SAPE    C214450   0.618   4.779  10.766 -0.3322 -0.1122 -0.0911
  134SAPE    HS14451   0.707   4.812  10.710 -1.2616  0.1925 -1.4214
  134SAPE   O2114452   0.501   4.789  10.683  0.5919  0.1723  0.0426
  134SAPE   C2114453   0.518   4.827  10.554 -0.2146  0.1372 -0.5036
  134SAPE   O2214454   0.624   4.859  10.504  0.2405 -0.2108 -0.8013
  134SAPE   C2214455   0.384   4.823  10.481 -0.2814  0.3324 -0.1064
  134SAPE   H2R14456   0.317   4.743  10.517 -1.2835  1.6758  1.0723
  134SAPE   H2S14457   0.332   4.918  10.506  1.7630  0.8577  2.4186
  134SAPE    C314458   0.627   4.632  10.800 -0.2669  0.7586  0.6995
  134SAPE    HX14459   0.541   4.614  10.868 -0.2385  1.7909  1.0268
  134SAPE    HY14460   0.714   4.619  10.868 -0.4104 -2.2872  0.3605
  134SAPE   O3114461   0.612   4.545  10.683 -0.3025 -0.2491  0.8004
  134SAPE   C3114462   0.717   4.488  10.636  0.7549 -0.5955  0.0596
  134SAPE   O3214463   0.835   4.490  10.667 -0.3848 -0.7476  0.1061
  134SAPE   C3214464   0.668   4.396  10.516  0.9929 -0.7153  0.4561
  134SAPE   H2X14465   0.562   4.425  10.494  2.1328  0.8741 -3.3399
  134SAPE   H2Y14466   0.650   4.291  10.548 -0.3403 -0.3580  0.9266
  134SAPE   C2314467   0.399   4.803  10.332  1.0941 -0.5604  0.4514
  134SAPE   H3R14468   0.458   4.889  10.291  1.1721 -0.3659  0.9738
  134SAPE   H3S14469   0.299   4.805  10.284  0.8034 -2.0400  0.9920
  134SAPE   C2414470   0.476   4.670  10.289 -0.2077  0.2914  0.3392
  134SAPE   H4R14471   0.557   4.658  10.364  0.3520  2.3065  0.0975
  134SAPE   H4S14472   0.513   4.667  10.184  0.5506  1.1644  0.5773
  134SAPE   C2514473   0.379   4.559  10.298  0.5886  0.7302  0.8758
  134SAPE   H5R14474   0.372   4.509  10.396 -1.3280 -0.8778 -0.0508
  134SAPE   C2614475   0.320   4.501  10.192  0.4530 -0.0254 -0.1417
  134SAPE   H6R14476   0.255   4.412  10.204  0.1335  0.6223  3.4700
  134SAPE   C2714477   0.326   4.535  10.046  0.0880 -0.1081 -0.1643
  134SAPE   H7R14478   0.361   4.639  10.029 -0.2973  0.2130  1.0120
  134SAPE   H7S14479   0.220   4.522  10.016 -0.8058 -0.4275  2.9850
  134SAPE   C2814480   0.420   4.449   9.965  0.2993  0.5493  0.1384
  134SAPE   H8R14481   0.480   4.384  10.031  3.1077  3.7312  0.8903
  134SAPE   C2914482   0.431   4.447   9.830 -0.0127  0.3254 -1.0465
  134SAPE   H9R14483   0.502   4.381   9.777  1.1995  0.6203  0.1790
  134SAPE  C21014484   0.352   4.533   9.733 -0.7308  0.0113 -0.5493
  134SAPE  H10R14485   0.297   4.611   9.791  1.4181  4.1493 -3.7922
  134SAPE  H10S14486   0.275   4.470   9.683 -0.7127 -1.1140  0.8075
  134SAPE  C21114487   0.426   4.601   9.623 -0.5656 -0.1127 -0.0086
  134SAPE  H11R14488   0.491   4.684   9.655 -2.9805  1.4325  1.0125
  134SAPE  C21214489   0.420   4.585   9.487 -0.3481 -0.0585 -0.4955
  134SAPE  H12R14490   0.495   4.632   9.422  0.1157 -2.3470 -1.6829
  134SAPE  C21314491   0.339   4.484   9.414  0.2982  0.6372 -0.3741
  134SAPE  H13R14492   0.323   4.393   9.476  3.2729 -1.6853 -2.8698
  134SAPE  H13S14493   0.385   4.441   9.323 -0.2009 -1.8414  0.5050
  134SAPE  C21414494   0.210   4.553   9.387 -0.0827 -0.1926 -0.6336
  134SAPE  H14R14495   0.166   4.602   9.475 -1.9203 -2.9162  0.0128
  134SAPE  C21514496   0.142   4.567   9.269 -0.0955 -0.2323  0.4186
  134SAPE  H15R14497   0.059   4.640   9.268 -0.3490 -0.5176 -1.5413
  134SAPE  C21614498   0.184   4.519   9.137 -0.2354 -0.0460  0.4312
  134SAPE  H16R14499   0.096   4.513   9.068 -0.5589 -2.5560  1.0386
  134SAPE  H16S14500   0.222   4.415   9.130  0.0446  0.2050 -2.7087
  134SAPE  C21714501   0.278   4.620   9.079 -0.2447 -0.7492  0.4687
  134SAPE  H17R14502   0.374   4.624   9.134 -0.9573 -2.0904  1.8442
  134SAPE  H17S14503   0.237   4.723   9.081  1.0684 -0.2250  0.5338
  134SAPE  C21814504   0.322   4.580   8.929  0.2729  0.3208 -0.3265
  134SAPE  H18R14505   0.233   4.583   8.862 -0.6094  0.9350  0.8470
  134SAPE  H18S14506   0.373   4.482   8.936 -1.9505 -0.8076  0.4999
  134SAPE  C21914507   0.429   4.686   8.884  0.3282  0.2060  1.1337
  134SAPE  H19R14508   0.477   4.641   8.795 -0.3340 -2.1159  1.9276
  134SAPE  H19S14509   0.490   4.705   8.975 -1.8284  3.1130  2.0656
  134SAPE  C22014510   0.374   4.825   8.843  0.5229  0.0523 -0.2214
  134SAPE  H20R14511   0.324   4.811   8.744 -0.8878 -0.8596  0.6134
  134SAPE  H20S14512   0.471   4.877   8.829  1.0301 -0.4138  1.4879
  134SAPE  H20T14513   0.312   4.867   8.924 -1.7053  0.4092 -2.0598
  134SAPE   C3314514   0.771   4.389  10.393  0.8200  0.0929  0.0267
  134SAPE   H3X14515   0.848   4.313  10.416 -0.5264 -1.8663 -1.7338
  134SAPE   H3Y14516   0.817   4.489  10.390 -0.4992  0.7896  1.6611
  134SAPE   C3414517   0.695   4.344  10.262 -0.4503  0.1084  0.1608
  134SAPE   H4X14518   0.635   4.427  10.217  1.4766  1.1830 -0.4947
  134SAPE   H4Y14519   0.625   4.262  10.288 -1.1490  1.3526  2.3845
  134SAPE   C3514520   0.792   4.306  10.147  0.2671  0.4971 -0.2947
  134SAPE   H5X14521   0.734   4.247  10.073  2.7104  0.1573 -1.9856
  134SAPE   H5Y14522   0.862   4.231  10.188 -1.1324  0.5113  2.2298
  134SAPE   C3614523   0.871   4.421  10.083  0.3061  0.0163  0.0408
  134SAPE   H6X14524   0.950   4.444  10.158 -1.4330 -2.8261  2.8544
  134SAPE   H6Y14525   0.807   4.511  10.077  0.7290  0.2742 -0.6616
  134SAPE   C3714526   0.936   4.386   9.944  0.7750 -0.0847 -0.0423
  134SAPE   H7X14527   0.991   4.290   9.937 -0.3518 -0.7961  0.7519
  134SAPE   H7Y14528   1.016   4.462   9.934 -0.8334  1.4600 -1.6059
  134SAPE   C3814529   0.822   4.388   9.834  0.4762 -0.3195 -0.3110
  134SAPE   H8X14530   0.767   4.484   9.840 -1.0100 -1.1232 -0.8902
  134SAPE   H8Y14531   0.749   4.309   9.861 -0.1257  0.7874  1.3767
  134SAPE   C3914532   0.876   4.375   9.691 -0.1494 -0.1181  0.3262
  134SAPE   H9X14533   0.904   4.268   9.677 -0.6016 -0.2174  0.1818
  134SAPE   H9Y14534   0.968   4.435   9.673  0.7711 -1.1017  1.6269
  134SAPE  C31014535   0.776   4.410   9.576 -0.3418 -0.1212 -0.2850
  134SAPE  H10X14536   0.747   4.514   9.602 -1.2308 -0.8138  1.6538
  134SAPE  H10Y14537   0.686   4.345   9.585 -0.6918  0.3790 -0.1501
  134SAPE  C31114538   0.826   4.378   9.434  0.0263 -0.0423  0.7471
  134SAPE  H11X14539   0.824   4.268   9.420 -3.3406  0.0246  0.2056
  134SAPE  H11Y14540   0.930   4.411   9.413 -0.9744  0.7282 -3.3570
  134SAPE  C31214541   0.726   4.434   9.329 -0.4848 -0.3378  0.1801
  134SAPE  H12X14542   0.724   4.543   9.349 -0.4747 -0.2913 -0.0589
  134SAPE  H12Y14543   0.620   4.404   9.340 -0.3892 -0.3445  1.1008
  134SAPE  C31314544   0.777   4.412   9.186 -0.2306  0.0975 -0.0319
  134SAPE  H13X14545   0.798   4.306   9.161  0.5729 -0.3546  2.4171
  134SAPE  H13Y14546   0.877   4.460   9.174 -0.1944  0.1337  0.3814
  134SAPE  C31414547   0.672   4.455   9.082 -0.5330 -0.0198 -0.1303
  134SAPE  H14X14548   0.637   4.560   9.090  0.7184  0.4948 -1.2566
  134SAPE  H14Y14549   0.586   4.388   9.103 -0.1535 -0.3685  0.3073
  134SAPE  C31514550   0.723   4.443   8.936  0.0029  0.2915 -0.0642
  134SAPE  H15X14551   0.833   4.428   8.944 -0.3881 -1.7607  1.8916
  134SAPE  H15Y14552   0.712   4.538   8.881  0.8626  0.1575 -0.4810
  134SAPE  C31614553   0.668   4.324   8.851 -1.2266 -0.0597  0.1121
  134SAPE  H16X14554   0.561   4.352   8.843 -0.3902  3.9152  1.3082
  134SAPE  H16Y14555   0.683   4.229   8.908 -3.1092  0.1527  1.0049
  134SAPE  C31714556   0.744   4.319   8.720 -0.4461 -0.3883 -0.1317
  134SAPE  H17X14557   0.776   4.420   8.686  0.0142 -0.3539  0.3929
  134SAPE  H17Y14558   0.683   4.278   8.637  0.8657 -1.6690 -0.4980
  134SAPE  C31814559   0.864   4.230   8.725 -0.2263 -0.6932  0.0614
  134SAPE  H18X14560   0.850   4.139   8.788  1.0748  0.8425  2.6710
  134SAPE  H18Y14561   0.951   4.285   8.767  0.5759 -0.5066 -1.8130
  134SAPE  H18Z14562   0.912   4.190   8.633 -1.0179  1.7795 -1.4620
  135SAPE     N14563   0.022   3.319  10.646  0.1882  0.6683  0.4434
  135SAPE   HN114564   0.054   3.416  10.663  0.4446  0.5316  0.7485
  135SAPE   HN214565  -0.016   3.288  10.738  2.2431  1.4814  1.5955
  135SAPE   HN314566   0.106   3.259  10.636  0.6505  1.1888  1.1929
  135SAPE   C1214567  -0.083   3.335  10.544  0.9820  0.3762  1.1741
  135SAPE  H12A14568  -0.040   3.395  10.461 -0.3929  0.6009  0.6215
  135SAPE  H12B14569  -0.163   3.394  10.592 -0.2959  0.2111 -0.7320
  135SAPE   C1114570  -0.126   3.199  10.486 -0.2037  0.0979  0.2695
  135SAPE  H11A14571  -0.043   3.144  10.435 -0.1012  1.1463 -0.7171
  135SAPE  H11B14572  -0.193   3.219  10.400  0.0950  1.2845  0.3102
  135SAPE     P14573  -0.317   3.041  10.566  0.4536  0.5925 -0.3461
  135SAPE   O1314574  -0.313   2.928  10.661  0.2949 -0.6922  0.1240
  135SAPE   O1414575  -0.434   3.137  10.589 -0.3362  0.3312 -0.9434
  135SAPE   O1214576  -0.186   3.114  10.584 -0.0452  0.4594  0.6765
  135SAPE   O1114577  -0.330   2.988  10.415 -0.1611  0.1956 -0.1046
  135SAPE    C114578  -0.448   2.950  10.350  0.6933 -0.5326  0.3082
  135SAPE    HA14579  -0.533   3.017  10.370 -0.0426 -1.7293  1.3019
  135SAPE    HB14580  -0.425   2.944  10.241  1.9059  0.6902  0.4814
  135SAPE    C214581  -0.500   2.804  10.400 -0.1116  0.1806 -0.4014
  135SAPE    HS14582  -0.488   2.783  10.509 -1.0662  0.4132 -0.2430
  135SAPE   O2114583  -0.424   2.710  10.334  0.6642 -0.3032  0.6902
  135SAPE   C2114584  -0.448   2.586  10.365  0.1626  0.0187 -0.3773
  135SAPE   O2214585  -0.510   2.544  10.458 -0.4656  0.5988  0.4439
  135SAPE   C2214586  -0.364   2.484  10.272  0.5919  0.0129  0.4353
  135SAPE   H2R14587  -0.255   2.491  10.291  0.5275 -1.0118  1.2205
  135SAPE   H2S14588  -0.395   2.379  10.290  0.8415 -0.0101  0.7421
  135SAPE    C314589  -0.651   2.805  10.372 -0.3554  0.3503 -0.7467
  135SAPE    HX14590  -0.697   2.885  10.434 -1.2919 -0.8258  0.1068
  135SAPE    HY14591  -0.705   2.710  10.394 -1.1907  0.9717 -0.0748
  135SAPE   O3114592  -0.684   2.841  10.237 -0.0301 -0.1173 -0.5184
  135SAPE   C3114593  -0.737   2.747  10.157 -0.4414  0.1974  0.9735
  135SAPE   O3214594  -0.787   2.639  10.188  0.4249 -0.5007  0.1431
  135SAPE   C3214595  -0.734   2.795  10.007  0.2805 -0.5206  0.3988
  135SAPE   H2X14596  -0.685   2.894   9.997  3.0949 -2.0733 -2.0367
  135SAPE   H2Y14597  -0.837   2.800   9.966  0.4165 -0.3646  0.0662
  135SAPE   C2314598  -0.374   2.527  10.119  0.3851 -0.2462  0.6629
  135SAPE   H3R14599  -0.355   2.635  10.107  0.9086  0.0268  3.4840
  135SAPE   H3S14600  -0.479   2.511  10.087  0.5163  0.1773  0.0146
  135SAPE   C2414601  -0.282   2.436  10.037 -0.3991 -0.4759 -1.1378
  135SAPE   H4R14602  -0.181   2.438  10.083 -0.7028  1.5722 -0.4809
  135SAPE   H4S14603  -0.271   2.481   9.936  0.9999  2.7247  0.3420
  135SAPE   C2514604  -0.312   2.291  10.039 -0.1937 -0.6536 -0.0491
  135SAPE   H5R14605  -0.273   2.237  10.126  0.6255 -1.3382 -0.8311
  135SAPE   C2614606  -0.376   2.223   9.941 -0.5618 -0.5410 -0.7217
  135SAPE   H6R14607  -0.415   2.124   9.966 -1.6367 -0.2901 -1.3848
  135SAPE   C2714608  -0.434   2.268   9.807 -0.0111 -0.3116  0.0322
  135SAPE   H7R14609  -0.434   2.378   9.795 -0.9713  0.2791  4.4205
  135SAPE   H7S14610  -0.544   2.251   9.810 -0.0173 -0.4241 -0.7870
  135SAPE   C2814611  -0.383   2.210   9.678  0.2692  0.5830 -0.2702
  135SAPE   H8R14612  -0.296   2.266   9.642  1.1918 -0.5421  0.1737
  135SAPE   C2914613  -0.444   2.122   9.598 -0.2127  0.8585  0.0828
  135SAPE   H9R14614  -0.393   2.084   9.509 -3.2416  1.1435 -1.8697
  135SAPE  C21014615  -0.575   2.046   9.612 -0.2731 -0.3448 -0.5645
  135SAPE  H10R14616  -0.593   2.038   9.721  0.3592 -0.8198 -0.4929
  135SAPE  H10S14617  -0.567   1.944   9.569  3.2100 -1.2250  1.8954
  135SAPE  C21114618  -0.687   2.122   9.552 -0.4215 -0.8005 -0.6919
  135SAPE  H11R14619  -0.750   2.179   9.622  1.0373 -0.6649  0.5223
  135SAPE  C21214620  -0.725   2.143   9.426  0.8109  0.2704  0.2352
  135SAPE  H12R14621  -0.821   2.191   9.402  0.5671  0.1140  0.8644
  135SAPE  C21314622  -0.647   2.090   9.307 -0.5485  0.4255 -0.4152
  135SAPE  H13R14623  -0.710   2.018   9.251  0.6716 -1.5952  0.7518
  135SAPE  H13S14624  -0.566   2.018   9.331 -0.7395  0.2238 -0.3703
  135SAPE  C21414625  -0.588   2.201   9.231 -0.2625  0.1393  0.8884
  135SAPE  H14R14626  -0.484   2.218   9.260  0.0369 -0.6501  0.3166
  135SAPE  C21514627  -0.648   2.290   9.137 -0.4381  0.3033 -0.1721
  135SAPE  H15R14628  -0.580   2.361   9.088  0.8139 -2.2604 -2.2814
  135SAPE  C21614629  -0.790   2.285   9.087 -0.1007  0.0688 -0.1513
  135SAPE  H16R14630  -0.844   2.380   9.104 -0.2694  0.0074 -0.3437
  135SAPE  H16S14631  -0.848   2.216   9.152  1.6115 -0.7161  0.5706
  135SAPE  C21714632  -0.796   2.215   8.959  0.1003  0.4427 -0.0651
  135SAPE  H17R14633  -0.903   2.198   8.935  0.8164 -0.8928 -2.4641
  135SAPE  H17S14634  -0.739   2.120   8.968  1.0559  1.0195  0.0849
  135SAPE  C21814635  -0.741   2.307   8.840 -1.0335  0.5095 -0.5418
  135SAPE  H18R14636  -0.646   2.351   8.878  0.1774 -1.4116 -1.2712
  135SAPE  H18S14637  -0.805   2.391   8.806 -3.4093 -1.3014 -0.6551
  135SAPE  C21914638  -0.709   2.217   8.717  0.2528 -0.0042 -0.6442
  135SAPE  H19R14639  -0.804   2.173   8.679  1.1296 -0.4119 -2.4037
  135SAPE  H19S14640  -0.640   2.134   8.740 -0.8751 -0.8022 -0.1233
  135SAPE  C22014641  -0.655   2.294   8.598  0.3580 -0.0358 -0.0435
  135SAPE  H20R14642  -0.717   2.385   8.582 -2.4061 -1.9782 -0.6701
  135SAPE  H20S14643  -0.649   2.242   8.501  0.1189 -0.9218  0.4124
  135SAPE  H20T14644  -0.554   2.334   8.625  1.1998 -0.4763 -2.4303
  135SAPE   C3314645  -0.642   2.700   9.925  0.0248 -0.3401 -0.1719
  135SAPE   H3X14646  -0.678   2.597   9.944  0.6211 -0.9523 -2.2314
  135SAPE   H3Y14647  -0.539   2.691   9.965  0.0203 -2.1971 -0.5198
  135SAPE   C3414648  -0.645   2.734   9.779  0.1111  0.2430  0.6379
  135SAPE   H4X14649  -0.605   2.836   9.759  0.3780 -0.1131 -0.6460
  135SAPE   H4Y14650  -0.753   2.744   9.758  0.3098 -1.3310 -1.2259
  135SAPE   C3514651  -0.594   2.629   9.689 -0.1447  0.6619  0.3199
  135SAPE   H5X14652  -0.644   2.532   9.710  1.2997 -1.1600 -4.0916
  135SAPE   H5Y14653  -0.485   2.615   9.705 -0.2594  1.3242  1.7770
  135SAPE   C3614654  -0.629   2.669   9.542 -0.6077 -0.1889 -0.1235
  135SAPE   H6X14655  -0.619   2.779   9.532  0.0389 -0.0448  1.9134
  135SAPE   H6Y14656  -0.737   2.652   9.522 -1.2325  0.9683  2.1448
  135SAPE   C3714657  -0.557   2.576   9.448  0.6749 -0.3191 -0.2098
  135SAPE   H7X14658  -0.615   2.572   9.353  3.7712  0.0085 -2.1836
  135SAPE   H7Y14659  -0.548   2.472   9.487  1.2933  0.5640  2.0744
  135SAPE   C3814660  -0.406   2.617   9.421 -0.6289 -0.6407 -0.2223
  135SAPE   H8X14661  -0.331   2.580   9.493 -1.0259 -1.1103 -0.0473
  135SAPE   H8Y14662  -0.399   2.728   9.408 -1.7422 -0.4604  0.5903
  135SAPE   C3914663  -0.355   2.567   9.285 -0.1496  0.7362 -0.0349
  135SAPE   H9X14664  -0.287   2.633   9.228  0.4825 -0.4023 -0.6019
  135SAPE   H9Y14665  -0.438   2.541   9.216 -1.1066 -0.1738  1.4286
  135SAPE  C31014666  -0.287   2.433   9.311 -0.0467 -0.3438 -0.0147
  135SAPE  H10X14667  -0.357   2.369   9.369 -0.6330  0.6591  0.4039
  135SAPE  H10Y14668  -0.200   2.446   9.380  1.4636 -1.2676 -1.6902
  135SAPE  C31114669  -0.250   2.358   9.176 -0.0109  0.5171 -0.0044
  135SAPE  H11X14670  -0.169   2.414   9.124  0.2989 -0.3917 -0.5121
  135SAPE  H11Y14671  -0.335   2.356   9.105  0.0053  0.7182 -0.0276
  135SAPE  C31214672  -0.197   2.210   9.196 -0.2129 -0.3787 -0.1990
  135SAPE  H12X14673  -0.276   2.159   9.256 -0.4275 -0.9254 -0.9400
  135SAPE  H12Y14674  -0.098   2.201   9.245  0.7309 -2.2272 -2.3596
  135SAPE  C31314675  -0.176   2.137   9.064  0.1456  0.3173  0.3729
  135SAPE  H13X14676  -0.119   2.205   8.998 -0.5709 -0.4328 -1.0334
  135SAPE  H13Y14677  -0.270   2.112   9.010 -0.8488  0.7475  1.8805
  135SAPE  C31414678  -0.107   2.002   9.068 -0.1307 -0.3350  0.5984
  135SAPE  H14X14679  -0.169   1.927   9.122 -1.5859  2.0253  2.3207
  135SAPE  H14Y14680  -0.009   2.013   9.120  0.9142  0.9671 -1.5702
  135SAPE  C31514681  -0.075   1.944   8.927 -0.5234  0.4396  0.3164
  135SAPE  H15X14682  -0.030   2.031   8.874 -1.4860  0.4226 -0.5371
  135SAPE  H15Y14683  -0.169   1.919   8.874 -0.8308 -1.2337  1.6348
  135SAPE  C31614684   0.014   1.824   8.941 -0.3043 -0.5702  0.2867
  135SAPE  H16X14685  -0.013   1.754   9.023 -1.9017 -1.7972 -1.2625
  135SAPE  H16Y14686   0.116   1.863   8.961 -0.5822  2.4055 -3.4096
  135SAPE  C31714687   0.032   1.743   8.814 -0.2763  0.0503  0.2696
  135SAPE  H17X14688   0.032   1.807   8.723 -2.5013  0.5999  0.6256
  135SAPE  H17Y14689  -0.055   1.674   8.806  0.6860 -1.2159  0.5329
  135SAPE  C31814690   0.158   1.661   8.812 -0.2234 -0.7853 -0.3988
  135SAPE  H18X14691   0.166   1.598   8.721 -1.2148 -1.5949  0.0597
  135SAPE  H18Y14692   0.156   1.587   8.894 -0.3458 -0.4849 -0.1316
  135SAPE  H18Z14693   0.245   1.730   8.812 -1.5856  0.9750 -1.3915
  136SAPE     N14694   2.247   2.945  11.142  0.3787  0.1067  0.3778
  136SAPE   HN114695   2.207   2.887  11.218  0.1583 -3.4402 -2.3357
  136SAPE   HN214696   2.350   2.934  11.147  0.2987 -1.7912 -1.5427
  136SAPE   HN314697   2.214   3.044  11.151 -3.4352 -0.8142 -1.9208
  136SAPE   C1214698   2.217   2.893  11.005  0.4873  0.3323 -0.2456
  136SAPE  H12A14699   2.207   2.989  10.951  1.1291  1.4260  1.5175
  136SAPE  H12B14700   2.117   2.844  11.002  0.9821 -0.6482 -0.5780
  136SAPE   C1114701   2.321   2.794  10.970 -0.5053 -0.7112 -0.7218
  136SAPE  H11A14702   2.305   2.746  10.871 -1.3658 -3.4909  0.7020
  136SAPE  H11B14703   2.314   2.705  11.036  0.7753 -1.0773 -1.0629
  136SAPE     P14704   2.564   2.860  10.883  0.0480  0.3658 -0.0325
  136SAPE   O1314705   2.542   3.002  10.834 -0.0239 -0.1131  0.2580
  136SAPE   O1414706   2.691   2.829  10.944  0.0343 -0.4665 -0.9195
  136SAPE   O1214707   2.453   2.843  10.996 -0.0001 -0.2774  0.1973
  136SAPE   O1114708   2.531   2.755  10.773 -0.2301 -0.5686 -0.1074
  136SAPE    C114709   2.577   2.615  10.784 -0.0852 -0.1539  0.3377
  136SAPE    HA14710   2.687   2.611  10.773 -0.1376 -0.9005  0.0742
  136SAPE    HB14711   2.554   2.569  10.883 -1.6219  0.1546  0.1483
  136SAPE    C214712   2.514   2.519  10.678 -0.4695  0.2594  0.0963
  136SAPE    HS14713   2.577   2.430  10.659  0.2879  1.3625 -2.7289
  136SAPE   O2114714   2.470   2.595  10.561  0.0910 -0.7871 -0.2666
  136SAPE   C2114715   2.565   2.609  10.465  0.2090 -0.4419  0.5555
  136SAPE   O2214716   2.681   2.580  10.482 -0.3045 -0.3598 -0.0928
  136SAPE   C2214717   2.501   2.664  10.336 -0.3878  0.6357  0.8902
  136SAPE   H2R14718   2.392   2.640  10.337 -0.0184 -1.1492  0.0806
  136SAPE   H2S14719   2.508   2.775  10.346 -0.0924  0.8298 -1.3022
  136SAPE    C314720   2.373   2.468  10.727 -0.2522 -0.7491  0.2488
  136SAPE    HX14721   2.325   2.550  10.785 -0.1040 -1.1744  0.9757
  136SAPE    HY14722   2.409   2.390  10.798  1.3929 -0.2520 -0.0016
  136SAPE   O3114723   2.298   2.394  10.630  0.1923  0.5037 -0.1784
  136SAPE   C3114724   2.205   2.463  10.570 -0.5274  0.8520  0.1722
  136SAPE   O3214725   2.180   2.581  10.598 -0.4330 -0.6430  0.1797
  136SAPE   C3214726   2.112   2.371  10.488  0.0007  0.1732 -0.2501
  136SAPE   H2X14727   2.013   2.421  10.495  0.8952  1.7774  1.2205
  136SAPE   H2Y14728   2.105   2.269  10.531 -2.4800 -0.2507 -1.5529
  136SAPE   C2314729   2.565   2.615  10.207  0.8476 -0.2019 -0.5225
  136SAPE   H3R14730   2.562   2.504  10.199 -1.3736 -0.3234  1.5347
  136SAPE   H3S14731   2.665   2.663  10.205 -0.0771  1.8293  0.8140
  136SAPE   C2414732   2.485   2.652  10.079 -0.0949  0.0910 -0.4104
  136SAPE   H4R14733   2.486   2.763  10.082  0.6939  0.0562  2.4417
  136SAPE   H4S14734   2.388   2.599  10.090  1.5494 -2.3925  3.0789
  136SAPE   C2514735   2.570   2.613   9.962 -0.2659 -0.2761  0.9073
  136SAPE   H5R14736   2.678   2.602   9.981 -0.0317  0.4205 -0.0146
  136SAPE   C2614737   2.534   2.595   9.835 -0.0945 -0.2835 -0.1630
  136SAPE   H6R14738   2.606   2.576   9.754 -1.1371 -1.8147 -0.7566
  136SAPE   C2714739   2.388   2.610   9.779  0.3195  0.4365 -0.0842
  136SAPE   H7R14740   2.395   2.673   9.688  2.1701  3.3020  1.9387
  136SAPE   H7S14741   2.332   2.676   9.849 -0.5353 -0.0529 -0.3028
  136SAPE   C2814742   2.318   2.479   9.741  0.0831 -0.6521  0.3336
  136SAPE   H8R14743   2.244   2.435   9.810  0.0473  0.7113  1.1766
  136SAPE   C2914744   2.333   2.419   9.621  0.2162 -0.4000  0.2133
  136SAPE   H9R14745   2.285   2.321   9.607  0.0606 -0.3193  0.1851
  136SAPE  C21014746   2.409   2.477   9.503 -0.0731  0.2617  0.3565
  136SAPE  H10R14747   2.518   2.466   9.520  0.0775  2.0314  0.6707
  136SAPE  H10S14748   2.396   2.586   9.485 -0.9198  0.2887  1.0984
  136SAPE  C21114749   2.374   2.394   9.381 -0.4710 -0.1591 -0.9430
  136SAPE  H11R14750   2.293   2.320   9.385 -0.0986 -0.5322 -0.1694
  136SAPE  C21214751   2.440   2.415   9.266 -0.9420 -0.0116  0.0803
  136SAPE  H12R14752   2.421   2.357   9.174 -1.4887  0.7075 -0.2660
  136SAPE  C21314753   2.535   2.532   9.247 -0.5283 -0.4339 -0.0282
  136SAPE  H13R14754   2.634   2.495   9.212 -0.8964 -1.1529 -0.3277
  136SAPE  H13S14755   2.550   2.589   9.341  1.4036 -0.4661 -0.2943
  136SAPE  C21414756   2.473   2.620   9.141 -0.0314 -0.2108  0.6470
  136SAPE  H14R14757   2.414   2.701   9.188  0.3327 -0.8679  2.2798
  136SAPE  C21514758   2.471   2.596   9.010 -0.3969  0.6044  0.0325
  136SAPE  H15R14759   2.403   2.655   8.946 -0.2527 -1.1655 -1.7936
  136SAPE  C21614760   2.531   2.489   8.921  0.2425 -0.0922 -0.2535
  136SAPE  H16R14761   2.542   2.393   8.975 -2.6591  0.2495  1.0277
  136SAPE  H16S14762   2.627   2.534   8.888 -0.6735  1.9631 -0.1997
  136SAPE  C21714763   2.451   2.449   8.797  0.1723  0.2761 -0.3655
  136SAPE  H17R14764   2.507   2.370   8.744  0.0734  0.2476 -0.4288
  136SAPE  H17S14765   2.441   2.535   8.728  0.3151  1.0648  0.5819
  136SAPE  C21814766   2.302   2.401   8.826 -0.0577  0.5183  0.2615
  136SAPE  H18R14767   2.257   2.471   8.899  0.4009  1.4125 -0.3088
  136SAPE  H18S14768   2.322   2.303   8.875 -0.8764  1.7151  3.0770
  136SAPE  C21914769   2.215   2.394   8.696 -0.5433  0.5225 -0.2349
  136SAPE  H19R14770   2.225   2.485   8.633 -0.2319 -0.5655 -1.7635
  136SAPE  H19S14771   2.112   2.382   8.737  0.1889  0.5790  1.6906
  136SAPE  C22014772   2.255   2.270   8.617 -0.2826  0.2509 -0.1619
  136SAPE  H20R14773   2.179   2.240   8.542  0.9258 -1.9546 -0.5639
  136SAPE  H20S14774   2.284   2.183   8.681 -0.0752  0.7737  0.4574
  136SAPE  H20T14775   2.336   2.299   8.547  1.3923 -0.6458  1.3439
  136SAPE   C3314776   2.135   2.378  10.333 -0.8491 -0.5440 -0.7502
  136SAPE   H3X14777   2.109   2.478  10.292 -0.8742 -1.1067 -2.1492
  136SAPE   H3Y14778   2.061   2.309  10.288  0.4898 -0.6738 -2.8379
  136SAPE   C3414779   2.275   2.347  10.283  0.4223  0.1190 -0.5290
  136SAPE   H4X14780   2.317   2.268  10.349  0.8936  0.7025 -0.1283
  136SAPE   H4Y14781   2.340   2.436  10.295  0.3045  0.1839 -0.3723
  136SAPE   C3514782   2.287   2.318  10.135  0.8967  0.5838 -0.1231
  136SAPE   H5X14783   2.392   2.301  10.100  0.6544 -0.1585 -0.5042
  136SAPE   H5Y14784   2.260   2.411  10.081  1.5903  0.1537 -1.2298
  136SAPE   C3614785   2.197   2.204  10.081  0.0802  0.7903 -0.3246
  136SAPE   H6X14786   2.095   2.240  10.057 -1.5577 -3.9314 -0.9364
  136SAPE   H6Y14787   2.188   2.133  10.166 -0.6552  1.7853  0.4351
  136SAPE   C3714788   2.239   2.128   9.958 -0.2211 -0.2426  0.4037
  136SAPE   H7X14789   2.341   2.088   9.973  0.0210  0.1354 -0.1681
  136SAPE   H7Y14790   2.241   2.207   9.880 -1.1228 -0.4744  0.1420
  136SAPE   C3814791   2.153   2.013   9.912  0.5313  0.2969  0.0112
  136SAPE   H8X14792   2.045   2.039   9.919  0.5869  0.0807  1.9965
  136SAPE   H8Y14793   2.173   1.923   9.974  1.4925  0.6546  0.2316
  136SAPE   C3914794   2.182   1.967   9.770  0.5580  0.0998 -0.2640
  136SAPE   H9X14795   2.278   1.911   9.768  0.5920  0.1656 -0.4334
  136SAPE   H9Y14796   2.194   2.051   9.698 -1.1336  0.9871  0.4580
  136SAPE  C31014797   2.074   1.871   9.718 -0.0468  0.0785  0.7529
  136SAPE  H10X14798   1.981   1.931   9.708 -0.0551  0.0589  0.7112
  136SAPE  H10Y14799   2.053   1.793   9.794 -3.2878 -1.3588 -1.4666
  136SAPE  C31114800   2.112   1.794   9.589  0.1408 -1.0147 -0.0356
  136SAPE  H11X14801   2.034   1.716   9.584  1.3148 -2.1348 -1.4268
  136SAPE  H11Y14802   2.208   1.738   9.595  1.6445  1.5243  0.4742
  136SAPE  C31214803   2.122   1.872   9.461  0.1652  0.9595  0.2736
  136SAPE  H12X14804   2.188   1.959   9.479  1.6707 -0.6555  3.0096
  136SAPE  H12Y14805   2.020   1.897   9.424  0.5434  0.0190 -1.4388
  136SAPE  C31314806   2.186   1.777   9.362 -0.4180 -0.4232  0.2032
  136SAPE  H13X14807   2.134   1.680   9.354  2.0102 -1.7221 -0.4320
  136SAPE  H13Y14808   2.291   1.761   9.397  0.3892  0.9929 -1.5003
  136SAPE  C31414809   2.173   1.819   9.209 -0.5275 -0.0550  0.5507
  136SAPE  H14X14810   2.227   1.914   9.189 -1.4530  0.6867  1.5806
  136SAPE  H14Y14811   2.065   1.845   9.204 -0.0171  1.8494 -1.2689
  136SAPE  C31514812   2.221   1.713   9.101  0.0081 -0.2171  0.2316
  136SAPE  H15X14813   2.184   1.741   9.000 -1.1129 -4.3960 -0.6228
  136SAPE  H15Y14814   2.170   1.616   9.120 -2.3791  0.7266 -1.0246
  136SAPE  C31614815   2.367   1.676   9.094 -0.5586 -0.1727  0.2684
  136SAPE  H16X14816   2.376   1.586   9.029  2.9147 -1.6418  2.6680
  136SAPE  H16Y14817   2.393   1.652   9.199  1.6209 -0.0985 -0.2291
  136SAPE  C31714818   2.447   1.796   9.040 -0.4289 -0.7296 -0.7588
  136SAPE  H17X14819   2.423   1.886   9.101 -1.1788 -0.5250 -1.3417
  136SAPE  H17Y14820   2.405   1.827   8.942 -0.0492 -0.8310 -0.9541
  136SAPE  C31814821   2.594   1.759   9.028  0.0923 -0.0996  0.4799
  136SAPE  H18X14822   2.658   1.849   9.013 -1.0506  0.5244 -0.8388
  136SAPE  H18Y14823   2.619   1.676   8.959  2.3429 -1.7551  3.2088
  136SAPE  H18Z14824   2.625   1.728   9.130 -1.4976  0.1045  1.0518
  137SAPE     N14825   1.133   5.733  11.041  0.5859 -0.4536  0.1408
  137SAPE   HN114826   1.233   5.746  11.066  0.3452  0.7597  0.5290
  137SAPE   HN214827   1.108   5.647  10.990 -2.0625 -0.2191  0.9581
  137SAPE   HN314828   1.117   5.796  10.960  1.5182 -1.5165 -0.8658
  137SAPE   C1214829   1.034   5.771  11.156 -0.4678 -0.0144  0.5423
  137SAPE  H12A14830   1.030   5.882  11.167  2.8496  0.0556  1.4735
  137SAPE  H12B14831   1.074   5.718  11.244 -0.0069  0.1378  0.4242
  137SAPE   C1114832   0.894   5.725  11.115  0.0519 -0.2974  0.1884
  137SAPE  H11A14833   0.825   5.736  11.201  0.8916 -1.5366  1.0347
  137SAPE  H11B14834   0.890   5.617  11.090  2.5059 -0.3585 -0.0969
  137SAPE     P14835   0.704   5.748  10.952 -0.2697 -0.2155  0.0752
  137SAPE   O1314836   0.721   5.605  10.937  0.5044  0.0940  0.1110
  137SAPE   O1414837   0.594   5.810  11.027  0.3035  0.4609 -0.9281
  137SAPE   O1214838   0.840   5.799  11.003 -0.0010 -0.3417  0.2276
  137SAPE   O1114839   0.710   5.805  10.805  0.1684 -0.4650  0.8489
  137SAPE    C114840   0.789   5.916  10.762  0.7177  0.5294  1.0444
  137SAPE    HA14841   0.714   5.997  10.751 -0.8172 -1.2159 -2.0276
  137SAPE    HB14842   0.873   5.947  10.827 -0.8613  3.7268  1.6564
  137SAPE    C214843   0.859   5.883  10.624 -0.2031  0.4054  0.1576
  137SAPE    HS14844   0.903   5.978  10.585  0.8144  0.8947  2.4167
  137SAPE   O2114845   0.761   5.837  10.531 -0.6950  0.2107  0.2288
  137SAPE   C2114846   0.661   5.915  10.503 -0.5591 -0.2318 -0.0643
  137SAPE   O2214847   0.634   6.027  10.546  0.2039 -0.5539 -0.1334
  137SAPE   C2214848   0.579   5.844  10.391  0.0471 -1.0682 -0.1287
  137SAPE   H2R14849   0.648   5.806  10.312  1.8264 -2.0168  1.8274
  137SAPE   H2S14850   0.533   5.756  10.440 -2.5486 -0.5227 -1.5112
  137SAPE    C314851   0.974   5.789  10.647 -0.4213  0.1334  0.7048
  137SAPE    HX14852   0.962   5.717  10.731  1.9327 -1.4698 -0.2756
  137SAPE    HY14853   1.063   5.840  10.689  0.2161 -1.7461  1.6953
  137SAPE   O3114854   1.009   5.708  10.529 -0.1428 -0.1036  0.2265
  137SAPE   C3114855   1.102   5.755  10.448 -0.3316 -0.6815 -0.1850
  137SAPE   O3214856   1.157   5.864  10.455 -0.0510  0.2912  0.1188
  137SAPE   C3214857   1.155   5.633  10.377  0.3099  0.6266  0.2680
  137SAPE   H2X14858   1.183   5.548  10.442 -0.1811  1.2010  1.2387
  137SAPE   H2Y14859   1.249   5.653  10.320 -0.1730 -2.6783 -1.8308
  137SAPE   C2314860   0.458   5.928  10.345  0.3377  0.2214  0.3550
  137SAPE   H3R14861   0.492   5.983  10.255 -2.7402  0.4596 -0.7147
  137SAPE   H3S14862   0.419   5.988  10.429  0.4693 -1.4910  1.6590
  137SAPE   C2414863   0.346   5.837  10.281  0.2807  0.0188  0.4528
  137SAPE   H4R14864   0.307   5.772  10.362 -0.0841  1.6249  1.5666
  137SAPE   H4S14865   0.401   5.760  10.222 -1.0472  0.3329 -1.2310
  137SAPE   C2514866   0.244   5.919  10.211  0.3131 -0.4192  0.0797
  137SAPE   H5R14867   0.177   5.975  10.278 -0.9904 -1.7491 -0.0887
  137SAPE   C2614868   0.235   5.922  10.078  0.7511 -0.4991  0.1955
  137SAPE   H6R14869   0.148   5.975  10.036 -0.2298 -0.7289  1.8711
  137SAPE   C2714870   0.327   5.842   9.980 -0.1904  0.1675 -0.6639
  137SAPE   H7R14871   0.260   5.808   9.898 -0.7906 -2.1413  0.7526
  137SAPE   H7S14872   0.365   5.744  10.016 -1.9829 -0.3286 -0.0661
  137SAPE   C2814873   0.448   5.914   9.936 -0.0416  0.5398  0.2731
  137SAPE   H8R14874   0.485   5.980  10.016 -2.1064  0.8136  1.0205
  137SAPE   C2914875   0.517   5.910   9.819  0.5506 -0.5712 -0.1363
  137SAPE   H9R14876   0.602   5.978   9.804  0.5362 -0.4224  0.4413
  137SAPE  C21014877   0.485   5.828   9.699  0.3796  0.3584 -0.0652
  137SAPE  H10R14878   0.443   5.734   9.742  3.1192  0.3688  2.8126
  137SAPE  H10S14879   0.576   5.797   9.644  0.1199  1.4640 -1.1414
  137SAPE  C21114880   0.380   5.896   9.615  0.0144  0.8800 -0.1184
  137SAPE  H11R14881   0.282   5.906   9.664 -1.6557  0.7214 -3.2642
  137SAPE  C21214882   0.381   5.930   9.484 -0.3877 -0.2009  0.7225
  137SAPE  H12R14883   0.293   5.981   9.442  0.2483 -0.6806 -1.2972
  137SAPE  C21314884   0.494   5.916   9.390 -0.8286 -0.5699  0.8016
  137SAPE  H13R14885   0.469   5.847   9.307 -3.9390  0.4874  0.7824
  137SAPE  H13S14886   0.578   5.867   9.444 -0.6812  0.9674  1.9963
  137SAPE  C21414887   0.533   6.055   9.341 -0.0194 -0.4912 -1.3189
  137SAPE  H14R14888   0.602   6.107   9.409 -0.9351 -0.6909 -0.2349
  137SAPE  C21514889   0.492   6.114   9.227  0.0483 -0.6242 -0.5468
  137SAPE  H15R14890   0.507   6.220   9.204 -1.1824 -0.5369 -0.9963
  137SAPE  C21614891   0.401   6.052   9.115 -0.1972  0.2884 -0.0093
  137SAPE  H16R14892   0.296   6.090   9.119  0.1984  1.3572  0.3232
  137SAPE  H16S14893   0.395   5.942   9.131 -1.7615  0.3465 -0.0797
  137SAPE  C21714894   0.458   6.061   8.976  0.4692  0.2176  0.8281
  137SAPE  H17R14895   0.562   6.020   8.976  0.9364  1.2682  4.3033
  137SAPE  H17S14896   0.472   6.169   8.954 -1.9745  0.7449  1.7983
  137SAPE  C21814897   0.361   5.997   8.877  0.2053  0.5773 -0.7531
  137SAPE  H18R14898   0.273   6.064   8.875 -0.1856  0.1423  0.7629
  137SAPE  H18S14899   0.324   5.904   8.924  0.3734  1.0648  0.3591
  137SAPE  C21914900   0.424   5.971   8.739  0.2038 -0.7989 -0.5222
  137SAPE  H19R14901   0.505   5.897   8.755  0.5845 -0.4843 -0.9771
  137SAPE  H19S14902   0.448   6.073   8.701 -0.5660 -0.8520 -1.1760
  137SAPE  C22014903   0.318   5.899   8.649  0.5180  0.8670 -0.2701
  137SAPE  H20R14904   0.266   5.809   8.689 -1.1592  2.9122  2.3232
  137SAPE  H20S14905   0.360   5.863   8.553 -1.9923  1.3887 -1.6045
  137SAPE  H20T14906   0.240   5.974   8.623 -0.3056  0.1191  0.0161
  137SAPE   C3314907   1.063   5.582  10.265  0.1973  0.2491 -0.1441
  137SAPE   H3X14908   1.008   5.669  10.222 -1.2289 -1.1463 -1.2087
  137SAPE   H3Y14909   0.986   5.508  10.295  0.6074 -0.1018  0.0481
  137SAPE   C3414910   1.147   5.517  10.153 -0.4437 -0.3371 -0.4452
  137SAPE   H4X14911   1.093   5.425  10.121 -0.2914  0.6873 -3.8147
  137SAPE   H4Y14912   1.242   5.475  10.193 -0.0045  0.6759 -0.3912
  137SAPE   C3514913   1.171   5.618  10.035 -0.0045  0.5146 -0.7239
  137SAPE   H5X14914   1.213   5.708  10.084  1.0138 -0.9886  1.2526
  137SAPE   H5Y14915   1.077   5.655   9.990 -0.6460 -0.8106 -0.5099
  137SAPE   C3614916   1.257   5.561   9.934  0.2724  0.1120 -0.3050
  137SAPE   H6X14917   1.253   5.451   9.914 -0.2130 -0.3884  2.3025
  137SAPE   H6Y14918   1.360   5.563   9.975  0.5948 -0.5152 -1.0565
  137SAPE   C3714919   1.278   5.654   9.812 -0.2275 -0.1277  0.0252
  137SAPE   H7X14920   1.331   5.747   9.843 -0.0794 -0.3045  0.3132
  137SAPE   H7Y14921   1.177   5.682   9.776 -0.4305  1.9730  2.0420
  137SAPE   C3814922   1.354   5.580   9.704 -0.3684  0.4298  0.3252
  137SAPE   H8X14923   1.301   5.484   9.688 -4.1557  2.6188 -0.7497
  137SAPE   H8Y14924   1.461   5.568   9.731  0.0697 -0.0155 -1.5001
  137SAPE   C3914925   1.353   5.638   9.560 -0.4491  0.2429 -0.2367
  137SAPE   H9X14926   1.393   5.742   9.558 -1.2491  0.5386 -2.6242
  137SAPE   H9Y14927   1.252   5.641   9.515 -0.3488 -0.7678 -0.5442
  137SAPE  C31014928   1.435   5.540   9.465  0.1422 -0.4697  0.7490
  137SAPE  H10X14929   1.417   5.435   9.495 -2.2828 -0.6540 -1.1568
  137SAPE  H10Y14930   1.545   5.557   9.462  0.3627 -1.9896 -0.1471
  137SAPE  C31114931   1.404   5.572   9.311  0.8223 -0.5881  0.0707
  137SAPE  H11X14932   1.305   5.533   9.278 -0.6552  1.3725  2.0226
  137SAPE  H11Y14933   1.481   5.518   9.252  1.6912 -0.1452  0.7910
  137SAPE  C31214934   1.403   5.724   9.282  0.6224  0.1725 -0.3361
  137SAPE  H12X14935   1.480   5.766   9.351 -0.6827  0.8535  0.7184
  137SAPE  H12Y14936   1.312   5.778   9.313  0.2337 -0.0912 -1.0245
  137SAPE  C31314937   1.421   5.763   9.138 -0.4035  1.0408 -0.7846
  137SAPE  H13X14938   1.427   5.874   9.132  0.0546  1.1086  0.8796
  137SAPE  H13Y14939   1.330   5.726   9.085  0.3444 -0.9429 -0.7283
  137SAPE  C31414940   1.547   5.713   9.067 -0.4628  0.1422 -0.3017
  137SAPE  H14X14941   1.550   5.603   9.051 -1.7444  0.1934 -0.9429
  137SAPE  H14Y14942   1.631   5.745   9.132 -1.4788  1.0936  0.5528
  137SAPE  C31514943   1.573   5.791   8.935  0.4696 -0.0223 -0.0142
  137SAPE  H15X14944   1.592   5.898   8.957  1.1059 -0.5029  1.8893
  137SAPE  H15Y14945   1.485   5.791   8.867  0.4181  1.1040  0.0468
  137SAPE  C31614946   1.695   5.737   8.857 -0.3721 -0.3028  0.1820
  137SAPE  H16X14947   1.677   5.638   8.810  0.0186 -0.7400  0.9574
  137SAPE  H16Y14948   1.786   5.728   8.919 -1.7233 -1.0381  2.0832
  137SAPE  C31714949   1.732   5.828   8.731 -0.4699 -0.5039 -0.6174
  137SAPE  H17X14950   1.752   5.929   8.771  0.7462 -1.1187  0.3514
  137SAPE  H17Y14951   1.653   5.829   8.653  0.9928  0.4769 -2.1029
  137SAPE  C31814952   1.865   5.795   8.663 -0.1717  0.1435 -0.8895
  137SAPE  H18X14953   1.945   5.848   8.721 -0.3558 -0.7087  0.1664
  137SAPE  H18Y14954   1.871   5.832   8.559 -0.3795  2.4504 -0.1116
  137SAPE  H18Z14955   1.876   5.685   8.674 -1.1433  0.2993  2.3489
  138SAPE     N14956   4.205   6.588  10.611  0.2908  0.8467 -0.1699
  138SAPE   HN114957   4.137   6.532  10.667 -2.0704  0.8166 -2.9834
  138SAPE   HN214958   4.297   6.589  10.660  0.3392  1.4499 -0.2731
  138SAPE   HN314959   4.168   6.683  10.591 -2.4744 -0.6905 -2.7807
  138SAPE   C1214960   4.230   6.515  10.483 -0.1835 -0.1566 -0.1196
  138SAPE  H12A14961   4.283   6.587  10.417  1.5188 -2.2689 -1.1422
  138SAPE  H12B14962   4.130   6.484  10.444 -1.3441  2.2042  0.9282
  138SAPE   C1114963   4.317   6.391  10.518  0.4638  0.3661  0.5773
  138SAPE  H11A14964   4.341   6.325  10.433  0.3743  0.7449  0.2581
  138SAPE  H11B14965   4.249   6.326  10.578  1.9812 -0.1785  1.7463
  138SAPE     P14966   4.562   6.491  10.550 -0.7473  0.3347 -0.0453
  138SAPE   O1314967   4.546   6.630  10.516 -0.1453 -0.5091  0.1425
  138SAPE   O1414968   4.669   6.459  10.650 -0.1893 -0.8333  0.1322
  138SAPE   O1214969   4.426   6.429  10.606  0.3070  0.9445 -0.3349
  138SAPE   O1114970   4.601   6.410  10.427 -0.4795 -0.4400  0.2679
  138SAPE    C114971   4.616   6.268  10.423  0.0994 -0.1261 -0.2606
  138SAPE    HA14972   4.707   6.231  10.476  0.0662 -2.8732 -1.9994
  138SAPE    HB14973   4.535   6.210  10.471  0.4839 -1.0694 -0.7391
  138SAPE    C214974   4.628   6.200  10.281  0.2354  0.3733  0.2412
  138SAPE    HS14975   4.725   6.239  10.242 -0.6276  2.0418 -0.2892
  138SAPE   O2114976   4.517   6.243  10.204  0.5151 -0.3395 -0.5594
  138SAPE   C2114977   4.544   6.269  10.081 -0.0972 -0.1637 -0.3958
  138SAPE   O2214978   4.651   6.254  10.021 -0.2491  0.2674 -0.4795
  138SAPE   C2214979   4.418   6.318  10.017  0.1823  0.9632  0.5337
  138SAPE   H2R14980   4.336   6.246  10.036  1.3422 -1.1928 -2.2353
  138SAPE   H2S14981   4.385   6.407  10.075 -0.1572  0.4592  1.1189
  138SAPE    C314982   4.624   6.050  10.294  0.4983  0.2639 -0.0067
  138SAPE    HX14983   4.527   6.023  10.341  1.3592 -2.0397  0.5382
  138SAPE    HY14984   4.694   6.004  10.367  1.1403 -0.7973 -1.2884
  138SAPE   O3114985   4.623   5.992  10.166  0.3952  0.2166 -0.3735
  138SAPE   C3114986   4.752   5.988  10.119 -1.0096 -0.5411 -0.5120
  138SAPE   O3214987   4.852   6.014  10.185  0.3163  0.4389 -0.5455
  138SAPE   C3214988   4.750   5.953   9.971  0.4766 -0.0597 -0.3715
  138SAPE   H2X14989   4.759   6.052   9.920  2.2587  0.0173  0.0694
  138SAPE   H2Y14990   4.653   5.911   9.937 -1.6048  0.8098  4.1567
  138SAPE   C2314991   4.435   6.347   9.870 -0.2195 -1.5435  0.0218
  138SAPE   H3R14992   4.518   6.420   9.857 -1.4121  0.3610  2.5628
  138SAPE   H3S14993   4.348   6.403   9.831 -0.6691 -1.8659  0.5577
  138SAPE   C2414994   4.464   6.222   9.780  0.1522  0.0520 -0.0327
  138SAPE   H4R14995   4.564   6.179   9.800  0.2594 -0.2738 -1.2176
  138SAPE   H4S14996   4.474   6.250   9.673  0.4665 -0.1749 -0.0624
  138SAPE   C2514997   4.350   6.122   9.784  0.0765  0.5002  0.0301
  138SAPE   H5R14998   4.367   6.041   9.856 -1.2744 -0.3936 -0.6447
  138SAPE   C2614999   4.232   6.141   9.728  0.0011  0.7334 -0.0324
  138SAPE   H6R15000   4.158   6.060   9.740  1.0439 -0.0015  1.5309
  138SAPE   C2715001   4.193   6.250   9.634  0.5867  0.1773 -0.5822
  138SAPE   H7R15002   4.222   6.351   9.672 -1.2511  0.1387  1.0320
  138SAPE   H7S15003   4.082   6.258   9.628  0.5407  3.3882  2.5054
  138SAPE   C2815004   4.239   6.226   9.493  0.6945  0.1617 -0.3528
  138SAPE   H8R15005   4.263   6.120   9.479 -2.3151 -0.7666  1.2001
  138SAPE   C2915006   4.253   6.327   9.394 -0.0582  0.4223  0.0694
  138SAPE   H9R15007   4.286   6.307   9.292 -2.6093 -2.2291 -0.3354
  138SAPE  C21015008   4.223   6.471   9.403 -0.2673 -0.8163 -0.4981
  138SAPE  H10R15009   4.172   6.506   9.495 -0.4921 -1.7220 -0.2774
  138SAPE  H10S15010   4.160   6.506   9.318  1.0680  0.5330 -0.9641
  138SAPE  C21115011   4.348   6.556   9.417  0.8329 -0.1254  0.3113
  138SAPE  H11R15012   4.414   6.533   9.501  0.7750 -0.2707  0.3164
  138SAPE  C21215013   4.376   6.666   9.346  0.3963  0.2896 -0.5911
  138SAPE  H12R15014   4.476   6.707   9.367  1.3061 -1.0430 -2.1505
  138SAPE  C21315015   4.298   6.726   9.235  0.6219  0.1608 -0.9664
  138SAPE  H13R15016   4.315   6.836   9.239 -0.7337  0.3897 -1.0297
  138SAPE  H13S15017   4.191   6.698   9.246  0.2108  1.7482 -0.6972
  138SAPE  C21415018   4.337   6.667   9.106  0.3644  1.0184  0.0008
  138SAPE  H14R15019   4.391   6.573   9.123  1.8746  2.0528  1.0821
  138SAPE  C21515020   4.335   6.711   8.982  0.8772 -0.2286  0.2790
  138SAPE  H15R15021   4.364   6.641   8.902 -2.8764 -0.6609 -0.8032
  138SAPE  C21615022   4.277   6.842   8.938  0.2938  0.2626  0.5054
  138SAPE  H16R15023   4.200   6.867   9.014  0.9014 -0.4564  1.3825
  138SAPE  H16S15024   4.233   6.824   8.838  2.3297 -0.8148 -0.2316
  138SAPE  C21715025   4.387   6.950   8.935  0.7194  0.0585  0.7934
  138SAPE  H17R15026   4.442   6.940   8.840  1.8562 -4.4798  1.8303
  138SAPE  H17S15027   4.463   6.936   9.015  0.4783 -1.9320  0.6850
  138SAPE  C21815028   4.327   7.091   8.932 -0.0894 -0.1611  0.1543
  138SAPE  H18R15029   4.295   7.130   9.031 -0.5425  2.8086 -1.1265
  138SAPE  H18S15030   4.249   7.102   8.853  1.2588  0.2379 -1.1350
  138SAPE  C21915031   4.444   7.186   8.887 -0.0473  0.4338 -0.0554
  138SAPE  H19R15032   4.467   7.154   8.783  1.3200  0.1126  0.3336
  138SAPE  H19S15033   4.527   7.178   8.960 -1.1907 -1.8806  1.0291
  138SAPE  C22015034   4.412   7.338   8.886 -0.2838  0.0538 -0.1316
  138SAPE  H20R15035   4.407   7.380   8.989 -0.7101 -0.5412  0.0968
  138SAPE  H20S15036   4.317   7.359   8.833 -1.9242 -1.2539  2.1692
  138SAPE  H20T15037   4.497   7.387   8.835 -0.1893  0.1500  0.1199
  138SAPE   C3315038   4.868   5.858   9.928 -0.2546  0.5601  0.4708
  138SAPE   H3X15039   4.834   5.753   9.942 -1.7709  0.8790 -0.7754
  138SAPE   H3Y15040   4.957   5.867   9.994 -0.5500  1.5215  0.7370
  138SAPE   C3415041   4.919   5.879   9.784 -0.3755 -1.1453  0.1207
  138SAPE   H4X15042   5.014   5.822   9.772 -1.3819 -3.3337  2.1204
  138SAPE   H4Y15043   4.949   5.985   9.769  0.7255 -1.3491  0.8303
  138SAPE   C3515044   4.815   5.850   9.664 -0.4999  0.0125 -1.0614
  138SAPE   H5X15045   4.743   5.934   9.658 -1.4013 -0.7211 -0.5012
  138SAPE   H5Y15046   4.760   5.754   9.675  2.2605 -1.6461 -1.1911
  138SAPE   C3615047   4.887   5.876   9.534 -0.7109 -0.0986  0.6406
  138SAPE   H6X15048   4.960   5.794   9.518 -0.1007  0.6097 -0.2993
  138SAPE   H6Y15049   4.944   5.971   9.528  0.5454 -0.9218 -0.8391
  138SAPE   C3715050   4.783   5.862   9.419 -0.1743 -0.1162 -0.6628
  138SAPE   H7X15051   4.834   5.897   9.327 -1.2461  0.6869 -0.9565
  138SAPE   H7Y15052   4.708   5.942   9.438 -0.2179 -0.4946  0.8429
  138SAPE   C3815053   4.703   5.731   9.403  0.2234  0.1890  0.5528
  138SAPE   H8X15054   4.616   5.734   9.471 -0.7449  0.3195 -0.6860
  138SAPE   H8Y15055   4.776   5.656   9.440  0.2671  0.4813  1.0637
  138SAPE   C3915056   4.676   5.692   9.258  0.1748  0.0111 -0.3746
  138SAPE   H9X15057   4.636   5.588   9.263  0.2687  0.0389  1.5459
  138SAPE   H9Y15058   4.773   5.679   9.206 -0.8975 -0.9262 -2.1845
  138SAPE  C31015059   4.563   5.776   9.189  0.2077  0.3811  0.8689
  138SAPE  H10X15060   4.592   5.882   9.207 -0.4757  0.4916  1.3153
  138SAPE  H10Y15061   4.466   5.756   9.239  1.0817 -1.0427  2.0838
  138SAPE  C31115062   4.550   5.746   9.035  1.1444 -0.2178 -0.4618
  138SAPE  H11X15063   4.648   5.709   8.998  1.1364 -1.1998  0.4931
  138SAPE  H11Y15064   4.523   5.840   8.982 -0.9411  0.6236  2.0195
  138SAPE  C31215065   4.440   5.639   8.996 -0.5980 -0.3300  0.6989
  138SAPE  H12X15066   4.339   5.676   9.021 -0.3623 -0.2034  1.4773
  138SAPE  H12Y15067   4.462   5.556   9.066  2.9652 -0.1015 -0.0199
  138SAPE  C31315068   4.443   5.598   8.842 -0.8394  0.5280 -0.3283
  138SAPE  H13X15069   4.542   5.556   8.813 -1.9462 -1.2719 -1.5839
  138SAPE  H13Y15070   4.417   5.683   8.774 -0.6610  1.8436  1.2094
  138SAPE  C31415071   4.326   5.498   8.809 -0.0602 -0.0284 -0.3795
  138SAPE  H14X15072   4.234   5.546   8.848 -0.3590  0.2345 -1.4109
  138SAPE  H14Y15073   4.341   5.403   8.865  0.5196 -0.6145 -1.5277
  138SAPE  C31515074   4.318   5.466   8.654 -0.3183 -0.2647  0.1171
  138SAPE  H15X15075   4.250   5.379   8.643  0.0297 -0.7355  1.5805
  138SAPE  H15Y15076   4.421   5.453   8.614  0.1172  0.7522  0.8765
  138SAPE  C31615077   4.256   5.586   8.581  0.4732 -0.0228 -0.4221
  138SAPE  H16X15078   4.324   5.673   8.568 -1.5520  1.4873 -1.0705
  138SAPE  H16Y15079   4.172   5.612   8.650  0.6949 -0.4204  0.0053
  138SAPE  C31715080   4.187   5.561   8.444 -0.4345 -0.5984 -0.5924
  138SAPE  H17X15081   4.106   5.485   8.448 -0.7019 -0.2313  1.3584
  138SAPE  H17Y15082   4.269   5.536   8.374  0.3836 -1.9762  0.8267
  138SAPE  C31815083   4.114   5.685   8.393  0.3352 -0.0596  0.7261
  138SAPE  H18X15084   4.007   5.682   8.425  0.3028  1.9271  0.8526
  138SAPE  H18Y15085   4.105   5.668   8.284 -0.3005 -0.8870  0.8992
  138SAPE  H18Z15086   4.162   5.784   8.402 -0.8886  0.6984 -0.9862
  139SAPE     N15087   4.158   4.247  10.783  0.4294 -0.2708  0.0746
  139SAPE   HN115088   4.149   4.319  10.708 -1.0464 -1.8951 -1.3592
  139SAPE   HN215089   4.237   4.278  10.842 -0.2756 -0.8702  1.3639
  139SAPE   HN315090   4.208   4.170  10.734 -1.5858 -0.2425 -2.1194
  139SAPE   C1215091   4.035   4.207  10.858  0.2328 -0.6395 -0.0506
  139SAPE  H12A15092   4.020   4.273  10.946  0.4860 -0.9390  0.2190
  139SAPE  H12B15093   4.055   4.104  10.894  3.2552 -0.5941 -1.4365
  139SAPE   C1115094   3.909   4.201  10.761 -0.0069 -0.2982  0.5710
  139SAPE  H11A15095   3.819   4.188  10.825  0.0518 -1.7152  0.3658
  139SAPE  H11B15096   3.928   4.117  10.691 -1.5766  0.0764 -0.3073
  139SAPE     P15097   3.898   4.350  10.546 -0.1911 -0.1218  0.1390
  139SAPE   O1315098   3.860   4.494  10.530 -0.4534 -0.2872  0.2977
  139SAPE   O1415099   4.036   4.313  10.504  0.1087 -0.4554 -0.3247
  139SAPE   O1215100   3.880   4.326  10.698 -0.1292 -0.3359 -0.1302
  139SAPE   O1115101   3.783   4.251  10.495  0.0950  0.1340  0.6170
  139SAPE    C115102   3.652   4.265  10.557  0.1739 -0.5745  0.1691
  139SAPE    HA15103   3.653   4.233  10.663  1.8530 -1.1017  0.0236
  139SAPE    HB15104   3.621   4.371  10.555 -0.9575 -0.8652  1.8594
  139SAPE    C215105   3.537   4.182  10.492  0.1487 -0.9746  0.0274
  139SAPE    HS15106   3.579   4.079  10.492 -0.6557 -1.3630 -3.4638
  139SAPE   O2115107   3.519   4.243  10.357  0.3813  0.6397 -0.0626
  139SAPE   C2115108   3.469   4.157  10.265 -0.7419  0.4063  0.6072
  139SAPE   O2215109   3.436   4.042  10.289 -0.9329  0.1069  0.5256
  139SAPE   C2215110   3.430   4.227  10.135  0.3801 -0.0218  0.2665
  139SAPE   H2R15111   3.352   4.296  10.174 -0.9425 -0.6808 -1.1319
  139SAPE   H2S15112   3.520   4.274  10.090  0.6626  0.7574  1.6436
  139SAPE    C315113   3.404   4.200  10.570 -0.3018 -0.5904  0.3282
  139SAPE    HX15114   3.332   4.135  10.516 -2.0836  1.8859 -0.3523
  139SAPE    HY15115   3.366   4.302  10.550  2.7101  0.4873 -0.1412
  139SAPE   O3115116   3.416   4.168  10.712 -0.0508 -0.1279  0.5139
  139SAPE   C3115117   3.374   4.254  10.805 -0.4565 -0.2004  0.4766
  139SAPE   O3215118   3.326   4.368  10.792  0.1643  0.5750 -0.4675
  139SAPE   C3215119   3.364   4.176  10.934 -0.4057  1.1568 -0.2774
  139SAPE   H2X15120   3.325   4.075  10.907  1.5655  0.8462 -2.0721
  139SAPE   H2Y15121   3.287   4.236  10.988 -1.1169  0.9200 -1.0169
  139SAPE   C2315122   3.362   4.130  10.027 -0.1182 -0.7427  0.3582
  139SAPE   H3R15123   3.276   4.080  10.077 -0.8202 -1.6816 -1.7415
  139SAPE   H3S15124   3.442   4.058   9.998 -0.1516 -0.7256  0.2299
  139SAPE   C2415125   3.311   4.211   9.900  0.2326  0.8842  0.1643
  139SAPE   H4R15126   3.384   4.290   9.873  1.2370 -0.0626  0.0790
  139SAPE   H4S15127   3.215   4.262   9.923 -0.5599  0.0764 -1.2603
  139SAPE   C2515128   3.279   4.132   9.775 -0.0136 -0.4426  0.9791
  139SAPE   H5R15129   3.192   4.065   9.779 -0.7516  0.2721 -1.7447
  139SAPE   C2615130   3.336   4.145   9.650  0.3344 -0.0331 -0.3321
  139SAPE   H6R15131   3.304   4.074   9.572  0.6002 -0.9035  0.3424
  139SAPE   C2715132   3.444   4.246   9.607 -0.2919 -0.5428 -0.8200
  139SAPE   H7R15133   3.537   4.188   9.627 -0.5721 -0.0823  2.1504
  139SAPE   H7S15134   3.456   4.326   9.683  1.7455 -3.1349  1.7491
  139SAPE   C2815135   3.431   4.308   9.468 -0.3223  0.2603 -0.2300
  139SAPE   H8R15136   3.367   4.397   9.471  0.8744  1.1309 -0.6014
  139SAPE   C2915137   3.449   4.257   9.348 -0.1040 -0.0135  0.7330
  139SAPE   H9R15138   3.440   4.317   9.256 -1.3808 -1.7800 -0.3272
  139SAPE  C21015139   3.488   4.120   9.303  1.0123  0.2360  0.0620
  139SAPE  H10R15140   3.489   4.057   9.395 -0.3707  2.2965  1.5512
  139SAPE  H10S15141   3.592   4.111   9.264  1.0528 -2.2959  0.6350
  139SAPE  C21115142   3.380   4.066   9.206  0.1241 -0.4150  0.2996
  139SAPE  H11R15143   3.284   4.118   9.219  1.0142  0.8221  2.1598
  139SAPE  C21215144   3.396   3.976   9.107  0.0752  0.1901 -0.2783
  139SAPE  H12R15145   3.312   3.952   9.039 -1.3166  0.8183  1.1759
  139SAPE  C21315146   3.529   3.900   9.081  0.2718 -0.3299  0.4966
  139SAPE  H13R15147   3.544   3.804   9.134  0.2688 -0.9282 -0.5882
  139SAPE  H13S15148   3.618   3.962   9.104 -0.5653  1.2052 -0.3455
  139SAPE  C21415149   3.537   3.892   8.931 -0.3119 -0.3728  0.3136
  139SAPE  H14R15150   3.534   3.993   8.889  0.4803  0.1675  1.5563
  139SAPE  C21515151   3.552   3.786   8.843 -0.2669 -0.2323 -0.7052
  139SAPE  H15R15152   3.547   3.803   8.735  1.6263  0.3912 -0.7249
  139SAPE  C21615153   3.567   3.641   8.881 -0.1107 -0.2120  0.0236
  139SAPE  H16R15154   3.609   3.644   8.984 -0.3386 -0.5882  0.1298
  139SAPE  H16S15155   3.647   3.597   8.817  0.2230 -0.3900  0.5593
  139SAPE  C21715156   3.442   3.557   8.875  0.0987  0.3934  0.8414
  139SAPE  H17R15157   3.364   3.600   8.941 -1.0003 -0.2933  0.0111
  139SAPE  H17S15158   3.457   3.452   8.908 -0.6540  0.3265  0.9763
  139SAPE  C21815159   3.386   3.530   8.733  0.0904  0.0980  0.0039
  139SAPE  H18R15160   3.374   3.635   8.699  0.0676 -0.0527 -0.4638
  139SAPE  H18S15161   3.292   3.475   8.756 -0.2493  1.1219  1.0699
  139SAPE  C21915162   3.480   3.454   8.645  0.4455 -0.9559  1.0229
  139SAPE  H19R15163   3.515   3.368   8.705  1.4434 -1.0475  0.3209
  139SAPE  H19S15164   3.564   3.519   8.614  1.3269 -3.0227 -1.0370
  139SAPE  C22015165   3.403   3.399   8.524 -0.3549 -0.5062 -0.1785
  139SAPE  H20R15166   3.469   3.375   8.438 -0.0127  1.1867 -0.4033
  139SAPE  H20S15167   3.330   3.475   8.490 -1.8369 -0.1881  3.5587
  139SAPE  H20T15168   3.358   3.302   8.553 -1.8656  0.2187 -0.0791
  139SAPE   C3315169   3.495   4.172  11.016  0.3761  0.1669  1.1475
  139SAPE   H3X15170   3.471   4.159  11.123 -0.2130 -0.2564  0.9683
  139SAPE   H3Y15171   3.544   4.272  11.012  4.1743 -1.6346  0.0676
  139SAPE   C3415172   3.580   4.063  10.964 -0.5986 -0.2197  0.4394
  139SAPE   H4X15173   3.640   4.114  10.886  1.9758  1.7510  3.5906
  139SAPE   H4Y15174   3.519   3.978  10.928 -2.6323  2.2890 -2.2975
  139SAPE   C3515175   3.677   4.007  11.072  0.4295 -0.2135  0.2829
  139SAPE   H5X15176   3.734   3.919  11.036  1.9764  0.7752  0.2552
  139SAPE   H5Y15177   3.612   3.960  11.149  1.2854 -0.0054  1.1415
  139SAPE   C3615178   3.771   4.119  11.118  0.1495  0.1740 -0.1378
  139SAPE   H6X15179   3.709   4.201  11.159 -0.3486 -0.7503  0.9743
  139SAPE   H6Y15180   3.823   4.159  11.028 -1.8433 -0.0281 -1.3997
  139SAPE   C3715181   3.867   4.083  11.233  0.3677 -0.3564 -0.5266
  139SAPE   H7X15182   3.918   3.989  11.203  1.9890 -0.1368  1.3870
  139SAPE   H7Y15183   3.816   4.058  11.328 -0.1825  2.0959 -0.1171
  139SAPE   C3815184   3.961   4.202  11.265  0.0920  1.1959 -0.0138
  139SAPE   H8X15185   3.888   4.284  11.279 -2.2766 -0.5058 -1.8822
  139SAPE   H8Y15186   4.019   4.228  11.173 -1.8229 -0.0191 -1.6225
  139SAPE   C3915187   4.056   4.169  11.381 -0.1224 -0.1238 -0.1271
  139SAPE   H9X15188   4.139   4.108  11.340  0.4625  1.4472 -1.3638
  139SAPE   H9Y15189   4.014   4.106  11.462 -0.8470 -1.4827 -1.5110
  139SAPE  C31015190   4.096   4.307  11.432 -0.1631 -0.0849  0.3464
  139SAPE  H10X15191   4.127   4.373  11.348 -0.1430 -0.7073 -0.1418
  139SAPE  H10Y15192   4.186   4.272  11.486  1.0002 -2.0278 -2.7376
  139SAPE  C31115193   3.986   4.376  11.519 -0.0791  0.3782  0.2701
  139SAPE  H11X15194   3.935   4.292  11.571 -0.6776 -0.8928 -2.3019
  139SAPE  H11Y15195   3.913   4.427  11.453 -0.6279 -0.6478  0.0863
  139SAPE  C31215196   4.026   4.488  11.617 -0.1402 -0.3856  0.0857
  139SAPE  H12X15197   3.943   4.561  11.624  1.3600  1.5326 -1.4849
  139SAPE  H12Y15198   4.104   4.545  11.563  0.2990  0.0115  1.1373
  139SAPE  C31315199   4.087   4.432  11.747 -0.3247 -0.1587 -0.5460
  139SAPE  H13X15200   4.146   4.516  11.789 -1.6357  0.0505  0.9221
  139SAPE  H13Y15201   4.150   4.341  11.737 -0.8903 -0.4755 -1.2998
  139SAPE  C31415202   3.977   4.403  11.856 -0.4667 -0.4078  0.0235
  139SAPE  H14X15203   3.933   4.303  11.838  2.3309 -1.9964  1.7648
  139SAPE  H14Y15204   3.897   4.480  11.846 -1.8354 -2.1181 -3.0636
  139SAPE  C31515205   4.033   4.413  11.995 -0.1771  0.1384  0.5990
  139SAPE  H15X15206   4.098   4.503  12.001 -0.0447  0.1566 -0.9105
  139SAPE  H15Y15207   4.095   4.323  12.016  0.7491  0.5361 -0.4076
  139SAPE  C31615208   3.923   4.405  12.109  0.4405 -0.1306 -0.3131
  139SAPE  H16X15209   3.967   4.414  12.210  1.7581  1.0824 -0.9810
  139SAPE  H16Y15210   3.867   4.501  12.095  2.2138  1.0940  0.8101
  139SAPE  C31715211   3.832   4.276  12.099  0.3875 -0.1982 -0.6430
  139SAPE  H17X15212   3.760   4.291  12.016 -0.7999 -0.5263  0.3265
  139SAPE  H17Y15213   3.769   4.272  12.190 -1.2746 -0.4904 -1.7868
  139SAPE  C31815214   3.899   4.136  12.078 -0.4291 -0.1678  0.4644
  139SAPE  H18X15215   3.963   4.128  12.168  1.8271 -0.5566 -1.1264
  139SAPE  H18Y15216   3.964   4.122  11.989 -0.1270  1.1747  0.4611
  139SAPE  H18Z15217   3.814   4.065  12.071  0.1465 -0.6288 -2.5986
  140SAPE     N15218   5.776   1.452  10.851  0.1273  0.2275  0.0405
  140SAPE   HN115219   5.680   1.484  10.874 -0.6114 -0.2173 -2.3115
  140SAPE   HN215220   5.804   1.483  10.756 -1.2150 -1.3835 -0.9078
  140SAPE   HN315221   5.781   1.348  10.852 -0.0304  0.1934 -1.5773
  140SAPE   C1215222   5.877   1.502  10.943 -0.0963  0.2265  0.3665
  140SAPE  H12A15223   5.860   1.454  11.042  0.0642  2.6995  1.6187
  140SAPE  H12B15224   5.863   1.611  10.955  0.6884  0.7702 -3.0882
  140SAPE   C1115225   6.025   1.477  10.900  0.3350  0.1098  0.4795
  140SAPE  H11A15226   6.094   1.520  10.975  1.0317 -2.4858  1.3806
  140SAPE  H11B15227   6.047   1.528  10.804 -0.9229  2.2238  1.2744
  140SAPE     P15228   6.164   1.269  10.827 -0.1188 -0.0082 -0.7563
  140SAPE   O1315229   6.286   1.282  10.907 -0.6538  0.4588 -0.2812
  140SAPE   O1415230   6.120   1.130  10.787 -0.1702  0.1061  0.2752
  140SAPE   O1215231   6.050   1.340  10.898  0.2478 -0.0150 -0.3957
  140SAPE   O1115232   6.180   1.359  10.697 -0.0183  0.5221 -0.4485
  140SAPE    C115233   6.174   1.305  10.566  0.4388  0.0204  0.3921
  140SAPE    HA15234   6.262   1.351  10.516  0.0512  1.1814  0.7655
  140SAPE    HB15235   6.199   1.198  10.549  1.1443  0.1005  0.8775
  140SAPE    C215236   6.040   1.344  10.494 -0.0863  0.1119  0.1870
  140SAPE    HS15237   5.958   1.312  10.563  0.7063  0.4899  1.3224
  140SAPE   O2115238   6.051   1.275  10.372 -0.1261 -0.1485  0.1470
  140SAPE   C2115239   5.941   1.220  10.323 -0.6832 -0.5939 -0.1749
  140SAPE   O2215240   5.827   1.237  10.364 -0.2446 -0.1463  0.2252
  140SAPE   C2215241   5.968   1.138  10.191 -0.7653  0.6884  0.9597
  140SAPE   H2R15242   6.069   1.171  10.158 -1.3939  1.3430 -0.2949
  140SAPE   H2S15243   5.971   1.029  10.215  0.2070  0.3989 -0.4310
  140SAPE    C315244   6.016   1.503  10.480  0.0314  0.0620  0.2460
  140SAPE    HX15245   6.110   1.549  10.444 -0.7112  3.2724  2.1736
  140SAPE    HY15246   6.013   1.541  10.585 -0.8795  0.8427 -0.0620
  140SAPE   O3115247   5.910   1.546  10.397 -0.1649 -0.6967 -0.0375
  140SAPE   C3115248   5.791   1.530  10.456 -0.5208  0.5840 -0.2995
  140SAPE   O3215249   5.770   1.492  10.571 -0.0238 -0.1074  0.9615
  140SAPE   C3215250   5.689   1.597  10.362  0.2394  0.3031 -0.4453
  140SAPE   H2X15251   5.730   1.690  10.320  1.2921 -0.2072 -0.5624
  140SAPE   H2Y15252   5.602   1.629  10.423 -0.7914 -1.5421 -0.8945
  140SAPE   C2315253   5.877   1.181  10.077 -0.1925 -0.9491 -0.6639
  140SAPE   H3R15254   5.771   1.172  10.108 -0.9812 -1.2104 -3.3334
  140SAPE   H3S15255   5.885   1.109   9.993  0.1081 -0.2621 -1.2243
  140SAPE   C2415256   5.928   1.319  10.030 -0.5008 -0.2586 -0.3276
  140SAPE   H4R15257   6.035   1.325  10.001  0.2298 -2.8541  1.5996
  140SAPE   H4S15258   5.907   1.391  10.112 -0.1435 -0.1538 -0.3310
  140SAPE   C2515259   5.852   1.367   9.914 -0.1727  0.1847  0.1259
  140SAPE   H5R15260   5.788   1.456   9.928  0.1419  0.3984  0.1996
  140SAPE   C2615261   5.866   1.326   9.782 -0.4347  0.7594 -0.3670
  140SAPE   H6R15262   5.797   1.363   9.704 -0.4399  0.4678 -0.5024
  140SAPE   C2715263   5.954   1.212   9.733 -0.2981  0.2087 -0.8017
  140SAPE   H7R15264   5.892   1.133   9.686 -1.8226  1.4388 -0.9309
  140SAPE   H7S15265   6.007   1.168   9.820 -0.2787 -0.4233 -1.1287
  140SAPE   C2815266   6.065   1.250   9.643  0.2300  0.6016 -0.6425
  140SAPE   H8R15267   6.160   1.255   9.697 -0.2338  1.8137  0.0731
  140SAPE   C2915268   6.054   1.273   9.508  0.6024 -0.1641 -0.7920
  140SAPE   H9R15269   6.142   1.313   9.455  0.2739  4.0281  1.6394
  140SAPE  C21015270   5.924   1.256   9.427 -0.1130 -0.5538 -1.2145
  140SAPE  H10R15271   5.831   1.278   9.485  0.1725 -1.7522 -0.2784
  140SAPE  H10S15272   5.917   1.148   9.400 -0.7267 -0.9544  0.4810
  140SAPE  C21115273   5.920   1.351   9.307 -0.7289 -0.1840  0.0546
  140SAPE  H11R15274   5.894   1.452   9.340  1.6718  0.7462 -0.8099
  140SAPE  C21215275   5.928   1.318   9.172 -0.3665 -0.5850  0.4455
  140SAPE  H12R15276   5.898   1.391   9.096 -0.2846 -1.0380 -0.0225
  140SAPE  C21315277   5.955   1.183   9.120 -0.0816 -0.0625  0.3384
  140SAPE  H13R15278   5.888   1.113   9.175 -0.7515  0.9396  0.8032
  140SAPE  H13S15279   6.059   1.160   9.151 -0.3402  0.2948  1.4769
  140SAPE  C21415280   5.957   1.170   8.973  0.1481 -0.0679  0.2211
  140SAPE  H14R15281   5.860   1.170   8.922  0.9470  1.9819 -1.4079
  140SAPE  C21515282   6.064   1.181   8.894 -0.0128 -0.5302 -0.6263
  140SAPE  H15R15283   6.040   1.184   8.787 -0.0076 -1.2787 -0.6530
  140SAPE  C21615284   6.216   1.202   8.927  0.3455  0.4498 -0.5233
  140SAPE  H16R15285   6.282   1.115   8.905  0.3998  0.9422 -2.3776
  140SAPE  H16S15286   6.231   1.225   9.034  0.0949 -0.2494 -0.3302
  140SAPE  C21715287   6.272   1.325   8.853 -0.4505 -0.2436 -0.1103
  140SAPE  H17R15288   6.196   1.402   8.878 -1.9229 -2.1849  1.5464
  140SAPE  H17S15289   6.273   1.310   8.743 -1.3089 -1.0359 -0.0109
  140SAPE  C21815290   6.418   1.368   8.888  0.1003  0.9379 -0.3658
  140SAPE  H18R15291   6.478   1.274   8.900  0.2178  1.2222  1.3470
  140SAPE  H18S15292   6.445   1.415   8.985 -0.9727  0.9698 -0.0786
  140SAPE  C21915293   6.480   1.458   8.773  0.1557 -0.1357  0.1307
  140SAPE  H19R15294   6.582   1.493   8.799 -0.0866 -0.2280  1.2355
  140SAPE  H19S15295   6.407   1.542   8.763  0.0065 -0.3283 -0.4204
  140SAPE  C22015296   6.475   1.389   8.631  0.1001  0.0672 -0.0679
  140SAPE  H20R15297   6.530   1.447   8.554 -0.5046 -2.3418 -2.4070
  140SAPE  H20S15298   6.371   1.379   8.595  0.2152 -1.5009  0.0075
  140SAPE  H20T15299   6.509   1.283   8.630 -2.9000 -0.9515  0.9355
  140SAPE   C3315300   5.632   1.499  10.255  0.0210 -0.1093  0.2205
  140SAPE   H3X15301   5.628   1.395  10.295  2.6916  0.0129  0.9100
  140SAPE   H3Y15302   5.700   1.509  10.168 -0.7673 -0.6920 -0.4696
  140SAPE   C3415303   5.488   1.539  10.224 -0.7789 -0.7743 -0.1433
  140SAPE   H4X15304   5.432   1.526  10.319  2.7309 -2.3278  1.8055
  140SAPE   H4Y15305   5.457   1.472  10.140  1.6631  1.8385 -3.2742
  140SAPE   C3515306   5.474   1.677  10.157 -0.0842  0.0057 -0.2366
  140SAPE   H5X15307   5.540   1.680  10.068  0.2465 -1.6652 -0.0711
  140SAPE   H5Y15308   5.518   1.753  10.225 -0.4670 -2.3717  2.7970
  140SAPE   C3615309   5.330   1.714  10.115  0.8511  0.0639  1.2034
  140SAPE   H6X15310   5.330   1.815  10.069  0.9969 -1.3864 -2.1198
  140SAPE   H6Y15311   5.256   1.719  10.198 -0.1755 -1.9056  0.4543
  140SAPE   C3715312   5.275   1.635   9.999 -0.6794  0.8707  0.2467
  140SAPE   H7X15313   5.169   1.662   9.981 -1.4022 -0.7297  1.9499
  140SAPE   H7Y15314   5.267   1.527  10.022  0.1524  0.4947 -1.1647
  140SAPE   C3815315   5.351   1.656   9.871  0.3733 -0.0407 -0.9711
  140SAPE   H8X15316   5.444   1.596   9.874  1.2150  1.2014 -1.4886
  140SAPE   H8Y15317   5.388   1.760   9.858  0.4265  0.0337 -0.2072
  140SAPE   C3915318   5.267   1.621   9.755 -0.1096 -0.7702  0.0768
  140SAPE   H9X15319   5.171   1.677   9.748 -0.0556 -0.8413 -1.4680
  140SAPE   H9Y15320   5.226   1.518   9.752 -0.3423 -0.6456 -1.2044
  140SAPE  C31015321   5.350   1.657   9.626 -0.1861  0.6076 -0.6900
  140SAPE  H10X15322   5.395   1.759   9.623  0.1525  0.4589 -0.7620
  140SAPE  H10Y15323   5.280   1.644   9.540 -1.2601  0.1974  0.2369
  140SAPE  C31115324   5.457   1.550   9.612 -0.4911  0.8884 -0.4121
  140SAPE  H11X15325   5.421   1.446   9.625  0.3085  0.8188  1.5874
  140SAPE  H11Y15326   5.521   1.568   9.702 -0.6357 -1.5218  0.2085
  140SAPE  C31215327   5.538   1.573   9.486 -0.1614 -0.0848  0.4848
  140SAPE  H12X15328   5.641   1.532   9.493 -0.0650 -0.2717 -1.5978
  140SAPE  H12Y15329   5.537   1.684   9.477  3.2622 -0.1312 -1.4486
  140SAPE  C31315330   5.475   1.509   9.354  0.1720 -0.7137  0.5241
  140SAPE  H13X15331   5.366   1.531   9.353  0.8659  3.1290  1.7945
  140SAPE  H13Y15332   5.474   1.400   9.371 -1.5391 -1.0449 -1.4514
  140SAPE  C31415333   5.561   1.551   9.236 -0.2727  0.1948 -0.4133
  140SAPE  H14X15334   5.665   1.532   9.269 -0.3219 -2.1720 -1.5233
  140SAPE  H14Y15335   5.554   1.661   9.227  3.2833  0.6272  1.1619
  140SAPE  C31515336   5.554   1.469   9.099  0.5021  0.1619 -0.3033
  140SAPE  H15X15337   5.544   1.359   9.111  1.3744  0.3129  2.0133
  140SAPE  H15Y15338   5.648   1.492   9.044  1.1811  0.2288  0.8658
  140SAPE  C31615339   5.433   1.516   9.015 -0.2398  0.7990 -0.6095
  140SAPE  H16X15340   5.425   1.627   9.017  2.6049  1.0677 -1.3228
  140SAPE  H16Y15341   5.344   1.478   9.069 -0.8241  3.1651  0.1717
  140SAPE  C31715342   5.440   1.445   8.886 -0.4946 -0.3196 -0.5125
  140SAPE  H17X15343   5.476   1.340   8.892 -1.7448 -0.7756 -0.6683
  140SAPE  H17Y15344   5.518   1.493   8.824 -0.2661 -0.9119 -0.6789
  140SAPE  C31815345   5.307   1.445   8.814 -0.1044 -0.2942  0.1117
  140SAPE  H18X15346   5.235   1.399   8.885 -1.1368  3.6487  1.7887
  140SAPE  H18Y15347   5.317   1.388   8.719 -0.6321  0.9499 -0.7003
  140SAPE  H18Z15348   5.271   1.550   8.803  0.4149 -0.2253 -0.9420
  141SAPE     N15349   6.562   2.734  11.369 -0.0460  0.0974 -0.3626
  141SAPE   HN115350   6.565   2.804  11.293  5.6054 -1.0124 -1.3738
  141SAPE   HN215351   6.502   2.783  11.438  1.0207  0.3208  0.4248
  141SAPE   HN315352   6.659   2.726  11.407  0.2646 -1.9102 -1.5030
  141SAPE   C1215353   6.517   2.612  11.301 -0.1495 -0.2793  0.1495
  141SAPE  H12A15354   6.432   2.633  11.233  0.3228 -0.3568 -0.4760
  141SAPE  H12B15355   6.477   2.544  11.378  0.8470 -0.7010  0.2979
  141SAPE   C1115356   6.628   2.538  11.227 -0.1505  0.2861 -0.1116
  141SAPE  H11A15357   6.590   2.440  11.191  2.6081  0.0498 -2.6301
  141SAPE  H11B15358   6.708   2.522  11.302 -1.4927 -1.0770  1.0552
  141SAPE     P15359   6.603   2.604  10.971  0.1370 -0.0551 -0.3726
  141SAPE   O1315360   6.596   2.459  10.954 -0.4464 -0.1739 -0.1163
  141SAPE   O1415361   6.476   2.676  10.951  0.0675  0.3170  0.2786
  141SAPE   O1215362   6.670   2.629  11.120  0.1494  0.1546 -0.3010
  141SAPE   O1115363   6.718   2.654  10.872  0.4032  0.5728 -0.1065
  141SAPE    C115364   6.850   2.602  10.851  0.0788 -0.3002 -0.0154
  141SAPE    HA15365   6.933   2.675  10.866  1.2445 -1.1952 -1.9349
  141SAPE    HB15366   6.868   2.522  10.926 -0.0282  0.1625  0.5097
  141SAPE    C215367   6.864   2.531  10.712  0.0618 -0.3929  0.8189
  141SAPE    HS15368   6.971   2.501  10.702 -0.5452 -1.9930 -1.3214
  141SAPE   O2115369   6.832   2.621  10.604  0.1652 -0.3214  0.3372
  141SAPE   C2115370   6.926   2.707  10.565  0.0639 -0.1608  0.4825
  141SAPE   O2215371   7.037   2.711  10.614 -0.1714  0.0823 -0.2039
  141SAPE   C2215372   6.899   2.771  10.428 -0.3359 -0.4035 -0.7510
  141SAPE   H2R15373   6.919   2.880  10.433 -0.0840 -0.5238  1.9418
  141SAPE   H2S15374   6.968   2.713  10.362  0.3472  0.0231 -0.4236
  141SAPE    C315375   6.779   2.400  10.704 -0.6712  0.1641 -0.2505
  141SAPE    HX15376   6.671   2.429  10.701 -1.0701 -0.8288  2.5422
  141SAPE    HY15377   6.795   2.341  10.797  1.2239  0.5787 -0.2947
  141SAPE   O3115378   6.809   2.316  10.592 -0.0678 -0.6515 -0.0225
  141SAPE   C3115379   6.750   2.196  10.595 -0.0969 -0.5252 -0.3800
  141SAPE   O3215380   6.665   2.159  10.678  0.3088 -0.1326 -0.3040
  141SAPE   C3215381   6.816   2.102  10.486  0.3054 -0.8499 -0.5101
  141SAPE   H2X15382   6.788   1.999  10.516 -1.6122  0.2825  1.7998
  141SAPE   H2Y15383   6.925   2.119  10.496  0.4447 -2.0801  0.1952
  141SAPE   C2315384   6.752   2.765  10.381  0.2617  0.4388  0.6724
  141SAPE   H3R15385   6.691   2.796  10.469 -2.9075 -0.5197 -1.1241
  141SAPE   H3S15386   6.728   2.665  10.340 -0.5742  1.7049 -2.0434
  141SAPE   C2415387   6.736   2.862  10.258  1.0449  0.6274  0.1816
  141SAPE   H4R15388   6.748   2.966  10.294  0.1897  1.8660 -2.9293
  141SAPE   H4S15389   6.628   2.849  10.235  0.5904  2.0303  1.4143
  141SAPE   C2515390   6.827   2.842  10.143  0.2761 -0.0905 -0.2675
  141SAPE   H5R15391   6.929   2.812  10.172  1.5355  1.1966 -3.1900
  141SAPE   C2615392   6.799   2.859  10.012  0.1251  0.1882 -0.4517
  141SAPE   H6R15393   6.878   2.844   9.937  1.2559 -2.1053  1.1184
  141SAPE   C2715394   6.669   2.900   9.958  0.4699 -0.3084 -0.4419
  141SAPE   H7R15395   6.677   2.994   9.900 -0.0125  1.2152  1.9031
  141SAPE   H7S15396   6.602   2.931  10.041  0.5805  0.8388 -0.7704
  141SAPE   C2815397   6.608   2.781   9.882 -0.8882 -0.0666  0.0915
  141SAPE   H8R15398   6.594   2.686   9.936 -2.3444  0.1588  0.1387
  141SAPE   C2915399   6.580   2.782   9.751 -0.1652  0.4001  0.3908
  141SAPE   H9R15400   6.530   2.691   9.715 -0.0788  0.3635  0.3619
  141SAPE  C21015401   6.598   2.887   9.643  0.2990 -0.6895  0.3702
  141SAPE  H10R15402   6.565   2.988   9.675  0.4258 -0.8404  0.9846
  141SAPE  H10S15403   6.537   2.858   9.555  0.1764 -0.5229  0.3987
  141SAPE  C21115404   6.745   2.900   9.604 -0.0141 -0.6002 -0.2075
  141SAPE  H11R15405   6.806   2.925   9.692 -0.5383  1.0316 -0.2939
  141SAPE  C21215406   6.805   2.874   9.481 -0.0603  0.3693 -0.5816
  141SAPE  H12R15407   6.911   2.903   9.479 -0.2975  1.3904  0.5462
  141SAPE  C21315408   6.744   2.819   9.358 -0.0489 -0.5112 -0.3972
  141SAPE  H13R15409   6.774   2.892   9.280  1.3427  0.2425  0.8258
  141SAPE  H13S15410   6.635   2.827   9.376  0.0381 -0.0234 -0.0706
  141SAPE  C21415411   6.781   2.679   9.332  0.6694  0.3630  0.9367
  141SAPE  H14R15412   6.747   2.604   9.405  1.8173 -1.7169 -0.6348
  141SAPE  C21515413   6.857   2.635   9.233  0.1335 -0.4167 -0.0459
  141SAPE  H15R15414   6.890   2.530   9.243 -1.6462 -1.3083 -2.8830
  141SAPE  C21615415   6.927   2.703   9.121 -0.0780  0.4588  1.0922
  141SAPE  H16R15416   7.036   2.698   9.140  0.2210 -0.0732 -0.6696
  141SAPE  H16S15417   6.895   2.809   9.109  1.1339  1.1158  3.3949
  141SAPE  C21715418   6.898   2.633   8.992 -0.6552  0.0813  0.5841
  141SAPE  H17R15419   6.792   2.613   8.966 -0.2931  0.6439 -1.4577
  141SAPE  H17S15420   6.938   2.529   8.991 -1.8648 -0.3890 -0.8778
  141SAPE  C21815421   6.948   2.712   8.866  0.0171 -0.7696 -0.4242
  141SAPE  H18R15422   6.896   2.809   8.852 -0.2346 -1.1492 -2.1967
  141SAPE  H18S15423   6.916   2.649   8.781 -1.7696  1.6813 -1.6308
  141SAPE  C21915424   7.089   2.762   8.868 -0.2464  0.3121 -0.2008
  141SAPE  H19R15425   7.152   2.674   8.897  0.3206  0.9230  0.4503
  141SAPE  H19S15426   7.109   2.834   8.951 -1.2033 -0.3676  0.6382
  141SAPE  C22015427   7.126   2.824   8.734  0.0159  0.7108 -0.7497
  141SAPE  H20R15428   7.130   2.747   8.655  2.1244 -0.4247  0.3995
  141SAPE  H20S15429   7.231   2.860   8.734  0.5216 -0.6478  1.8224
  141SAPE  H20T15430   7.060   2.913   8.723  1.1371  1.6289 -0.3030
  141SAPE   C3315431   6.764   2.134  10.347 -0.3484 -0.5002 -0.1948
  141SAPE   H3X15432   6.766   2.241  10.317  1.9354 -0.4259  0.1674
  141SAPE   H3Y15433   6.656   2.110  10.342 -0.4398 -0.3519  0.9883
  141SAPE   C3415434   6.841   2.052  10.235  0.5259 -0.2323  0.2184
  141SAPE   H4X15435   6.913   1.978  10.276 -0.1816 -0.1324  1.6865
  141SAPE   H4Y15436   6.904   2.123  10.176  1.8221 -1.5364  0.0222
  141SAPE   C3515437   6.737   1.984  10.146  0.5162 -0.4621  0.1754
  141SAPE   H5X15438   6.677   2.054  10.083  1.5441 -1.0541 -1.5197
  141SAPE   H5Y15439   6.668   1.918  10.201 -1.7192  1.2301 -0.5106
  141SAPE   C3615440   6.802   1.885  10.043  0.1906  0.2754  0.2693
  141SAPE   H6X15441   6.831   1.791  10.094 -1.8876 -0.8970 -0.6565
  141SAPE   H6Y15442   6.891   1.926   9.990  0.6089 -1.7534 -0.6369
  141SAPE   C3715443   6.690   1.857   9.938 -1.4198  0.4890 -0.1320
  141SAPE   H7X15444   6.585   1.853   9.973 -0.6729 -1.9627  1.9783
  141SAPE   H7Y15445   6.721   1.759   9.896 -2.4889  0.5850 -1.1448
  141SAPE   C3815446   6.694   1.953   9.822 -0.8382 -0.1202  0.4917
  141SAPE   H8X15447   6.692   2.061   9.849  0.1408  0.1617 -0.4929
  141SAPE   H8Y15448   6.594   1.950   9.775 -0.1814  3.0623 -1.1882
  141SAPE   C3915449   6.798   1.913   9.716  0.8363 -1.0252 -0.2985
  141SAPE   H9X15450   6.795   1.805   9.691 -0.5362 -1.3134  1.0982
  141SAPE   H9Y15451   6.901   1.934   9.753  0.1333  2.6414 -0.2645
  141SAPE  C31015452   6.778   1.994   9.579 -0.1084 -0.1589  0.2633
  141SAPE  H10X15453   6.819   2.097   9.581 -0.1677 -0.1393  0.5504
  141SAPE  H10Y15454   6.670   1.999   9.551  0.2674 -1.1531 -1.4761
  141SAPE  C31115455   6.849   1.909   9.472 -0.2884  0.2034  0.5496
  141SAPE  H11X15456   6.952   1.873   9.493 -0.1982 -0.4301 -0.9676
  141SAPE  H11Y15457   6.855   1.981   9.388  0.8075 -0.7878 -0.2379
  141SAPE  C31215458   6.756   1.795   9.427 -0.3638  0.2626  0.2467
  141SAPE  H12X15459   6.672   1.837   9.368  0.5718  0.6879 -0.8170
  141SAPE  H12Y15460   6.707   1.760   9.520  0.1865  1.5897  1.0510
  141SAPE  C31315461   6.801   1.697   9.325  0.0016 -0.4300  0.1420
  141SAPE  H13X15462   6.896   1.648   9.354  0.6106  1.3360  1.2338
  141SAPE  H13Y15463   6.842   1.753   9.238 -0.2311 -2.1394 -1.0948
  141SAPE  C31415464   6.693   1.609   9.257  1.6036  0.5368 -0.2003
  141SAPE  H14X15465   6.742   1.563   9.169  0.2304 -0.2224 -0.5847
  141SAPE  H14Y15466   6.612   1.670   9.211  1.8950 -0.2085 -1.7478
  141SAPE  C31515467   6.630   1.490   9.340  0.1265 -0.4675  0.1351
  141SAPE  H15X15468   6.605   1.534   9.439  1.8060  1.2323 -0.1706
  141SAPE  H15Y15469   6.711   1.420   9.370  0.9267  0.6231  0.5522
  141SAPE  C31615470   6.512   1.432   9.269 -0.1281 -0.3223  0.7698
  141SAPE  H16X15471   6.525   1.369   9.178 -0.0014  0.7874  0.0069
  141SAPE  H16Y15472   6.438   1.509   9.237 -1.4843 -1.9380 -0.0713
  141SAPE  C31715473   6.433   1.338   9.366 -0.4554 -0.1192  0.4761
  141SAPE  H17X15474   6.376   1.402   9.436  0.0807  1.4314 -0.4764
  141SAPE  H17Y15475   6.503   1.283   9.432  0.8931  0.8070 -0.1555
  141SAPE  C31815476   6.347   1.237   9.282  0.1888 -0.2797 -0.0179
  141SAPE  H18X15477   6.412   1.177   9.215 -2.7128 -1.8993 -1.5325
  141SAPE  H18Y15478   6.268   1.290   9.225  0.7278  1.6072  0.9630
  141SAPE  H18Z15479   6.285   1.176   9.352  1.0052 -2.1513 -0.8981
  142SAPE     N15480   0.482   1.960  11.454  0.3700  0.0902 -0.4646
  142SAPE   HN115481   0.536   1.879  11.492 -0.4372  0.2598  1.1032
  142SAPE   HN215482   0.454   2.032  11.524  1.1456  1.7961 -1.8832
  142SAPE   HN315483   0.395   1.920  11.414 -0.8286 -0.0984  2.1873
  142SAPE   C1215484   0.562   2.028  11.343  0.7714 -0.3105 -1.0026
  142SAPE  H12A15485   0.633   2.099  11.391  0.4076 -1.8451  1.9396
  142SAPE  H12B15486   0.486   2.079  11.280 -0.5587  1.0798  1.6301
  142SAPE   C1115487   0.644   1.924  11.262  0.0367  0.1198 -0.4782
  142SAPE  H11A15488   0.718   1.872  11.327  0.0302 -0.1135 -0.6556
  142SAPE  H11B15489   0.706   1.968  11.180  0.6463  1.4167  0.6558
  142SAPE     P15490   0.568   1.681  11.175  0.1544 -0.3154 -0.3854
  142SAPE   O1315491   0.611   1.611  11.294 -0.1484 -0.4065  0.3383
  142SAPE   O1415492   0.446   1.636  11.110  0.1896 -0.2149 -0.2724
  142SAPE   O1215493   0.556   1.831  11.209 -0.4370 -0.3356  0.5133
  142SAPE   O1115494   0.682   1.678  11.078 -0.0959 -0.1738  0.0337
  142SAPE    C115495   0.712   1.770  10.975 -0.2798 -0.2447 -0.5842
  142SAPE    HA15496   0.663   1.867  10.997  0.5730  0.3788 -1.4225
  142SAPE    HB15497   0.817   1.800  10.994 -0.4993  0.2589 -0.1405
  142SAPE    C215498   0.687   1.722  10.829  0.0368 -0.2913 -0.0774
  142SAPE    HS15499   0.725   1.796  10.756  0.1886 -1.7175 -1.4626
  142SAPE   O2115500   0.544   1.693  10.813  0.2285  0.3280 -0.1710
  142SAPE   C2115501   0.470   1.800  10.788 -0.2653 -0.7207 -0.1700
  142SAPE   O2215502   0.513   1.913  10.757 -0.2855  0.2998  0.0403
  142SAPE   C2215503   0.322   1.763  10.791 -0.1653 -0.1488 -0.0055
  142SAPE   H2R15504   0.308   1.739  10.898 -0.4894 -0.6066 -0.1416
  142SAPE   H2S15505   0.256   1.849  10.767 -1.5489 -0.7776  1.4359
  142SAPE    C315506   0.768   1.589  10.803 -0.2030  0.1571 -0.0408
  142SAPE    HX15507   0.718   1.516  10.870  0.1021  1.3078  1.4762
  142SAPE    HY15508   0.867   1.610  10.850  0.5987 -0.9969 -1.1525
  142SAPE   O3115509   0.783   1.550  10.662  0.4439 -0.1942 -0.0591
  142SAPE   C3115510   0.882   1.600  10.593  0.3093  0.2622 -0.1115
  142SAPE   O3215511   0.950   1.692  10.632 -0.5426  0.2107  0.1477
  142SAPE   C3215512   0.887   1.531  10.460  0.1437  0.2282 -0.3177
  142SAPE   H2X15513   0.876   1.421  10.476  0.8719  0.2395  0.2693
  142SAPE   H2Y15514   0.986   1.538  10.410  0.0986  1.8367 -0.2123
  142SAPE   C2315515   0.285   1.642  10.704 -0.0417  0.3574  0.1004
  142SAPE   H3R15516   0.185   1.609  10.739  0.2271  0.6372  1.1496
  142SAPE   H3S15517   0.355   1.557  10.720  2.1009  2.0190 -0.2153
  142SAPE   C2415518   0.266   1.677  10.563  0.6826  0.1834  0.2883
  142SAPE   H4R15519   0.187   1.753  10.541 -0.3767 -0.9332  0.2007
  142SAPE   H4S15520   0.216   1.595  10.508 -1.6521  1.9574 -0.3421
  142SAPE   C2515521   0.397   1.707  10.486  0.4406  0.2603  0.0393
  142SAPE   H5R15522   0.469   1.624  10.497  2.0384  1.9205  2.4080
  142SAPE   C2615523   0.418   1.803  10.398 -0.7674  0.4250  0.1546
  142SAPE   H6R15524   0.517   1.813  10.352  0.0083 -1.2927  1.4148
  142SAPE   C2715525   0.324   1.922  10.353  0.0055  0.5587  0.5501
  142SAPE   H7R15526   0.236   1.937  10.420  1.9231 -0.3595  3.3572
  142SAPE   H7S15527   0.280   1.889  10.256  0.7867 -0.4272  0.5133
  142SAPE   C2815528   0.390   2.054  10.336 -0.3616 -0.3468  0.0936
  142SAPE   H8R15529   0.393   2.120  10.423  1.0405  1.2111 -1.1185
  142SAPE   C2915530   0.438   2.105  10.223  0.4558 -0.4784 -0.7238
  142SAPE   H9R15531   0.470   2.210  10.225 -0.3958 -0.2287  0.2279
  142SAPE  C21015532   0.442   2.045  10.091 -0.0204 -0.5955  0.3523
  142SAPE  H10R15533   0.386   1.951  10.075 -1.4189  0.1745  0.6377
  142SAPE  H10S15534   0.549   2.020  10.076 -0.6573 -3.4126  0.3602
  142SAPE  C21115535   0.429   2.155   9.984  0.1788 -0.2239  0.1620
  142SAPE  H11R15536   0.405   2.254  10.026 -0.6942 -0.9085  1.2824
  142SAPE  C21215537   0.424   2.138   9.849  0.4735 -0.8907  0.0415
  142SAPE  H12R15538   0.420   2.227   9.784  1.5101 -1.8431 -1.3498
  142SAPE  C21315539   0.432   2.007   9.775 -0.9111 -0.3760  0.4095
  142SAPE  H13R15540   0.342   1.990   9.712 -0.8529 -1.1401  0.5189
  142SAPE  H13S15541   0.455   1.922   9.843  0.3462  0.2362  0.7582
  142SAPE  C21415542   0.555   2.013   9.687  0.4563 -0.1940 -0.3959
  142SAPE  H14R15543   0.649   2.032   9.741 -1.2691 -1.9814  3.4789
  142SAPE  C21515544   0.557   2.006   9.556 -0.6268  0.1827 -0.2104
  142SAPE  H15R15545   0.655   2.013   9.506  1.8769 -1.1070  4.2320
  142SAPE  C21615546   0.448   1.980   9.460  0.0628 -0.0519 -0.0192
  142SAPE  H16R15547   0.418   2.075   9.411  1.6614  0.8551  0.7048
  142SAPE  H16S15548   0.359   1.929   9.503 -1.0449  1.1928 -0.7962
  142SAPE  C21715549   0.489   1.882   9.349 -0.3145  0.2258  0.2202
  142SAPE  H17R15550   0.542   1.796   9.395  2.8651  0.9004 -2.0425
  142SAPE  H17S15551   0.559   1.941   9.288  0.7035 -1.5727 -0.3989
  142SAPE  C21815552   0.373   1.838   9.267  0.0164  0.3479  0.7664
  142SAPE  H18R15553   0.329   1.925   9.215 -0.4577 -1.2230 -1.5310
  142SAPE  H18S15554   0.293   1.798   9.334  0.4800 -0.3982  0.8768
  142SAPE  C21915555   0.390   1.740   9.154  0.4629  0.7295 -0.5788
  142SAPE  H19R15556   0.291   1.697   9.129  1.3848 -0.6090 -2.0139
  142SAPE  H19S15557   0.464   1.660   9.177 -0.2929 -0.2786 -1.6056
  142SAPE  C22015558   0.427   1.806   9.018 -0.4432  0.1491  0.0138
  142SAPE  H20R15559   0.526   1.856   9.015  1.2017 -3.0680 -2.8365
  142SAPE  H20S15560   0.348   1.883   9.006  1.8322  2.4941 -0.1160
  142SAPE  H20T15561   0.427   1.741   8.928  3.1162  1.7511 -1.2001
  142SAPE   C3315562   0.783   1.583  10.358 -0.9426  0.0325 -0.7714
  142SAPE   H3X15563   0.793   1.688  10.322  2.2667 -0.0771 -0.2569
  142SAPE   H3Y15564   0.689   1.591  10.418 -0.8482 -2.3331 -0.2786
  142SAPE   C3415565   0.745   1.492  10.239  0.4260  0.4927 -0.0945
  142SAPE   H4X15566   0.712   1.392  10.275  3.4687 -0.2646  0.8124
  142SAPE   H4Y15567   0.831   1.469  10.172  0.4640 -2.0767  0.7738
  142SAPE   C3515568   0.661   1.568  10.141  0.4718 -0.1792 -0.1770
  142SAPE   H5X15569   0.696   1.671  10.117 -0.1918 -0.1459 -1.0228
  142SAPE   H5Y15570   0.564   1.595  10.187  1.4271  4.3274 -0.5547
  142SAPE   C3615571   0.638   1.492  10.019  0.6020 -0.4372  0.0297
  142SAPE   H6X15572   0.575   1.550   9.948 -0.4609 -1.6373 -0.0317
  142SAPE   H6Y15573   0.584   1.397  10.038 -1.5835  0.2580 -2.3744
  142SAPE   C3715574   0.767   1.451   9.937  0.0141  0.0694  0.0193
  142SAPE   H7X15575   0.820   1.374   9.997 -0.2322  0.1358  0.3230
  142SAPE   H7Y15576   0.842   1.531   9.918  1.0454 -1.0095 -0.5457
  142SAPE   C3815577   0.756   1.377   9.796 -0.9049  0.2872 -0.5662
  142SAPE   H8X15578   0.689   1.289   9.795 -1.3446  0.6264 -0.8892
  142SAPE   H8Y15579   0.859   1.354   9.760 -0.3900 -0.5095  1.3390
  142SAPE   C3915580   0.687   1.470   9.694 -0.0268  0.4705  0.2555
  142SAPE   H9X15581   0.578   1.471   9.716 -0.6765 -3.1873 -2.4161
  142SAPE   H9Y15582   0.698   1.427   9.592 -1.2909  0.0812  0.2827
  142SAPE  C31015583   0.757   1.608   9.683  0.5181 -0.6403  0.7069
  142SAPE  H10X15584   0.865   1.591   9.700  1.1464  1.7266 -0.7296
  142SAPE  H10Y15585   0.716   1.676   9.761 -1.5561 -0.1053 -0.7978
  142SAPE  C31115586   0.735   1.670   9.541  0.5142 -0.0674 -0.3133
  142SAPE  H11X15587   0.733   1.781   9.552 -1.6536 -0.1784  0.6487
  142SAPE  H11Y15588   0.631   1.640   9.517  0.9562 -2.9439  1.2334
  142SAPE  C31215589   0.843   1.633   9.443 -0.6015 -0.5864  0.2080
  142SAPE  H12X15590   0.850   1.523   9.432 -1.7478 -0.5334 -1.1493
  142SAPE  H12Y15591   0.937   1.665   9.492  0.4450 -2.0100 -0.8447
  142SAPE  C31315592   0.843   1.699   9.310 -0.2098  0.9334  0.3431
  142SAPE  H13X15593   0.949   1.700   9.277 -0.6948  0.2808 -1.2691
  142SAPE  H13Y15594   0.800   1.801   9.298  2.2891  2.3021  2.4866
  142SAPE  C31415595   0.777   1.620   9.189 -0.2217  0.5400 -0.0819
  142SAPE  H14X15596   0.668   1.637   9.204 -0.6389 -0.6739 -1.6742
  142SAPE  H14Y15597   0.805   1.513   9.192  2.8421  1.3018  0.5015
  142SAPE  C31515598   0.816   1.687   9.052  0.4607  0.1037  0.5846
  142SAPE  H15X15599   0.799   1.794   9.075  0.3695 -0.2404  2.1627
  142SAPE  H15Y15600   0.742   1.645   8.979 -1.6141  2.8765  1.0074
  142SAPE  C31615601   0.961   1.668   9.011 -0.3627 -0.4003 -0.0536
  142SAPE  H16X15602   0.984   1.560   8.999 -1.1993 -0.6389  0.4283
  142SAPE  H16Y15603   1.030   1.707   9.089 -1.1567  2.4772 -0.7280
  142SAPE  C31715604   0.988   1.747   8.881 -0.2532 -0.4863 -0.0128
  142SAPE  H17X15605   1.095   1.735   8.853  0.2164  0.2563  1.4094
  142SAPE  H17Y15606   0.983   1.857   8.897 -0.3574 -0.0293 -2.9124
  142SAPE  C31815607   0.896   1.716   8.760  0.9694  0.2355  0.4223
  142SAPE  H18X15608   0.889   1.606   8.753  1.1423  0.0111  3.1874
  142SAPE  H18Y15609   0.935   1.759   8.665 -0.1491 -1.3432 -0.7605
  142SAPE  H18Z15610   0.799   1.769   8.770  0.3782 -0.1633 -2.8034
  143SAPE     N15611   2.830   1.964  11.277 -0.6238  0.3796 -0.2549
  143SAPE   HN115612   2.888   1.928  11.198  0.2065 -0.0019  0.5138
  143SAPE   HN215613   2.743   2.005  11.237 -1.1306  0.1316  0.5879
  143SAPE   HN315614   2.880   2.043  11.323  2.7668 -1.8506  0.1193
  143SAPE   C1215615   2.813   1.845  11.368 -0.1756 -0.6127 -0.4748
  143SAPE  H12A15616   2.776   1.870  11.469  0.9069  1.8584 -0.6659
  143SAPE  H12B15617   2.916   1.804  11.368  0.1409  0.1061  2.8361
  143SAPE   C1115618   2.713   1.742  11.306  0.2642 -0.0867 -0.1029
  143SAPE  H11A15619   2.614   1.792  11.308 -0.5446 -1.6453 -0.3145
  143SAPE  H11B15620   2.700   1.657  11.376  1.1680  0.0334  0.2105
  143SAPE     P15621   2.744   1.546  11.141 -0.0804  0.0790 -0.2241
  143SAPE   O1315622   2.865   1.477  11.189  0.4196 -0.4633  0.4277
  143SAPE   O1415623   2.610   1.492  11.195 -0.2366 -0.1936 -0.0009
  143SAPE   O1215624   2.755   1.703  11.175 -0.1268 -0.2700 -0.2260
  143SAPE   O1115625   2.741   1.542  10.983  0.1813 -0.3228  0.4106
  143SAPE    C115626   2.805   1.637  10.898 -0.8587 -0.5975 -0.2673
  143SAPE    HA15627   2.804   1.742  10.934  3.4783 -0.1694 -1.0909
  143SAPE    HB15628   2.910   1.603  10.887 -0.6726 -1.0211  2.4468
  143SAPE    C215629   2.760   1.646  10.746  0.1665 -0.0299  0.7105
  143SAPE    HS15630   2.823   1.730  10.709 -2.3327  1.5463 -0.1250
  143SAPE   O2115631   2.621   1.682  10.737  0.1403 -0.1005 -0.1376
  143SAPE   C2115632   2.584   1.751  10.631 -0.2165 -0.3147 -0.4677
  143SAPE   O2215633   2.653   1.783  10.533  0.3014  0.9366  0.0093
  143SAPE   C2215634   2.448   1.810  10.658 -0.6278  0.3497  0.2769
  143SAPE   H2R15635   2.381   1.722  10.670  0.2445 -0.5464 -1.3262
  143SAPE   H2S15636   2.458   1.865  10.754  2.1812 -1.4767  1.0704
  143SAPE    C315637   2.791   1.504  10.673  0.2669  0.1035 -0.5850
  143SAPE    HX15638   2.726   1.434  10.730  1.1137  1.4536  2.1228
  143SAPE    HY15639   2.896   1.474  10.691 -0.0544  0.5631  2.2626
  143SAPE   O3115640   2.756   1.504  10.535  0.1831 -0.2478  0.8670
  143SAPE   C3115641   2.843   1.558  10.458  0.1156 -0.4033  0.4654
  143SAPE   O3215642   2.948   1.610  10.496  0.4475 -0.4340 -0.5759
  143SAPE   C3215643   2.790   1.553  10.319  0.1175 -1.0823 -0.1624
  143SAPE   H2X15644   2.840   1.640  10.270  0.8350 -1.4469 -0.0858
  143SAPE   H2Y15645   2.680   1.547  10.327 -0.3146 -0.7408 -4.6408
  143SAPE   C2315646   2.378   1.893  10.545 -0.3194 -0.4250  0.5267
  143SAPE   H3R15647   2.381   1.844  10.446 -2.3812 -1.3184  0.8742
  143SAPE   H3S15648   2.421   1.994  10.558 -2.6900  0.7256 -0.3699
  143SAPE   C2415649   2.226   1.911  10.581 -0.1032 -0.1987  0.0003
  143SAPE   H4R15650   2.174   1.996  10.533 -0.9433 -1.5076 -1.4508
  143SAPE   H4S15651   2.212   1.939  10.688 -1.3170 -0.4205 -0.0897
  143SAPE   C2515652   2.160   1.783  10.535 -0.5618 -0.7344  0.2824
  143SAPE   H5R15653   2.122   1.713  10.611 -1.6048  0.6292  1.0513
  143SAPE   C2615654   2.124   1.764  10.409 -0.6857  0.5639  0.1303
  143SAPE   H6R15655   2.050   1.683  10.405 -0.4858  0.3371  0.9448
  143SAPE   C2715656   2.138   1.862  10.294 -0.1243  0.0271  0.5504
  143SAPE   H7R15657   2.233   1.835  10.242  0.2361  2.7994 -0.2995
  143SAPE   H7S15658   2.153   1.967  10.326 -1.4391  0.2661  0.4096
  143SAPE   C2815659   2.023   1.855  10.194 -0.5392 -0.5829  0.0694
  143SAPE   H8R15660   1.969   1.950  10.183  1.7112  0.8022  0.7263
  143SAPE   C2915661   1.994   1.751  10.111  0.3033 -0.4000 -0.3530
  143SAPE   H9R15662   1.916   1.764  10.034  2.0129 -1.4573 -2.3137
  143SAPE  C21015663   2.069   1.625  10.092 -0.4790  0.3211 -0.3016
  143SAPE  H10R15664   2.154   1.604  10.161 -0.1615 -0.9943 -1.0867
  143SAPE  H10S15665   2.109   1.629   9.988  0.4003 -3.1590 -0.1351
  143SAPE  C21115666   1.969   1.517  10.101  0.0862  0.4291 -0.2361
  143SAPE  H11R15667   1.947   1.483  10.203  2.8237 -0.3597  0.1452
  143SAPE  C21215668   1.899   1.460   9.995  0.3111 -0.7041 -0.4088
  143SAPE  H12R15669   1.853   1.364  10.024 -0.5865 -0.2637 -0.3647
  143SAPE  C21315670   1.912   1.494   9.850 -0.0060  0.0071 -0.2792
  143SAPE  H13R15671   1.971   1.421   9.791 -1.9699 -1.8616  0.0006
  143SAPE  H13S15672   1.981   1.578   9.828  2.6712 -1.5284  1.9510
  143SAPE  C21415673   1.774   1.507   9.795  0.7034  0.1376 -0.0828
  143SAPE  H14R15674   1.702   1.558   9.861  0.1773 -0.8450  0.1097
  143SAPE  C21515675   1.713   1.461   9.682 -0.0514  0.0479 -0.4351
  143SAPE  H15R15676   1.610   1.491   9.662 -0.4145 -1.2282 -0.5572
  143SAPE  C21615677   1.769   1.387   9.566 -0.6341  0.9839  0.4262
  143SAPE  H16R15678   1.861   1.433   9.523  1.9805 -1.6279  2.9672
  143SAPE  H16S15679   1.697   1.397   9.483 -0.6627  1.8110  0.5504
  143SAPE  C21715680   1.801   1.239   9.601 -0.3171  0.0260 -0.2238
  143SAPE  H17R15681   1.716   1.189   9.652  0.9994 -0.9149  1.0985
  143SAPE  H17S15682   1.894   1.232   9.661  1.2466 -0.8916 -2.7094
  143SAPE  C21815683   1.827   1.166   9.475 -0.6661  0.7995 -0.1505
  143SAPE  H18R15684   1.894   1.225   9.410  0.9086 -1.5490 -0.7495
  143SAPE  H18S15685   1.730   1.174   9.423  0.5625  0.4243 -2.5593
  143SAPE  C21915686   1.883   1.020   9.487 -0.1177  0.6201  0.1137
  143SAPE  H19R15687   1.979   1.026   9.542 -0.3030 -1.3950  0.6978
  143SAPE  H19S15688   1.898   0.977   9.385  1.0640  1.3785 -0.0413
  143SAPE  C22015689   1.805   0.920   9.568  0.2954 -0.0377 -0.2571
  143SAPE  H20R15690   1.863   0.826   9.586 -0.6214 -0.5112  0.2978
  143SAPE  H20S15691   1.715   0.885   9.513  1.0003 -1.5660 -0.4681
  143SAPE  H20T15692   1.768   0.965   9.662 -1.3846 -0.7280 -0.5648
  143SAPE   C3315693   2.853   1.433  10.242  0.6171  0.1996 -0.1387
  143SAPE   H3X15694   2.834   1.336  10.293 -0.0184 -0.6005 -1.8343
  143SAPE   H3Y15695   2.963   1.439  10.246  0.4634  2.3671  1.6119
  143SAPE   C3415696   2.802   1.429  10.095  0.3560 -0.1131 -0.1665
  143SAPE   H4X15697   2.847   1.513  10.037  0.1465  0.3327  0.3061
  143SAPE   H4Y15698   2.694   1.455  10.086  0.8171  2.5204  1.2546
  143SAPE   C3515699   2.842   1.298  10.022 -0.4357  0.1639 -0.3625
  143SAPE   H5X15700   2.796   1.210  10.072 -1.8448  2.4204  2.5021
  143SAPE   H5Y15701   2.952   1.287  10.030 -0.7551 -1.6610  2.2351
  143SAPE   C3615702   2.787   1.287   9.876 -0.0000 -0.2531  0.6698
  143SAPE   H6X15703   2.809   1.387   9.831  0.7499 -0.9003 -0.4174
  143SAPE   H6Y15704   2.677   1.272   9.884 -0.0826  0.3396  0.7043
  143SAPE   C3715705   2.847   1.174   9.802 -0.0206  0.5633  0.2136
  143SAPE   H7X15706   2.844   1.080   9.861  4.0135 -0.2208 -0.7095
  143SAPE   H7Y15707   2.956   1.184   9.784  0.4925 -0.9777  2.2191
  143SAPE   C3815708   2.786   1.160   9.659 -0.2042 -0.0336 -0.4569
  143SAPE   H8X15709   2.841   1.238   9.602 -0.3680  2.0849  2.1689
  143SAPE   H8Y15710   2.679   1.189   9.669 -0.3357 -0.9696  1.0623
  143SAPE   C3915711   2.798   1.011   9.604  0.7834  0.4378 -0.0801
  143SAPE   H9X15712   2.798   0.933   9.683 -0.5013  2.0786  1.5921
  143SAPE   H9Y15713   2.896   1.012   9.551 -0.7500 -1.4571 -3.1096
  143SAPE  C31015714   2.686   0.970   9.504  0.1665 -0.0299  0.5733
  143SAPE  H10X15715   2.597   0.956   9.570  0.2482  1.0166  0.9002
  143SAPE  H10Y15716   2.716   0.873   9.459  1.2068  0.5953 -0.0947
  143SAPE  C31115717   2.662   1.067   9.401 -0.2399  0.2975  0.5468
  143SAPE  H11X15718   2.753   1.108   9.352 -0.5216 -1.1683 -1.2564
  143SAPE  H11Y15719   2.610   1.147   9.458 -0.5845  0.5442 -0.1004
  143SAPE  C31215720   2.568   1.028   9.285  0.3884  0.3606  0.0786
  143SAPE  H12X15721   2.574   1.111   9.211 -0.3561  1.2564  1.0071
  143SAPE  H12Y15722   2.471   1.007   9.335  0.0977  1.2322 -0.1067
  143SAPE  C31315723   2.616   0.907   9.202  0.8335 -0.0577 -0.0738
  143SAPE  H13X15724   2.614   0.815   9.264  0.4033  1.3631  2.0825
  143SAPE  H13Y15725   2.713   0.940   9.159  0.1481  1.5245 -0.4295
  143SAPE  C31415726   2.522   0.888   9.083  0.1737  0.4306 -0.0660
  143SAPE  H14X15727   2.561   0.801   9.026 -0.4060 -0.5922  1.0773
  143SAPE  H14Y15728   2.526   0.968   9.006 -2.2276 -0.3336 -1.0144
  143SAPE  C31515729   2.380   0.856   9.115  1.1243  0.3537  0.3569
  143SAPE  H15X15730   2.318   0.946   9.136  0.5481 -0.6460  3.2332
  143SAPE  H15Y15731   2.385   0.809   9.215 -0.2706  1.8830  1.1741
  143SAPE  C31615732   2.320   0.749   9.020  0.1372 -0.5492 -0.1164
  143SAPE  H16X15733   2.323   0.785   8.915  0.3231  1.9503  0.7296
  143SAPE  H16Y15734   2.214   0.728   9.047 -1.0830  0.1463 -4.0400
  143SAPE  C31715735   2.388   0.612   9.039  0.3162 -0.1754  0.4750
  143SAPE  H17X15736   2.439   0.606   9.137  0.6000 -1.6140  0.2408
  143SAPE  H17Y15737   2.460   0.590   8.957  1.6811  1.9758  1.0645
  143SAPE  C31815738   2.283   0.493   9.044 -0.3712 -0.1051  0.6195
  143SAPE  H18X15739   2.345   0.402   9.057 -1.4635 -0.6357  2.3057
  143SAPE  H18Y15740   2.229   0.486   8.947  1.3602 -1.2683 -0.2813
  143SAPE  H18Z15741   2.202   0.508   9.118  0.4476 -2.5070  2.0350
  144SAPE     N15742   6.123   5.422  10.996  0.6237  0.4324  0.5776
  144SAPE   HN115743   6.057   5.383  10.925 -0.3227  1.3591  0.9229
  144SAPE   HN215744   6.209   5.372  10.966  0.9694  0.0204  2.2313
  144SAPE   HN315745   6.099   5.388  11.091  1.8398 -0.3895  0.6000
  144SAPE   C1215746   6.129   5.569  10.979  0.0162 -0.0232  0.1169
  144SAPE  H12A15747   6.145   5.584  10.871 -1.6556 -0.2905 -0.1867
  144SAPE  H12B15748   6.211   5.613  11.039 -1.9110  1.5528  1.6878
  144SAPE   C1115749   5.993   5.638  11.019 -0.2803 -0.2880 -0.0346
  144SAPE  H11A15750   5.995   5.738  10.970  1.5408 -0.2970 -0.0226
  144SAPE  H11B15751   6.004   5.649  11.129 -0.7665  4.3128 -0.3495
  144SAPE     P15752   5.739   5.636  10.981  0.3375 -0.3448 -0.3638
  144SAPE   O1315753   5.626   5.536  10.967 -0.4975  0.2881  0.1042
  144SAPE   O1415754   5.737   5.740  11.093 -0.1349 -0.0742  0.0801
  144SAPE   O1215755   5.880   5.559  10.972  0.0131  0.2128 -0.0168
  144SAPE   O1115756   5.753   5.717  10.841 -0.2277  0.5395 -0.3752
  144SAPE    C115757   5.763   5.639  10.723  0.5591  0.5794  0.6243
  144SAPE    HA15758   5.872   5.622  10.713  1.2047  2.6778  3.2165
  144SAPE    HB15759   5.714   5.540  10.715  0.7843  0.6551 -1.8603
  144SAPE    C215760   5.700   5.708  10.604 -0.4323  0.2042 -1.5726
  144SAPE    HS15761   5.698   5.629  10.526  0.9335  0.1243 -1.5378
  144SAPE   O2115762   5.772   5.823  10.565 -0.2328  0.0030 -0.3345
  144SAPE   C2115763   5.740   5.863  10.443 -0.0571  0.2893 -0.1490
  144SAPE   O2215764   5.697   5.791  10.351  0.0901 -0.1683 -0.0026
  144SAPE   C2215765   5.773   6.013  10.427  0.6802  0.5268 -0.3519
  144SAPE   H2R15766   5.687   6.081  10.444 -0.0629  0.2078 -2.7314
  144SAPE   H2S15767   5.856   6.018  10.501 -0.6113 -0.5844  1.2190
  144SAPE    C315768   5.555   5.750  10.639  0.9272 -0.3080 -0.5710
  144SAPE    HX15769   5.553   5.822  10.724  0.7527 -1.3935  0.3635
  144SAPE    HY15770   5.507   5.657  10.676 -0.4065  0.1050 -1.2519
  144SAPE   O3115771   5.478   5.813  10.533  0.3634  0.4319 -0.3809
  144SAPE   C3115772   5.414   5.722  10.454 -0.4440  0.1863 -0.0307
  144SAPE   O3215773   5.395   5.603  10.483  0.2945  0.4078 -0.6045
  144SAPE   C3215774   5.355   5.795  10.335  0.1906  0.4702 -0.1378
  144SAPE   H2X15775   5.441   5.861  10.308  0.9789 -0.6653 -0.4399
  144SAPE   H2Y15776   5.261   5.844  10.369 -0.2629 -0.9481  0.7026
  144SAPE   C2315777   5.839   6.049  10.295  0.1389 -0.1589 -0.2995
  144SAPE   H3R15778   5.921   5.982  10.260  1.4433  1.9316 -1.3796
  144SAPE   H3S15779   5.890   6.147  10.307  1.8866 -0.7607 -2.3656
  144SAPE   C2415780   5.736   6.072  10.178 -0.7792 -0.3203  0.2932
  144SAPE   H4R15781   5.661   6.143  10.218  0.1349  1.0261 -0.3337
  144SAPE   H4S15782   5.691   5.975  10.148  0.4518 -1.0697  0.7926
  144SAPE   C2515783   5.791   6.143  10.056 -0.1454  0.1193 -0.1621
  144SAPE   H5R15784   5.824   6.246  10.076 -1.8169  0.5092  0.6921
  144SAPE   C2615785   5.793   6.105   9.930  0.1238  0.0862 -0.0785
  144SAPE   H6R15786   5.823   6.184   9.858 -1.2608 -2.2418 -3.3349
  144SAPE   C2715787   5.744   5.974   9.871 -0.3062  0.7889 -0.5338
  144SAPE   H7R15788   5.668   5.975   9.790 -0.7124  3.7715 -0.1986
  144SAPE   H7S15789   5.700   5.918   9.956  1.5506  0.8859  0.5219
  144SAPE   C2815790   5.867   5.905   9.826 -1.0593 -0.3959  0.7564
  144SAPE   H8R15791   5.927   5.867   9.910  0.2459  2.9167  1.4267
  144SAPE   C2915792   5.902   5.879   9.696  0.1630  0.3227  0.3919
  144SAPE   H9R15793   5.996   5.825   9.679 -0.2615 -0.0655 -0.7980
  144SAPE  C21015794   5.829   5.917   9.567  0.4932 -0.0165 -0.0248
  144SAPE  H10R15795   5.749   5.988   9.598  1.1114 -0.2631  2.2787
  144SAPE  H10S15796   5.783   5.828   9.519  0.2309 -1.6371  3.0915
  144SAPE  C21115797   5.902   5.977   9.457  0.2151 -0.4221 -0.2828
  144SAPE  H11R15798   6.010   5.987   9.476 -0.2019  1.4634  1.2108
  144SAPE  C21215799   5.861   6.009   9.326  0.5108  0.5102  0.4005
  144SAPE  H12R15800   5.941   6.038   9.256 -1.4788 -0.8430 -2.5173
  144SAPE  C21315801   5.718   5.991   9.282  0.9116  0.2118  0.0608
  144SAPE  H13R15802   5.694   6.063   9.201 -0.3537 -0.6002 -0.3064
  144SAPE  H13S15803   5.654   6.003   9.371  2.2505  0.1122  1.0506
  144SAPE  C21415804   5.671   5.860   9.228  0.3267 -0.0398 -0.2210
  144SAPE  H14R15805   5.719   5.772   9.272  0.4589  0.6440  1.0205
  144SAPE  C21515806   5.580   5.841   9.136  0.0190  0.3491  0.2090
  144SAPE  H15R15807   5.556   5.737   9.109 -1.6327  0.6520  0.4562
  144SAPE  C21615808   5.501   5.943   9.059 -0.0324  0.1070  0.5234
  144SAPE  H16R15809   5.546   6.045   9.060 -0.9192  0.6029 -3.1586
  144SAPE  H16S15810   5.399   5.932   9.103 -0.3739 -0.0832 -0.3053
  144SAPE  C21715811   5.473   5.902   8.908  0.2274 -0.5684 -0.2365
  144SAPE  H17R15812   5.418   5.805   8.912  0.4444 -0.7319 -1.0967
  144SAPE  H17S15813   5.570   5.882   8.858  0.0889 -1.2170 -0.2500
  144SAPE  C21815814   5.392   6.011   8.841  0.0418  0.5172  0.3831
  144SAPE  H18R15815   5.445   6.109   8.838 -1.7516  1.4694 -0.5117
  144SAPE  H18S15816   5.295   6.032   8.891  0.1622  2.0133  0.0215
  144SAPE  C21915817   5.357   5.943   8.707 -0.3675 -0.5254 -0.1287
  144SAPE  H19R15818   5.312   5.845   8.732 -1.5557  0.1010  0.2080
  144SAPE  H19S15819   5.451   5.921   8.653 -0.6293 -0.4828 -0.5961
  144SAPE  C22015820   5.254   6.009   8.631  0.4984  0.7668  0.1428
  144SAPE  H20R15821   5.147   5.997   8.658 -0.1331 -1.0240 -2.8933
  144SAPE  H20S15822   5.252   5.968   8.528  0.6666  1.6506 -0.2178
  144SAPE  H20T15823   5.270   6.119   8.619 -0.0122  0.9215  0.8229
  144SAPE   C3315824   5.344   5.705  10.206 -0.4284  0.3427  0.3087
  144SAPE   H3X15825   5.253   5.641  10.198  0.1406 -0.2114 -1.7780
  144SAPE   H3Y15826   5.434   5.640  10.205  0.0008  0.9142  0.9306
  144SAPE   C3415827   5.352   5.790  10.079 -1.1259 -0.6623 -0.5281
  144SAPE   H4X15828   5.433   5.865  10.073  0.4065 -2.1800  0.6993
  144SAPE   H4Y15829   5.267   5.861  10.070 -1.0944 -0.2568  1.9460
  144SAPE   C3515830   5.357   5.714   9.940 -0.5309  0.2288 -0.1145
  144SAPE   H5X15831   5.265   5.654   9.923  1.1083 -2.2983 -0.3399
  144SAPE   H5Y15832   5.445   5.648   9.959  1.2367  2.6047  0.1335
  144SAPE   C3615833   5.377   5.803   9.820 -0.2618 -0.0572 -0.3651
  144SAPE   H6X15834   5.477   5.851   9.823  1.0317 -2.6851  1.0962
  144SAPE   H6Y15835   5.300   5.883   9.822  1.8266  2.0117 -0.9495
  144SAPE   C3715836   5.352   5.735   9.685  0.1758 -0.1610  0.8959
  144SAPE   H7X15837   5.271   5.659   9.688 -0.2338  0.3190  2.0988
  144SAPE   H7Y15838   5.444   5.680   9.657 -1.2364 -1.3271 -1.6122
  144SAPE   C3815839   5.318   5.826   9.567  0.7162  0.6287  0.5785
  144SAPE   H8X15840   5.403   5.895   9.549  0.3222  0.9702  0.0492
  144SAPE   H8Y15841   5.222   5.874   9.593  0.1512  0.1736 -0.6451
  144SAPE   C3915842   5.285   5.752   9.440 -0.0904 -0.0103 -0.2209
  144SAPE   H9X15843   5.230   5.662   9.475 -1.3416  0.7716 -0.1383
  144SAPE   H9Y15844   5.374   5.718   9.383 -2.4156 -1.3856 -3.1581
  144SAPE  C31015845   5.202   5.843   9.335 -0.2502 -0.0794  0.1542
  144SAPE  H10X15846   5.273   5.921   9.298 -2.6471  1.8326 -0.5237
  144SAPE  H10Y15847   5.128   5.901   9.395 -0.5799  0.9941 -1.2592
  144SAPE  C31115848   5.139   5.759   9.226  0.4949  0.2226 -0.0397
  144SAPE  H11X15849   5.047   5.711   9.267  0.0561  0.8399 -0.2899
  144SAPE  H11Y15850   5.212   5.683   9.191  0.8122  0.4396  0.1498
  144SAPE  C31215851   5.102   5.832   9.100  0.6410  0.4431  0.4105
  144SAPE  H12X15852   5.191   5.849   9.036 -0.2355  1.9981 -0.4394
  144SAPE  H12Y15853   5.069   5.936   9.125 -1.2395  0.1103 -0.5666
  144SAPE  C31315854   5.004   5.748   9.006 -0.3300  0.3117 -0.5053
  144SAPE  H13X15855   4.913   5.733   9.068  0.1000 -3.4569 -0.6877
  144SAPE  H13Y15856   5.046   5.648   8.982 -3.0861 -0.9382 -0.3263
  144SAPE  C31415857   4.980   5.820   8.872  0.1704 -0.2124  0.0631
  144SAPE  H14X15858   5.070   5.875   8.837 -0.5108  0.3561 -0.8128
  144SAPE  H14Y15859   4.910   5.905   8.892  1.6631  0.9435  0.5043
  144SAPE  C31515860   4.939   5.731   8.757  0.0814  0.1853  0.0395
  144SAPE  H15X15861   4.852   5.672   8.794  0.1458  0.1810  0.1794
  144SAPE  H15Y15862   5.021   5.662   8.725  0.0779 -0.2914  1.0398
  144SAPE  C31615863   4.896   5.815   8.633  0.0771  0.5996 -0.5991
  144SAPE  H16X15864   4.975   5.877   8.584  1.1996 -0.4919 -0.1731
  144SAPE  H16Y15865   4.820   5.887   8.670 -0.5883 -0.5681  0.2968
  144SAPE  C31715866   4.841   5.703   8.531  0.6135 -0.1325  0.6038
  144SAPE  H17X15867   4.918   5.623   8.527  0.3927 -0.2877 -1.2270
  144SAPE  H17Y15868   4.848   5.732   8.424  1.8749 -3.0486 -0.1587
  144SAPE  C31815869   4.710   5.640   8.565 -0.4356  0.0552 -0.6654
  144SAPE  H18X15870   4.710   5.616   8.674  1.5747  1.8543 -0.2257
  144SAPE  H18Y15871   4.699   5.545   8.508  2.4049 -1.5854  1.3540
  144SAPE  H18Z15872   4.623   5.705   8.541  0.9149  1.0608 -3.0185
  145SAPE     N15873   1.854   1.162  11.106  0.9535  0.3872 -0.3771
  145SAPE   HN115874   1.847   1.229  11.026 -1.2151  0.1687 -0.4167
  145SAPE   HN215875   1.766   1.181  11.160 -0.9790 -0.5176 -3.0947
  145SAPE   HN315876   1.936   1.181  11.167  0.3730 -0.6966  0.7793
  145SAPE   C1215877   1.843   1.021  11.060 -0.4222  0.2132  0.6562
  145SAPE  H12A15878   1.932   1.003  10.996 -1.0886 -1.2903  0.1556
  145SAPE  H12B15879   1.746   1.004  11.009 -0.7909  1.1134  1.0366
  145SAPE   C1115880   1.849   0.927  11.181 -0.0406 -0.1980 -0.1871
  145SAPE  H11A15881   1.822   0.824  11.148 -0.0416 -0.9125  1.9557
  145SAPE  H11B15882   1.771   0.962  11.252  1.8063  1.9653  0.8615
  145SAPE     P15883   2.081   0.801  11.214  0.1853  0.2813 -0.0511
  145SAPE   O1315884   2.173   0.804  11.331  0.0708 -0.5581 -0.4029
  145SAPE   O1415885   2.016   0.668  11.195 -0.1913 -0.4738  0.7118
  145SAPE   O1215886   1.975   0.916  11.245 -0.5060  0.0309  0.7790
  145SAPE   O1115887   2.153   0.855  11.085 -0.4735  0.2784 -0.3009
  145SAPE    C115888   2.210   0.979  11.087 -0.0450 -0.9944  0.8637
  145SAPE    HA15889   2.133   1.059  11.091 -0.0881 -0.8443 -2.1367
  145SAPE    HB15890   2.287   0.990  11.166 -0.0975  0.5252  0.7114
  145SAPE    C215891   2.307   1.004  10.967  0.3022 -0.4686  0.6534
  145SAPE    HS15892   2.339   1.110  10.970  1.1732 -0.7243  0.6349
  145SAPE   O2115893   2.242   0.974  10.840 -0.2510 -0.5561  0.3071
  145SAPE   C2115894   2.144   1.065  10.800  0.8027  0.7230  0.2222
  145SAPE   O2215895   2.106   1.163  10.864  0.3198  0.1023 -0.0596
  145SAPE   C2215896   2.078   1.017  10.669 -0.3480  0.1534  0.3444
  145SAPE   H2R15897   2.162   1.049  10.604  0.5314 -3.1712 -0.2638
  145SAPE   H2S15898   2.077   0.906  10.671  0.3747  0.1670  1.4399
  145SAPE    C315899   2.444   0.923  10.962 -0.1893  0.6968  0.2893
  145SAPE    HX15900   2.416   0.816  10.953 -1.0213  0.9717 -0.4874
  145SAPE    HY15901   2.496   0.932  11.060  1.0712 -0.0402 -0.3133
  145SAPE   O3115902   2.527   0.965  10.857  0.0049  0.3771  0.4966
  145SAPE   C3115903   2.608   0.874  10.805 -0.2720 -0.0067  0.7412
  145SAPE   O3215904   2.639   0.770  10.865  0.3281 -0.2643 -0.1812
  145SAPE   C3215905   2.664   0.914  10.662 -0.0264 -0.2315  0.1449
  145SAPE   H2X15906   2.658   1.024  10.654  1.6493 -0.0940  0.5820
  145SAPE   H2Y15907   2.592   0.881  10.584  0.4973 -0.0374 -0.4188
  145SAPE   C2315908   1.939   1.066  10.623  0.9472  0.4688  0.4042
  145SAPE   H3R15909   1.869   1.045  10.707 -0.4103  1.7702 -0.3870
  145SAPE   H3S15910   1.891   1.013  10.538 -0.0893  0.2205  1.1385
  145SAPE   C2415911   1.934   1.213  10.588 -0.9828 -0.1295 -0.0841
  145SAPE   H4R15912   1.968   1.277  10.672 -3.2557  1.5742 -0.4075
  145SAPE   H4S15913   1.828   1.244  10.577 -0.7070 -0.5756 -5.2529
  145SAPE   C2515914   2.010   1.237  10.458  0.2081 -0.7616  0.5819
  145SAPE   H5R15915   1.979   1.188  10.365 -0.6955  1.9689 -0.6105
  145SAPE   C2615916   2.119   1.320  10.436 -0.8841 -0.0152  0.0995
  145SAPE   H6R15917   2.169   1.313  10.339 -0.7663  3.8152 -0.1819
  145SAPE   C2715918   2.185   1.413  10.541 -0.0754  0.3082  0.1777
  145SAPE   H7R15919   2.107   1.485  10.571 -0.7983 -0.3708 -0.0400
  145SAPE   H7S15920   2.258   1.482  10.494 -0.7868  0.2266 -1.0827
  145SAPE   C2815921   2.237   1.354  10.675 -0.0644  0.9090  0.1553
  145SAPE   H8R15922   2.168   1.377  10.757 -2.3115  1.0102 -1.7089
  145SAPE   C2915923   2.361   1.305  10.704 -0.3389 -0.1272 -0.2804
  145SAPE   H9R15924   2.375   1.265  10.806  2.8033  1.7622  0.0654
  145SAPE  C21015925   2.480   1.290  10.618 -0.0658  0.1489  0.4730
  145SAPE  H10R15926   2.570   1.278  10.683  1.1379 -0.7275 -1.3103
  145SAPE  H10S15927   2.501   1.388  10.570  0.6067  0.0871  0.6293
  145SAPE  C21115928   2.472   1.175  10.520  0.7878 -0.3301 -0.3755
  145SAPE  H11R15929   2.422   1.087  10.564  0.7476  1.1103  2.5965
  145SAPE  C21215930   2.492   1.179  10.383 -0.0331  0.3359 -0.4230
  145SAPE  H12R15931   2.447   1.092  10.332 -0.2211 -0.5286  1.1841
  145SAPE  C21315932   2.535   1.290  10.295 -0.7206  0.7551  0.1725
  145SAPE  H13R15933   2.594   1.255  10.207  2.1147  1.9736  1.5505
  145SAPE  H13S15934   2.607   1.350  10.353 -0.1750 -0.8430  1.1854
  145SAPE  C21415935   2.426   1.387  10.243  0.4767  0.2860 -0.7122
  145SAPE  H14R15936   2.417   1.475  10.309  1.2116  0.6808 -1.1306
  145SAPE  C21515937   2.355   1.362  10.138 -0.2585 -0.3146  0.3064
  145SAPE  H15R15938   2.279   1.432  10.102  1.1775  0.1598 -1.9056
  145SAPE  C21615939   2.379   1.243  10.048  0.5382  0.8274  0.3793
  145SAPE  H16R15940   2.331   1.150  10.085  0.2876  0.9394  0.3365
  145SAPE  H16S15941   2.484   1.208  10.042  0.9844  2.1124  0.5027
  145SAPE  C21715942   2.331   1.260   9.906 -0.6623  0.0274  0.0745
  145SAPE  H17R15943   2.393   1.339   9.859 -2.6529  0.9946 -1.0307
  145SAPE  H17S15944   2.228   1.302   9.904 -0.4520  0.4958 -1.3549
  145SAPE  C21815945   2.336   1.125   9.816 -0.3358  0.3092  0.2742
  145SAPE  H18R15946   2.277   1.044   9.865 -2.1743  0.8070 -1.0436
  145SAPE  H18S15947   2.442   1.093   9.809 -0.5872  0.2032 -4.2725
  145SAPE  C21915948   2.273   1.156   9.677  0.1962  0.0003  0.0609
  145SAPE  H19R15949   2.335   1.232   9.624  0.9242  1.1742  2.4999
  145SAPE  H19S15950   2.173   1.203   9.682  0.1164 -0.1582 -0.0381
  145SAPE  C22015951   2.252   1.042   9.585 -0.7026 -0.4712  0.4357
  145SAPE  H20R15952   2.194   1.068   9.494 -0.3646 -0.8690  0.1050
  145SAPE  H20S15953   2.191   0.970   9.645  1.0526 -1.1001  1.5101
  145SAPE  H20T15954   2.348   0.993   9.557 -0.8884  0.3271 -1.6761
  145SAPE   C3315955   2.809   0.870  10.624  0.2137 -0.5884  0.0815
  145SAPE   H3X15956   2.795   0.769  10.582  3.3265 -0.8686 -0.3828
  145SAPE   H3Y15957   2.870   0.866  10.717 -0.6513 -0.5972  0.6606
  145SAPE   C3415958   2.872   0.958  10.519  0.1213  0.6140 -0.4342
  145SAPE   H4X15959   2.920   1.041  10.576 -0.3016 -0.5220  1.6305
  145SAPE   H4Y15960   2.804   1.010  10.448 -0.3699  0.3101 -0.1845
  145SAPE   C3515961   2.966   0.877  10.434  0.0377  0.7753 -0.9441
  145SAPE   H5X15962   2.899   0.799  10.391  0.9431 -1.2412  1.2189
  145SAPE   H5Y15963   3.037   0.824  10.500 -0.0829  1.5111 -0.2139
  145SAPE   C3615964   3.023   0.949  10.313 -0.3790  0.4596  0.6282
  145SAPE   H6X15965   3.115   0.996  10.353  0.4801 -0.9024  0.2702
  145SAPE   H6Y15966   2.942   1.023  10.292 -0.4236  0.4874  0.8971
  145SAPE   C3715967   3.040   0.865  10.189  0.4049 -0.1316 -1.2259
  145SAPE   H7X15968   2.938   0.829  10.163 -0.3372  1.0463  0.0029
  145SAPE   H7Y15969   3.105   0.776  10.203  1.3811  0.8816  0.9529
  145SAPE   C3815970   3.096   0.939  10.063 -0.3519 -0.1497 -0.1052
  145SAPE   H8X15971   3.194   0.987  10.086  1.3852 -2.8278 -1.7027
  145SAPE   H8Y15972   3.024   1.018  10.033  1.8995  1.9614 -0.1704
  145SAPE   C3915973   3.109   0.846   9.944 -0.0983  0.3774 -0.7281
  145SAPE   H9X15974   3.003   0.825   9.917 -0.0709 -1.2003  0.2986
  145SAPE   H9Y15975   3.164   0.752   9.964 -1.9447 -0.1714  1.9980
  145SAPE  C31015976   3.185   0.917   9.827  0.0404  0.0682 -0.5205
  145SAPE  H10X15977   3.277   0.961   9.871  1.0160  1.5527 -3.8914
  145SAPE  H10Y15978   3.118   1.000   9.796  0.7873  1.1875  0.8156
  145SAPE  C31115979   3.218   0.828   9.713  0.5332  0.6042 -0.7728
  145SAPE  H11X15980   3.149   0.743   9.695  2.1287 -0.6329 -1.2224
  145SAPE  H11Y15981   3.310   0.774   9.743 -1.0207 -0.9280  1.3238
  145SAPE  C31215982   3.248   0.901   9.585  0.1514 -0.1579  0.2690
  145SAPE  H12X15983   3.345   0.953   9.597 -0.0594 -0.3178  2.8828
  145SAPE  H12Y15984   3.162   0.961   9.548 -1.3835 -0.9954  2.3840
  145SAPE  C31315985   3.281   0.804   9.476  0.2024 -0.1811  0.4121
  145SAPE  H13X15986   3.191   0.741   9.461  0.4134 -0.4822  0.4132
  145SAPE  H13Y15987   3.362   0.739   9.514 -0.5037 -0.5656  1.2887
  145SAPE  C31415988   3.315   0.878   9.347 -0.2072  0.5023  0.2003
  145SAPE  H14X15989   3.403   0.945   9.349 -0.3113  0.6413  0.1084
  145SAPE  H14Y15990   3.237   0.949   9.313 -0.9334  0.5894  1.9744
  145SAPE  C31515991   3.350   0.788   9.231  0.0042 -0.0007  0.1644
  145SAPE  H15X15992   3.276   0.705   9.232  1.6749 -1.5664 -1.2533
  145SAPE  H15Y15993   3.445   0.732   9.245 -0.4257 -0.8635 -0.3086
  145SAPE  C31615994   3.350   0.854   9.090  0.1827  0.2727  0.1126
  145SAPE  H16X15995   3.395   0.783   9.017 -0.9033 -1.4974  1.1315
  145SAPE  H16Y15996   3.428   0.931   9.102  1.9639 -1.5132  0.2948
  145SAPE  C31715997   3.216   0.910   9.040  0.0957 -0.2685 -0.4310
  145SAPE  H17X15998   3.175   0.989   9.107  1.1436  0.8906 -1.1305
  145SAPE  H17Y15999   3.142   0.827   9.039  1.0589 -1.1963  1.8635
  145SAPE  C31816000   3.229   0.978   8.899  0.4198  0.3780 -0.3962
  145SAPE  H18X16001   3.244   0.901   8.821 -1.0398 -2.4179  1.9808
  145SAPE  H18Y16002   3.324   1.035   8.892  1.0523 -0.3789  1.7480
  145SAPE  H18Z16003   3.150   1.053   8.877 -0.1018 -0.5355 -1.6421
  146SAPE     N16004   0.623   0.577  11.092 -0.5494  0.2670 -0.1621
  146SAPE   HN116005   0.599   0.677  11.079  2.3270  0.9993 -0.3523
  146SAPE   HN216006   0.676   0.576  11.182 -1.3678  0.6312  0.3232
  146SAPE   HN316007   0.695   0.556  11.020  1.6405  1.6757  1.5352
  146SAPE   C1216008   0.499   0.483  11.085 -0.4252  0.2414 -0.3042
  146SAPE  H12A16009   0.449   0.512  10.990  1.3079  1.2485 -0.9445
  146SAPE  H12B16010   0.427   0.501  11.167  1.0073 -0.8421  1.2224
  146SAPE   C1116011   0.522   0.340  11.070 -0.2711  0.0583 -0.1222
  146SAPE  H11A16012   0.423   0.291  11.062  0.3096 -1.0584 -0.5500
  146SAPE  H11B16013   0.569   0.304  11.164  2.8584  0.4934 -1.4575
  146SAPE     P16014   0.580   0.174  10.885  0.2438 -0.3842 -0.3634
  146SAPE   O1316015   0.686   0.170  10.778 -0.6119  0.2171 -0.9024
  146SAPE   O1416016   0.583   0.055  10.970  0.2620  0.5775 -0.0584
  146SAPE   O1216017   0.613   0.300  10.969 -0.2626 -0.2995 -0.1512
  146SAPE   O1116018   0.436   0.197  10.831 -0.0572 -0.1069  0.0844
  146SAPE    C116019   0.403   0.308  10.746 -0.5713 -0.0618 -0.0908
  146SAPE    HA16020   0.309   0.355  10.783 -0.7925 -1.1931  0.8101
  146SAPE    HB16021   0.472   0.395  10.754 -0.2191 -0.5715  3.7149
  146SAPE    C216022   0.376   0.267  10.594 -0.5102 -0.1275  0.6042
  146SAPE    HS16023   0.331   0.166  10.599 -0.3657 -0.1707  1.1258
  146SAPE   O2116024   0.495   0.274  10.509 -0.2278  0.2712  0.6089
  146SAPE   C2116025   0.562   0.164  10.495  0.3494 -0.1797 -0.1121
  146SAPE   O2216026   0.520   0.051  10.523 -0.2844 -0.0144 -0.2212
  146SAPE   C2216027   0.697   0.199  10.432  0.6646 -0.5019 -0.3797
  146SAPE   H2R16028   0.761   0.267  10.491  0.0626 -0.8272  0.6619
  146SAPE   H2S16029   0.764   0.110  10.422 -1.1992 -2.1368  1.3358
  146SAPE    C316030   0.259   0.361  10.540 -0.6449 -0.7729 -0.5624
  146SAPE    HX16031   0.278   0.470  10.554  0.7107 -0.8003 -2.0536
  146SAPE    HY16032   0.168   0.345  10.601  0.8441  0.4478  2.1124
  146SAPE   O3116033   0.247   0.351  10.396 -0.6352 -0.1249 -0.1585
  146SAPE   C3116034   0.188   0.234  10.353  0.1466  0.1504  0.3245
  146SAPE   O3216035   0.144   0.148  10.424  0.1071 -0.6062 -0.4555
  146SAPE   C3216036   0.211   0.220  10.201 -0.4530 -0.2977 -0.5878
  146SAPE   H2X16037   0.314   0.258  10.179  0.5845 -1.7014  1.7459
  146SAPE   H2Y16038   0.139   0.280  10.141 -0.9003 -0.9162 -0.6703
  146SAPE   C2316039   0.682   0.256  10.287 -0.1119  0.0694 -0.1333
  146SAPE   H3R16040   0.782   0.280  10.246  0.2628 -0.2789  0.5740
  146SAPE   H3S16041   0.627   0.352  10.289 -1.8514 -0.9267  1.0571
  146SAPE   C2416042   0.600   0.156  10.193  0.0750 -0.6078  0.1990
  146SAPE   H4R16043   0.567   0.215  10.105  1.7487  1.1137  0.6796
  146SAPE   H4S16044   0.507   0.120  10.240 -0.3305 -2.3109 -1.7961
  146SAPE   C2516045   0.663   0.028  10.139 -0.0016  0.1234 -0.2846
  146SAPE   H5R16046   0.681  -0.047  10.218 -0.4031  0.1309 -0.1863
  146SAPE   C2616047   0.700   0.004  10.008 -0.1418 -1.0495  0.1898
  146SAPE   H6R16048   0.747  -0.090   9.977  0.7617 -0.7400  0.5824
  146SAPE   C2716049   0.674   0.104   9.900  0.0152  0.3069  1.0790
  146SAPE   H7R16050   0.702   0.204   9.940 -1.3486  1.1495  0.0103
  146SAPE   H7S16051   0.566   0.108   9.872 -0.0222 -0.3709  1.1130
  146SAPE   C2816052   0.748   0.080   9.770  0.1944  0.6434  0.1062
  146SAPE   H8R16053   0.776  -0.026   9.758 -2.8563 -0.0755 -0.9521
  146SAPE   C2916054   0.782   0.169   9.682 -0.5088  0.0460  0.8444
  146SAPE   H9R16055   0.837   0.134   9.593 -0.4098  0.8938  0.5635
  146SAPE  C21016056   0.771   0.315   9.675 -0.3372 -0.1838 -0.0249
  146SAPE  H10R16057   0.872   0.360   9.678 -0.6497  0.7161 -1.8713
  146SAPE  H10S16058   0.715   0.350   9.765  0.3360  1.6413 -0.2966
  146SAPE  C21116059   0.691   0.371   9.561 -0.0410  0.2499 -0.0567
  146SAPE  H11R16060   0.745   0.396   9.469  2.2864 -1.9136  0.6728
  146SAPE  C21216061   0.555   0.398   9.569 -0.3992  0.5650  0.0575
  146SAPE  H12R16062   0.504   0.430   9.477  0.6239  0.2562 -0.6285
  146SAPE  C21316063   0.457   0.378   9.674 -0.3057 -0.1176  0.7459
  146SAPE  H13R16064   0.506   0.352   9.770  1.8011  0.5189 -0.1272
  146SAPE  H13S16065   0.413   0.279   9.649 -3.3187  1.2108  0.5331
  146SAPE  C21416066   0.349   0.479   9.676  0.0925 -0.1774  0.0585
  146SAPE  H14R16067   0.294   0.479   9.581  2.0124 -1.1511 -1.0898
  146SAPE  C21516068   0.327   0.566   9.773 -0.3512 -0.5440 -0.3784
  146SAPE  H15R16069   0.259   0.652   9.764 -1.4001 -1.3434 -0.1283
  146SAPE  C21616070   0.411   0.569   9.902  0.1922  0.1902  0.0282
  146SAPE  H16R16071   0.515   0.604   9.887  0.0191  0.4417 -0.6024
  146SAPE  H16S16072   0.421   0.467   9.946 -2.7715  0.6999  2.0330
  146SAPE  C21716073   0.348   0.649  10.027 -0.5562 -0.9503 -0.0770
  146SAPE  H17R16074   0.247   0.611  10.050 -0.8421  0.4102  0.9618
  146SAPE  H17S16075   0.328   0.753   9.996  1.8974 -0.1120  1.0433
  146SAPE  C21816076   0.435   0.635  10.149  0.5011  0.6898 -0.9858
  146SAPE  H18R16077   0.538   0.675  10.140  0.3120  2.0238  2.1840
  146SAPE  H18S16078   0.438   0.526  10.169  0.3399  0.7937 -0.3928
  146SAPE  C21916079   0.369   0.700  10.274  0.2744  0.1673 -0.3034
  146SAPE  H19R16080   0.266   0.659  10.278 -0.1250  1.2348  0.4318
  146SAPE  H19S16081   0.369   0.809  10.254  1.2666  0.8122  2.9195
  146SAPE  C22016082   0.444   0.667  10.405  0.4136 -0.3817  0.1761
  146SAPE  H20R16083   0.537   0.728  10.407  0.2474 -0.0823 -0.9210
  146SAPE  H20S16084   0.459   0.557  10.410  0.1730 -0.4540 -0.5424
  146SAPE  H20T16085   0.378   0.710  10.484  0.7655  0.1033  0.2085
  146SAPE   C3316086   0.210   0.074  10.145  0.1068 -0.0597  0.3543
  146SAPE   H3X16087   0.104   0.043  10.155  0.1042 -0.5302 -1.0600
  146SAPE   H3Y16088   0.282   0.017  10.209 -0.0070  0.9969  1.4473
  146SAPE   C3416089   0.259   0.064  10.000 -0.9618 -0.5025  0.0321
  146SAPE   H4X16090   0.268  -0.046   9.981  0.4101  0.0523 -2.7072
  146SAPE   H4Y16091   0.357   0.117   9.994  1.1594 -4.3426 -1.3582
  146SAPE   C3516092   0.163   0.117   9.892 -0.2126  0.1384  0.3593
  146SAPE   H5X16093   0.149   0.226   9.905 -0.4537  0.0715  0.6784
  146SAPE   H5Y16094   0.060   0.079   9.911 -0.7998  0.6022 -1.7142
  146SAPE   C3616095   0.205   0.081   9.747  0.1456  0.3072  0.2237
  146SAPE   H6X16096   0.209  -0.028   9.726  1.0204  0.1624  1.0605
  146SAPE   H6Y16097   0.313   0.108   9.744  0.5156 -1.2828 -1.4648
  146SAPE   C3716098   0.138   0.154   9.637 -0.6451  0.3188 -0.8554
  146SAPE   H7X16099   0.150   0.264   9.651  2.6078 -0.5294  3.9189
  146SAPE   H7Y16100   0.030   0.126   9.635 -0.5430 -0.0513 -1.4470
  146SAPE   C3816101   0.205   0.124   9.498  0.3250 -0.2310  0.2112
  146SAPE   H8X16102   0.217   0.019   9.465 -2.0811 -0.1112 -1.1802
  146SAPE   H8Y16103   0.306   0.169   9.500  1.0534 -1.8158 -0.4981
  146SAPE   C3916104   0.120   0.196   9.393 -0.3966 -0.1381  0.4460
  146SAPE   H9X16105   0.115   0.306   9.405 -0.4227 -0.0925  0.0293
  146SAPE   H9Y16106   0.013   0.168   9.407 -0.1710 -0.5801  1.3604
  146SAPE  C31016107   0.160   0.154   9.256 -0.3355 -0.4393  0.2434
  146SAPE  H10X16108   0.086   0.184   9.179  1.2865 -2.0655 -2.0456
  146SAPE  H10Y16109   0.177   0.044   9.256 -0.6943 -0.5161 -1.3845
  146SAPE  C31116110   0.292   0.218   9.218  0.6044  0.1209  0.3115
  146SAPE  H11X16111   0.370   0.176   9.285 -1.3031 -1.1452  1.7993
  146SAPE  H11Y16112   0.282   0.328   9.234 -1.2065  0.1360 -0.7172
  146SAPE  C31216113   0.325   0.187   9.070  0.0783  0.2284 -0.1915
  146SAPE  H12X16114   0.255   0.239   9.002 -1.4574 -0.3506  0.9134
  146SAPE  H12Y16115   0.313   0.078   9.053 -0.9018  0.3033 -0.0222
  146SAPE  C31316116   0.467   0.234   9.038 -0.1332  0.2603  0.4706
  146SAPE  H13X16117   0.536   0.158   9.081 -0.9137 -0.8578 -0.2091
  146SAPE  H13Y16118   0.479   0.334   9.084 -0.6148 -0.5933  2.5304
  146SAPE  C31416119   0.479   0.246   8.889 -0.1596 -0.2538 -0.1140
  146SAPE  H14X16120   0.414   0.323   8.842 -0.4807  0.0621  0.8373
  146SAPE  H14Y16121   0.449   0.155   8.832  1.3532  0.2985 -1.8733
  146SAPE  C31516122   0.627   0.264   8.836 -0.1326  0.0039  0.1312
  146SAPE  H15X16123   0.675   0.167   8.860 -0.1155 -0.0292 -0.0363
  146SAPE  H15Y16124   0.676   0.349   8.888  0.5356 -0.5531  0.4096
  146SAPE  C31616125   0.636   0.297   8.682 -0.0689 -0.5499 -0.4842
  146SAPE  H16X16126   0.605   0.212   8.617 -0.6550  0.5985 -1.7301
  146SAPE  H16Y16127   0.743   0.307   8.654 -0.0410 -1.9734 -0.9388
  146SAPE  C31716128   0.553   0.427   8.639 -0.4033  0.2350  0.2812
  146SAPE  H17X16129   0.588   0.515   8.697 -0.2007  0.8801 -0.8083
  146SAPE  H17Y16130   0.450   0.414   8.679  0.0402 -1.7532  0.8748
  146SAPE  C31816131   0.560   0.443   8.490  0.6227 -0.0252  0.4018
  146SAPE  H18X16132   0.468   0.494   8.455 -0.3196 -1.4930  0.7154
  146SAPE  H18Y16133   0.573   0.349   8.431 -0.5375  1.6220 -2.6151
  146SAPE  H18Z16134   0.643   0.508   8.454  1.1410 -0.1734  1.3349
  147SAPE     N16135   3.976   5.562   6.222  0.0143 -0.5165 -0.5466
  147SAPE   HN116136   3.935   5.617   6.145  0.9792  1.0887  0.0705
  147SAPE   HN216137   4.056   5.605   6.273  0.3448 -1.2659 -0.4230
  147SAPE   HN316138   4.021   5.478   6.181 -0.9862 -0.1696 -2.4227
  147SAPE   C1216139   3.879   5.525   6.335 -0.3036  0.1508 -0.1935
  147SAPE  H12A16140   3.799   5.467   6.284  1.0485 -0.7414 -1.3388
  147SAPE  H12B16141   3.842   5.620   6.378 -0.1829  1.0848 -2.1095
  147SAPE   C1116142   3.950   5.441   6.442 -0.1250 -0.2906 -0.1869
  147SAPE  H11A16143   3.876   5.407   6.518 -1.4755  0.5238 -1.1165
  147SAPE  H11B16144   4.027   5.502   6.494  0.2151  0.2220 -1.2880
  147SAPE     P16145   3.952   5.191   6.367  0.0268  0.4906  0.4371
  147SAPE   O1316146   3.815   5.202   6.325 -0.3148  0.0160 -0.2945
  147SAPE   O1416147   4.043   5.100   6.298 -0.7985  0.6793  0.1050
  147SAPE   O1216148   4.012   5.338   6.368  0.0701 -0.4816 -0.4490
  147SAPE   O1116149   3.963   5.152   6.514 -0.4880 -0.2944  0.1492
  147SAPE    C116150   4.088   5.172   6.585  0.1545 -0.0564 -0.5501
  147SAPE    HA16151   4.163   5.101   6.543 -0.7248  0.4047 -3.0028
  147SAPE    HB16152   4.122   5.277   6.571  0.5273 -0.1640 -0.4540
  147SAPE    C216153   4.085   5.137   6.733 -0.4669  0.1841 -0.7135
  147SAPE    HS16154   4.179   5.180   6.774 -1.1521 -0.0340  1.1276
  147SAPE   O2116155   4.074   4.996   6.765  0.2815  0.9573  0.8987
  147SAPE   C2116156   4.182   4.925   6.745 -0.3808 -0.8137  0.5013
  147SAPE   O2216157   4.291   4.968   6.704  0.2538 -0.2772 -0.1238
  147SAPE   C2216158   4.161   4.784   6.796 -0.0093  0.6282  0.1692
  147SAPE   H2R16159   4.200   4.773   6.900 -1.3349 -1.1705  0.5039
  147SAPE   H2S16160   4.051   4.770   6.803 -0.1589  1.2008 -0.9923
  147SAPE    C316161   3.960   5.209   6.793  0.2382 -0.6744 -0.2326
  147SAPE    HX16162   3.873   5.155   6.752  1.1181 -4.5797  2.6946
  147SAPE    HY16163   3.961   5.315   6.762 -0.4308 -0.5402  0.2006
  147SAPE   O3116164   3.967   5.197   6.939 -0.0275  0.3374  0.7538
  147SAPE   C3116165   4.052   5.271   7.002 -0.1839 -0.3069 -0.1977
  147SAPE   O3216166   4.122   5.356   6.948  0.0994  0.4184  0.0144
  147SAPE   C3216167   4.048   5.242   7.155 -0.4617  0.1082  0.4824
  147SAPE   H2X16168   4.134   5.173   7.171 -0.6100 -0.6282 -1.7599
  147SAPE   H2Y16169   3.962   5.184   7.196 -1.7574  0.8663 -1.1247
  147SAPE   C2316170   4.225   4.681   6.698 -0.4853  0.0663  0.6437
  147SAPE   H3R16171   4.334   4.700   6.683  0.2333 -3.3818  1.1651
  147SAPE   H3S16172   4.173   4.700   6.601  1.6822  1.4895 -0.2859
  147SAPE   C2416173   4.205   4.535   6.741  0.6499 -0.4655 -0.5311
  147SAPE   H4R16174   4.098   4.506   6.744  0.6577 -0.3841  0.9909
  147SAPE   H4S16175   4.236   4.532   6.848 -3.4762  1.0436  0.8264
  147SAPE   C2516176   4.296   4.442   6.660 -0.1667  0.1554  0.3667
  147SAPE   H5R16177   4.258   4.416   6.560 -1.5560  1.0346  0.6572
  147SAPE   C2616178   4.417   4.398   6.692 -0.3713 -0.2424 -0.2392
  147SAPE   H6R16179   4.457   4.328   6.617 -1.3311 -1.7394  0.6256
  147SAPE   C2716180   4.496   4.425   6.821 -0.5166 -0.8005 -0.1109
  147SAPE   H7R16181   4.496   4.533   6.846 -2.0945 -0.8783  0.2379
  147SAPE   H7S16182   4.604   4.398   6.812  0.0134  1.2819 -0.0837
  147SAPE   C2816183   4.442   4.349   6.939  0.7749 -0.5221  0.6872
  147SAPE   H8R16184   4.334   4.360   6.958  0.9396  0.3214  1.1480
  147SAPE   C2916185   4.517   4.298   7.037 -0.9292  0.0560  0.9123
  147SAPE   H9R16186   4.469   4.244   7.120 -0.5310 -1.4020  0.2110
  147SAPE  C21016187   4.674   4.303   7.048  0.0338  0.3065  0.1233
  147SAPE  H10R16188   4.710   4.319   7.151  0.5970  1.9700 -0.3172
  147SAPE  H10S16189   4.712   4.396   6.999 -1.2362  0.3254 -0.8496
  147SAPE  C21116190   4.746   4.190   6.977  0.3641  0.2508 -0.0102
  147SAPE  H11R16191   4.754   4.206   6.869  0.4009  1.0778  0.1146
  147SAPE  C21216192   4.815   4.091   7.032  0.2342  0.2444  0.3971
  147SAPE  H12R16193   4.875   4.034   6.960 -0.3053  1.8206 -1.3427
  147SAPE  C21316194   4.817   4.057   7.181  0.3997  0.1990  0.0856
  147SAPE  H13R16195   4.866   4.138   7.239  1.3839  0.5394 -1.1731
  147SAPE  H13S16196   4.887   3.972   7.180 -0.2625 -0.3545 -1.4220
  147SAPE  C21416197   4.688   4.014   7.244  0.7400  0.2255 -0.1168
  147SAPE  H14R16198   4.607   3.996   7.171  0.6107 -1.1396  0.3484
  147SAPE  C21516199   4.666   4.006   7.380 -0.0290  0.2299 -0.4630
  147SAPE  H15R16200   4.565   3.977   7.413 -0.1502  0.9902 -0.1495
  147SAPE  C21616201   4.778   4.041   7.484 -0.2609 -0.0594 -0.0787
  147SAPE  H16R16202   4.855   4.105   7.436 -0.5656  0.2427 -0.1702
  147SAPE  H16S16203   4.820   3.945   7.521 -0.9627  0.1977  1.4351
  147SAPE  C21716204   4.697   4.121   7.591 -0.3231  0.5062 -0.0763
  147SAPE  H17R16205   4.642   4.044   7.651 -1.7098  1.5339 -0.0134
  147SAPE  H17S16206   4.618   4.186   7.548 -2.0619 -0.9932  0.7324
  147SAPE  C21816207   4.790   4.194   7.680  0.1851  0.2862  0.7961
  147SAPE  H18R16208   4.810   4.301   7.659 -0.1029  0.4972  1.5674
  147SAPE  H18S16209   4.889   4.143   7.692 -1.3577 -2.6013  1.9393
  147SAPE  C21916210   4.735   4.199   7.822  0.0082  0.1168 -0.3755
  147SAPE  H19R16211   4.712   4.097   7.857 -2.6531  0.3807 -1.2374
  147SAPE  H19S16212   4.637   4.252   7.824 -0.2775 -0.4254  3.2842
  147SAPE  C22016213   4.838   4.278   7.918  1.2812 -0.0255 -0.0770
  147SAPE  H20R16214   4.923   4.208   7.933  0.2404 -1.0334  1.2698
  147SAPE  H20S16215   4.794   4.292   8.019 -0.9891 -0.5175 -0.9820
  147SAPE  H20T16216   4.873   4.378   7.886 -0.2919  0.6495  0.2705
  147SAPE   C3316217   4.056   5.379   7.225 -0.8699  0.1674 -0.5571
  147SAPE   H3X16218   3.958   5.430   7.217  0.7187  3.7096  1.5088
  147SAPE   H3Y16219   4.123   5.456   7.180  2.4230 -0.8056  2.4507
  147SAPE   C3416220   4.069   5.361   7.376  0.7207 -0.5725 -0.0102
  147SAPE   H4X16221   4.084   5.461   7.423 -3.0990 -0.0012  0.1050
  147SAPE   H4Y16222   4.156   5.295   7.398  0.4131 -1.5216 -1.5878
  147SAPE   C3516223   3.942   5.310   7.439 -0.4514  0.2306  0.6951
  147SAPE   H5X16224   3.937   5.200   7.422 -2.5340  0.0370  2.3534
  147SAPE   H5Y16225   3.859   5.359   7.384 -1.6500 -2.1546  0.2928
  147SAPE   C3616226   3.932   5.340   7.589  0.2090 -0.5665 -0.9579
  147SAPE   H6X16227   3.829   5.312   7.617  0.8085 -3.6688 -1.6561
  147SAPE   H6Y16228   3.944   5.449   7.607  0.3697 -1.2508  3.5947
  147SAPE   C3716229   4.034   5.267   7.666  0.5203  0.1392  0.2445
  147SAPE   H7X16230   4.136   5.288   7.628 -0.1365  1.9802 -0.5895
  147SAPE   H7Y16231   4.023   5.159   7.645 -0.2047 -0.1052  1.7392
  147SAPE   C3816232   4.022   5.278   7.824 -0.1000 -0.0279 -0.4584
  147SAPE   H8X16233   3.924   5.243   7.861  0.3288 -0.0845  0.6450
  147SAPE   H8Y16234   4.040   5.383   7.853  1.9922 -0.3191 -0.6217
  147SAPE   C3916235   4.134   5.186   7.892  0.6850 -0.1267  0.0830
  147SAPE   H9X16236   4.234   5.234   7.886 -0.7617  3.0712  0.5171
  147SAPE   H9Y16237   4.141   5.104   7.817 -0.5142 -0.8586  0.7519
  147SAPE  C31016238   4.110   5.134   8.034 -0.2036  0.4924 -0.0314
  147SAPE  H10X16239   4.025   5.064   8.045  1.2089 -0.8756  2.9236
  147SAPE  H10Y16240   4.079   5.217   8.101 -1.7378  0.0962 -0.2385
  147SAPE  C31116241   4.237   5.057   8.079 -0.3192 -0.2134 -0.1310
  147SAPE  H11X16242   4.326   5.116   8.047 -0.6017  0.5263  0.4220
  147SAPE  H11Y16243   4.236   4.956   8.034  1.7974 -0.0267 -0.6587
  147SAPE  C31216244   4.241   5.042   8.231 -0.1113  0.5989 -0.5865
  147SAPE  H12X16245   4.152   4.981   8.258 -0.1970  0.3723 -1.3703
  147SAPE  H12Y16246   4.233   5.140   8.283  0.4902  0.1932  0.2948
  147SAPE  C31316247   4.374   4.984   8.283  0.3407  0.2177 -0.2932
  147SAPE  H13X16248   4.465   5.037   8.249  1.2039 -0.9159  0.2166
  147SAPE  H13Y16249   4.374   4.885   8.232  0.9935  0.7731 -1.3792
  147SAPE  C31416250   4.373   4.956   8.436 -0.0557 -0.2206 -0.1101
  147SAPE  H14X16251   4.279   4.902   8.459 -0.7885  1.3056  0.5216
  147SAPE  H14Y16252   4.375   5.052   8.492  0.4413 -0.0730 -0.3761
  147SAPE  C31516253   4.497   4.877   8.475  0.2322  0.0016  0.7832
  147SAPE  H15X16254   4.510   4.793   8.404  1.6384  0.6289  0.2908
  147SAPE  H15Y16255   4.493   4.828   8.575  0.8943 -0.9179  0.3609
  147SAPE  C31616256   4.625   4.965   8.481  0.4193 -0.8837  0.6289
  147SAPE  H16X16257   4.603   5.050   8.549  0.1643  0.1821 -0.7657
  147SAPE  H16Y16258   4.645   5.007   8.380 -1.4040  0.7415  0.9222
  147SAPE  C31716259   4.751   4.893   8.529 -0.0028 -0.2530  0.2260
  147SAPE  H17X16260   4.760   4.907   8.639 -2.0031  0.0732  0.3618
  147SAPE  H17Y16261   4.829   4.959   8.486  1.8992 -2.6723 -0.0975
  147SAPE  C31816262   4.768   4.751   8.473 -0.3220  0.4000  0.4290
  147SAPE  H18X16263   4.732   4.739   8.369  1.6705 -1.0650 -0.1011
  147SAPE  H18Y16264   4.717   4.681   8.542  0.7742 -0.0971  0.7456
  147SAPE  H18Z16265   4.874   4.718   8.471  0.2001  2.1005 -0.1229
  148SAPE     N16266   2.925   2.636   6.591 -0.0414  0.2247 -0.4851
  148SAPE   HN116267   2.859   2.660   6.667  1.3557 -0.9852  1.1440
  148SAPE   HN216268   2.909   2.692   6.504 -2.5926 -0.2846 -0.3918
  148SAPE   HN316269   2.893   2.543   6.557  3.3212 -1.0264 -0.3920
  148SAPE   C1216270   3.062   2.653   6.644 -1.0233  0.0210 -0.2839
  148SAPE  H12A16271   3.133   2.654   6.558 -0.7877  1.1691 -0.0864
  148SAPE  H12B16272   3.083   2.568   6.712  0.2698  0.5585  0.0123
  148SAPE   C1116273   3.074   2.789   6.710  0.7663 -0.3725 -0.5318
  148SAPE  H11A16274   3.179   2.801   6.743  0.1558 -0.1540  1.3977
  148SAPE  H11B16275   3.017   2.793   6.805 -0.9747 -2.7249 -1.4339
  148SAPE     P16276   3.147   2.970   6.539 -0.1959  0.2549 -0.5025
  148SAPE   O1316277   3.243   2.870   6.491  0.0658 -0.0607 -0.0857
  148SAPE   O1416278   3.082   3.057   6.436  0.5005  0.5051 -0.4429
  148SAPE   O1216279   3.032   2.902   6.629  0.1057  0.5264 -0.3925
  148SAPE   O1116280   3.215   3.059   6.647  0.1201  0.6299  0.5217
  148SAPE    C116281   3.149   3.168   6.702  0.2933 -0.4202  0.0387
  148SAPE    HA16282   3.203   3.259   6.668  1.8910 -0.3902  2.5391
  148SAPE    HB16283   3.042   3.177   6.676 -0.0448 -1.1257  1.1621
  148SAPE    C216284   3.162   3.174   6.858 -0.0911 -0.3095 -0.4367
  148SAPE    HS16285   3.263   3.207   6.888  0.3642 -1.1174 -1.0522
  148SAPE   O2116286   3.132   3.045   6.913  0.6384 -0.0805 -0.0756
  148SAPE   C2116287   3.210   3.004   7.014 -0.4027 -0.3174 -0.4546
  148SAPE   O2216288   3.302   3.061   7.066 -0.4123 -0.1482  0.4392
  148SAPE   C2216289   3.148   2.868   7.062 -1.3923 -0.0389 -0.5731
  148SAPE   H2R16290   3.061   2.882   7.129 -2.1040 -4.5724 -0.3678
  148SAPE   H2S16291   3.131   2.819   6.963 -0.7285  0.5226 -0.9668
  148SAPE    C316292   3.061   3.283   6.921 -0.6437  0.1099  0.0266
  148SAPE    HX16293   2.958   3.244   6.908 -0.4047 -0.7871  0.7589
  148SAPE    HY16294   3.066   3.376   6.861 -0.9034  1.7629  2.5009
  148SAPE   O3116295   3.098   3.312   7.056  0.3845  0.1612  0.2798
  148SAPE   C3116296   3.019   3.271   7.155 -0.1766  0.2271 -0.2681
  148SAPE   O3216297   2.907   3.223   7.146  0.2372 -0.2250 -0.2346
  148SAPE   C3216298   3.095   3.270   7.286 -0.2632  0.2640  0.8132
  148SAPE   H2X16299   3.169   3.189   7.275  0.2537  0.8415  0.0267
  148SAPE   H2Y16300   3.025   3.236   7.365  1.8911 -0.3854  2.5013
  148SAPE   C2316301   3.254   2.781   7.128 -0.5066 -0.5387 -0.0030
  148SAPE   H3R16302   3.311   2.849   7.195 -0.0854  0.4413 -1.3300
  148SAPE   H3S16303   3.336   2.756   7.057 -0.2594  1.2677 -0.3675
  148SAPE   C2416304   3.204   2.658   7.193  0.3057 -0.2498 -0.0474
  148SAPE   H4R16305   3.161   2.594   7.114 -0.6353  0.5443 -0.1867
  148SAPE   H4S16306   3.118   2.691   7.254 -0.2627 -1.9543  0.0978
  148SAPE   C2516307   3.311   2.581   7.274 -0.1670  0.0374 -0.1624
  148SAPE   H5R16308   3.333   2.483   7.230 -1.8026 -0.7596  0.7600
  148SAPE   C2616309   3.368   2.619   7.387 -0.1342 -0.3330  0.3303
  148SAPE   H6R16310   3.455   2.560   7.418  1.2201  1.5902  0.2959
  148SAPE   C2716311   3.338   2.742   7.467 -0.4779 -0.3545  0.0324
  148SAPE   H7R16312   3.287   2.827   7.418 -1.0069  0.2971  1.6880
  148SAPE   H7S16313   3.437   2.783   7.497  0.0156 -0.0271 -1.9763
  148SAPE   C2816314   3.276   2.698   7.596 -0.2148  0.1410  0.5384
  148SAPE   H8R16315   3.184   2.640   7.578  0.1202 -0.1092 -0.4231
  148SAPE   C2916316   3.330   2.705   7.719 -0.4269  0.2999  0.1507
  148SAPE   H9R16317   3.261   2.671   7.797 -0.1645  0.3183  0.3933
  148SAPE  C21016318   3.457   2.767   7.762  0.1027  0.4184  0.2205
  148SAPE  H10R16319   3.432   2.807   7.863  1.6143 -0.5553  0.9997
  148SAPE  H10S16320   3.473   2.857   7.699 -0.1520 -0.1013 -0.5973
  148SAPE  C21116321   3.575   2.680   7.743  0.0390 -0.2828  0.3503
  148SAPE  H11R16322   3.582   2.633   7.644 -1.6861  0.2344 -0.0325
  148SAPE  C21216323   3.663   2.649   7.832 -0.6164 -0.0750 -0.7073
  148SAPE  H12R16324   3.744   2.582   7.801  1.3516  2.5567 -1.3367
  148SAPE  C21316325   3.679   2.696   7.974  0.5289  0.5902 -0.1293
  148SAPE  H13R16326   3.641   2.800   7.977 -2.3573 -0.3682 -1.4620
  148SAPE  H13S16327   3.785   2.702   8.007 -0.0735  1.1936  1.7422
  148SAPE  C21416328   3.592   2.610   8.068  0.5817  0.3925 -0.0909
  148SAPE  H14R16329   3.607   2.502   8.056 -2.8392 -0.2120  0.6725
  148SAPE  C21516330   3.503   2.646   8.171  0.1902  0.3532 -0.1798
  148SAPE  H15R16331   3.446   2.572   8.228 -1.9750  1.3909 -0.9491
  148SAPE  C21616332   3.480   2.788   8.209  0.2126 -0.0799 -0.2772
  148SAPE  H16R16333   3.373   2.811   8.191  0.6772  1.8733 -0.6119
  148SAPE  H16S16334   3.527   2.855   8.134 -1.2352 -1.0907 -2.1657
  148SAPE  C21716335   3.527   2.837   8.351  0.8067  0.0078  0.4510
  148SAPE  H17R16336   3.473   2.769   8.421 -0.3690 -0.2480 -0.6862
  148SAPE  H17S16337   3.486   2.939   8.363 -0.0671  0.0377 -2.4256
  148SAPE  C21816338   3.680   2.835   8.378 -0.5068  0.3522 -0.1967
  148SAPE  H18R16339   3.730   2.903   8.306 -0.1846 -0.4233 -0.7074
  148SAPE  H18S16340   3.729   2.739   8.354 -2.4676 -1.2732  2.0642
  148SAPE  C21916341   3.718   2.880   8.523 -0.3410  0.2010  0.1194
  148SAPE  H19R16342   3.828   2.889   8.533 -0.3967  3.7269 -1.9589
  148SAPE  H19S16343   3.691   2.798   8.594 -0.6954  0.9085  0.8196
  148SAPE  C22016344   3.640   3.007   8.569 -0.2423 -1.1065 -0.0735
  148SAPE  H20R16345   3.530   2.998   8.564 -0.2889 -0.1979 -0.7388
  148SAPE  H20S16346   3.665   3.090   8.499 -0.3118 -1.7924 -0.9210
  148SAPE  H20T16347   3.663   3.033   8.675 -1.8157  2.1272 -0.4844
  148SAPE   C3316348   3.150   3.408   7.327  0.7099 -0.4812  0.0219
  148SAPE   H3X16349   3.068   3.481   7.347  0.1014 -1.1380 -0.0179
  148SAPE   H3Y16350   3.220   3.446   7.250  1.5178  0.0816  1.0179
  148SAPE   C3416351   3.225   3.411   7.463  0.0707 -0.6471 -0.2597
  148SAPE   H4X16352   3.300   3.330   7.473 -0.5138 -1.0041  1.3003
  148SAPE   H4Y16353   3.144   3.384   7.533 -0.8999 -0.9586 -1.4810
  148SAPE   C3516354   3.282   3.544   7.509  0.2685  0.3393  0.5822
  148SAPE   H5X16355   3.212   3.627   7.485 -1.3029 -0.9571  0.6533
  148SAPE   H5Y16356   3.386   3.555   7.470  0.1672  0.8300  0.4402
  148SAPE   C3616357   3.303   3.548   7.663 -0.2163 -0.4436 -0.1071
  148SAPE   H6X16358   3.377   3.471   7.693  1.8363  0.8735 -1.6571
  148SAPE   H6Y16359   3.205   3.524   7.709 -0.6071 -2.5203 -1.9846
  148SAPE   C3716360   3.337   3.685   7.722 -0.7739  0.3630  0.3045
  148SAPE   H7X16361   3.256   3.760   7.711 -0.3017  1.2547  2.6216
  148SAPE   H7Y16362   3.430   3.724   7.675  0.4044 -0.9979  1.4699
  148SAPE   C3816363   3.347   3.675   7.873 -0.9329 -0.4937 -0.1230
  148SAPE   H8X16364   3.417   3.592   7.898  1.2218  1.5865  0.9654
  148SAPE   H8Y16365   3.249   3.664   7.924  0.3001 -0.0487  2.4127
  148SAPE   C3916366   3.402   3.807   7.940  0.4436 -0.0678  0.7942
  148SAPE   H9X16367   3.319   3.880   7.932 -1.4471 -2.2576 -0.4274
  148SAPE   H9Y16368   3.492   3.847   7.889 -1.4301  0.8931 -1.8351
  148SAPE  C31016369   3.436   3.799   8.092 -0.2026  0.3359 -0.8453
  148SAPE  H10X16370   3.518   3.724   8.102  0.8763  1.5239 -0.5801
  148SAPE  H10Y16371   3.355   3.755   8.153  0.2400 -0.2274 -0.6536
  148SAPE  C31116372   3.474   3.936   8.154 -0.7478  0.3579 -0.2828
  148SAPE  H11X16373   3.390   4.009   8.159 -0.1018  1.0912 -0.0938
  148SAPE  H11Y16374   3.545   3.984   8.083 -2.6161 -1.7099 -3.7126
  148SAPE  C31216375   3.539   3.923   8.295  0.1586 -0.0194  0.0584
  148SAPE  H12X16376   3.619   3.846   8.290  0.5606  0.1810  2.5305
  148SAPE  H12Y16377   3.467   3.894   8.375  0.0973  0.7473  0.2814
  148SAPE  C31316378   3.599   4.056   8.339 -0.4953 -0.3555 -0.3574
  148SAPE  H13X16379   3.536   4.148   8.338 -0.6723 -0.4812 -0.5743
  148SAPE  H13Y16380   3.679   4.088   8.269 -0.6906  2.3727  0.5982
  148SAPE  C31416381   3.651   4.054   8.483 -0.0325  0.2808 -0.2605
  148SAPE  H14X16382   3.710   3.961   8.495  0.4221  0.6684  0.5829
  148SAPE  H14Y16383   3.567   4.047   8.555  0.7110  1.8037  0.7846
  148SAPE  C31516384   3.740   4.173   8.536 -0.1862  0.0062  0.0924
  148SAPE  H15X16385   3.668   4.257   8.540 -0.5004 -0.2218 -0.7547
  148SAPE  H15Y16386   3.814   4.194   8.455 -0.9100  2.8950  0.1329
  148SAPE  C31616387   3.793   4.150   8.679  0.5070 -0.2395 -0.7501
  148SAPE  H16X16388   3.836   4.048   8.690  0.9364 -0.2376 -2.3096
  148SAPE  H16Y16389   3.704   4.153   8.745  0.6484 -1.7400 -0.4633
  148SAPE  C31716390   3.873   4.273   8.738  0.0159 -0.3624  0.2108
  148SAPE  H17X16391   3.820   4.370   8.735  1.8993  0.6915  0.4224
  148SAPE  H17Y16392   3.966   4.281   8.678 -1.4662  1.9163 -1.8492
  148SAPE  C31816393   3.925   4.245   8.879 -0.0171  0.0722  0.3031
  148SAPE  H18X16394   3.994   4.158   8.877 -2.4383 -1.8534 -2.5800
  148SAPE  H18Y16395   3.836   4.226   8.943  0.9678 -0.9422  1.3929
  148SAPE  H18Z16396   3.972   4.337   8.919 -0.4797  0.1652  0.6501
  149SAPE     N16397   2.497   4.049   6.258  0.1899 -0.2638 -0.2930
  149SAPE   HN116398   2.420   4.034   6.189 -0.3633  1.0943  0.0295
  149SAPE   HN216399   2.517   3.968   6.321  0.1977 -0.8032 -0.9774
  149SAPE   HN316400   2.477   4.124   6.327 -0.4865 -0.1942 -0.5575
  149SAPE   C1216401   2.629   4.094   6.200 -0.0514  0.3471  0.0708
  149SAPE  H12A16402   2.612   4.194   6.156  0.9074  0.0671 -0.9543
  149SAPE  H12B16403   2.652   4.023   6.118  1.7233 -0.3495  1.1449
  149SAPE   C1116404   2.734   4.086   6.310 -0.0452  0.4123  0.3676
  149SAPE  H11A16405   2.712   4.165   6.384 -2.5418  0.9964 -0.9530
  149SAPE  H11B16406   2.828   4.101   6.252 -0.0957 -6.7796 -2.0571
  149SAPE     P16407   2.814   3.832   6.353  0.1759  0.1960 -0.1705
  149SAPE   O1316408   2.722   3.721   6.330 -0.3513  0.1668  0.0220
  149SAPE   O1416409   2.897   3.861   6.233  0.3755  0.0031 -0.1661
  149SAPE   O1216410   2.740   3.964   6.395  0.0548 -0.4863 -0.7344
  149SAPE   O1116411   2.905   3.789   6.477  0.8827 -0.4425  0.2594
  149SAPE    C116412   2.920   3.842   6.602  0.6902 -0.2766  0.2059
  149SAPE    HA16413   3.027   3.838   6.631  1.6515  0.8190 -2.9604
  149SAPE    HB16414   2.877   3.944   6.608  1.6371  0.2232 -1.2522
  149SAPE    C216415   2.840   3.759   6.701  0.1392  0.1310 -0.1637
  149SAPE    HS16416   2.736   3.790   6.678 -0.6699 -1.0825  1.7459
  149SAPE   O2116417   2.878   3.797   6.835  0.5195 -0.5659 -0.6246
  149SAPE   C2116418   2.806   3.887   6.892  0.0117  0.6775  0.1682
  149SAPE   O2216419   2.706   3.936   6.848  0.4212  0.1501  0.7229
  149SAPE   C2216420   2.857   3.923   7.036 -0.3471 -0.3368 -0.3377
  149SAPE   H2R16421   2.855   3.835   7.105 -1.0681 -0.3568 -0.3761
  149SAPE   H2S16422   2.966   3.941   7.033 -0.6790  1.9288  0.0478
  149SAPE    C316423   2.850   3.603   6.681 -0.0344  0.1169  0.5928
  149SAPE    HX16424   2.958   3.596   6.656 -0.7754 -0.9352 -2.4416
  149SAPE    HY16425   2.812   3.576   6.581 -0.5749  0.7418  0.6240
  149SAPE   O3116426   2.800   3.528   6.796  0.1255 -0.2712  0.2928
  149SAPE   C3116427   2.681   3.471   6.782 -0.4032 -0.8047 -0.2509
  149SAPE   O3216428   2.604   3.491   6.693 -0.2238  0.6319 -0.1279
  149SAPE   C3216429   2.652   3.396   6.910  0.3800  0.2579 -0.4346
  149SAPE   H2X16430   2.738   3.356   6.967 -1.7931 -1.3835  1.7828
  149SAPE   H2Y16431   2.585   3.311   6.883 -1.4768  2.4480 -3.0271
  149SAPE   C2316432   2.797   4.044   7.109 -0.1395  0.0421  0.1677
  149SAPE   H3R16433   2.795   4.125   7.033  1.4118  0.0910  0.1563
  149SAPE   H3S16434   2.857   4.074   7.198 -1.1008  2.5655  0.0192
  149SAPE   C2416435   2.648   4.027   7.159  0.8031  0.2174 -0.0137
  149SAPE   H4R16436   2.581   4.043   7.072  0.5265 -1.1342 -0.0625
  149SAPE   H4S16437   2.630   4.117   7.222  0.3993 -1.0134  1.6630
  149SAPE   C2516438   2.611   3.890   7.221 -0.5975  0.1630 -0.4434
  149SAPE   H5R16439   2.581   3.813   7.147  2.3196 -0.7215 -0.7898
  149SAPE   C2616440   2.613   3.845   7.349 -0.6818  0.7081 -0.1898
  149SAPE   H6R16441   2.576   3.744   7.374 -0.1923 -0.0382 -2.4520
  149SAPE   C2716442   2.656   3.928   7.467 -0.0189  0.7830 -0.0589
  149SAPE   H7R16443   2.647   4.037   7.448 -2.0061  1.1165  2.5644
  149SAPE   H7S16444   2.765   3.909   7.480  0.1694 -0.6178 -3.2661
  149SAPE   C2816445   2.591   3.903   7.602 -0.4953 -0.5063  0.1778
  149SAPE   H8R16446   2.501   3.840   7.599  1.2026 -3.0057  0.3259
  149SAPE   C2916447   2.648   3.943   7.720 -0.7418 -0.8828  0.0958
  149SAPE   H9R16448   2.616   3.909   7.820 -0.2727 -1.9067 -0.0940
  149SAPE  C21016449   2.779   4.021   7.733  0.3766 -0.8629  0.2300
  149SAPE  H10R16450   2.759   4.116   7.787  0.4320 -0.4886 -0.4009
  149SAPE  H10S16451   2.818   4.043   7.631 -1.1398 -0.4661 -0.2700
  149SAPE  C21116452   2.886   3.931   7.798  0.5392 -0.7221  0.3291
  149SAPE  H11R16453   2.931   3.861   7.726  1.9093  1.4609 -1.0319
  149SAPE  C21216454   2.941   3.945   7.917 -0.4251 -0.1859  0.0061
  149SAPE  H12R16455   3.016   3.871   7.950  0.3663  0.5127 -0.1885
  149SAPE  C21316456   2.914   4.051   8.016 -0.2415 -0.1192  0.4057
  149SAPE  H13R16457   2.892   4.007   8.115 -0.2553 -0.4673  0.2498
  149SAPE  H13S16458   2.829   4.120   7.995  0.5990  1.1349  1.0217
  149SAPE  C21416459   3.050   4.132   8.022 -0.3393 -0.2702  0.4525
  149SAPE  H14R16460   3.100   4.133   7.925  0.0944  2.3217  0.6692
  149SAPE  C21516461   3.116   4.178   8.132  0.1496 -0.9774 -0.3112
  149SAPE  H15R16462   3.212   4.227   8.109 -1.3669  1.8472 -0.7958
  149SAPE  C21616463   3.091   4.166   8.280  0.6060 -0.1438 -0.5634
  149SAPE  H16R16464   2.987   4.140   8.311  1.6379 -0.7837  2.4927
  149SAPE  H16S16465   3.116   4.267   8.319  1.0644  0.0753 -1.4199
  149SAPE  C21716466   3.182   4.081   8.369 -0.5274 -0.0248  0.7525
  149SAPE  H17R16467   3.287   4.112   8.349 -0.1214 -1.1148  1.1242
  149SAPE  H17S16468   3.169   3.974   8.340  0.1953  0.2809 -0.7382
  149SAPE  C21816469   3.159   4.100   8.522 -0.7152  0.2535  0.9200
  149SAPE  H18R16470   3.051   4.109   8.546 -0.6257  1.8928  0.8106
  149SAPE  H18S16471   3.203   4.199   8.547 -1.8448  0.9074  0.3250
  149SAPE  C21916472   3.228   3.985   8.605 -0.5176 -1.2857  0.1672
  149SAPE  H19R16473   3.328   4.023   8.634 -1.0775  1.9207 -1.9577
  149SAPE  H19S16474   3.226   3.892   8.544 -1.7154 -1.4917  0.4970
  149SAPE  C22016475   3.149   3.939   8.731  0.0768  0.3959 -0.0442
  149SAPE  H20R16476   3.115   4.026   8.792  0.3547 -0.2987  1.1262
  149SAPE  H20S16477   3.203   3.866   8.795 -1.2587  0.4291  1.1326
  149SAPE  H20T16478   3.061   3.879   8.702 -0.5155  1.1179  0.2537
  149SAPE   C3316479   2.587   3.499   7.006 -0.1427  0.0402 -0.5957
  149SAPE   H3X16480   2.482   3.518   6.973 -0.6615  1.2404  1.6549
  149SAPE   H3Y16481   2.650   3.590   7.004  1.6029 -1.1050  0.7549
  149SAPE   C3416482   2.585   3.446   7.154  0.1263 -0.6403  0.9542
  149SAPE   H4X16483   2.597   3.336   7.157  2.7824 -0.3616  1.7160
  149SAPE   H4Y16484   2.490   3.465   7.210 -2.2784  1.5762 -3.5596
  149SAPE   C3516485   2.703   3.500   7.234 -0.0591 -0.3390  0.3097
  149SAPE   H5X16486   2.690   3.611   7.243 -2.4873 -0.3420 -2.3898
  149SAPE   H5Y16487   2.808   3.492   7.200  0.3624  1.9269  0.9443
  149SAPE   C3616488   2.696   3.443   7.380  0.8722  0.2593  0.0209
  149SAPE   H6X16489   2.734   3.339   7.376 -3.3958 -1.4571  1.6330
  149SAPE   H6Y16490   2.599   3.444   7.434  0.0774 -3.2081 -1.2044
  149SAPE   C3716491   2.788   3.526   7.474  0.9405  0.3331 -0.0174
  149SAPE   H7X16492   2.728   3.617   7.497  0.9477  0.6085 -1.0526
  149SAPE   H7Y16493   2.883   3.548   7.420  2.0826 -0.7173  1.5332
  149SAPE   C3816494   2.820   3.454   7.608  0.4208 -0.9824 -0.3076
  149SAPE   H8X16495   2.890   3.368   7.603  0.4069 -0.9642 -0.8086
  149SAPE   H8Y16496   2.732   3.405   7.655  0.8502 -1.4734 -0.0051
  149SAPE   C3916497   2.866   3.549   7.718  0.4987  1.0411  0.2980
  149SAPE   H9X16498   2.807   3.643   7.722 -0.8601  0.1648  1.3718
  149SAPE   H9Y16499   2.969   3.582   7.693  1.4308 -1.4927  0.6486
  149SAPE  C31016500   2.884   3.474   7.853  0.5406  0.4090  0.1418
  149SAPE  H10X16501   2.948   3.385   7.837 -0.3133 -0.2115  0.1022
  149SAPE  H10Y16502   2.786   3.439   7.892  1.2812 -1.0326  0.7275
  149SAPE  C31116503   2.943   3.567   7.959 -0.0778  0.8283  0.2873
  149SAPE  H11X16504   2.865   3.637   7.996 -1.2368 -0.1796 -0.2239
  149SAPE  H11Y16505   3.016   3.634   7.909  0.3336 -0.1893 -0.4966
  149SAPE  C31216506   3.010   3.498   8.075  0.0165  0.0272  0.1700
  149SAPE  H12X16507   3.108   3.455   8.045 -0.2173 -0.9471  0.7858
  149SAPE  H12Y16508   2.945   3.418   8.117  0.4811 -0.8739 -0.8134
  149SAPE  C31316509   3.036   3.596   8.192  0.9127 -0.0569  0.5351
  149SAPE  H13X16510   2.946   3.660   8.206 -0.0404 -1.4593  0.9338
  149SAPE  H13Y16511   3.125   3.660   8.173 -0.9843  3.0110  1.5934
  149SAPE  C31416512   3.060   3.524   8.323  0.2977 -0.1623 -0.5343
  149SAPE  H14X16513   3.124   3.583   8.392 -1.8649  0.3821  1.0517
  149SAPE  H14Y16514   3.124   3.436   8.298  1.9155  0.8733 -0.0919
  149SAPE  C31516515   2.928   3.491   8.397  0.0067  0.3105 -0.1225
  149SAPE  H15X16516   2.867   3.423   8.334 -0.4128  0.3187  0.2736
  149SAPE  H15Y16517   2.863   3.578   8.421 -0.8392 -0.8082  1.7479
  149SAPE  C31616518   2.954   3.401   8.525  0.5320 -0.0039 -0.0485
  149SAPE  H16X16519   3.011   3.309   8.499  0.9240 -0.3310  1.9105
  149SAPE  H16Y16520   2.852   3.371   8.555  0.0095 -0.3397 -2.0747
  149SAPE  C31716521   3.022   3.477   8.631 -0.1324  0.1105 -0.5957
  149SAPE  H17X16522   3.123   3.507   8.598 -0.0478  1.1275  0.5665
  149SAPE  H17Y16523   3.031   3.405   8.715  2.5945  2.0279  0.8107
  149SAPE  C31816524   2.944   3.600   8.676 -0.1746 -0.0556  0.1568
  149SAPE  H18X16525   2.835   3.585   8.669 -0.4350  1.0649  1.4885
  149SAPE  H18Y16526   2.971   3.693   8.620  0.6963 -0.3845  0.0190
  149SAPE  H18Z16527   2.971   3.632   8.779  2.8372  1.9595 -1.1680
  150SAPE     N16528   2.243   4.913   5.951 -0.0303  0.6904 -0.2843
  150SAPE   HN116529   2.150   4.949   5.982 -1.4863 -1.4829 -2.0088
  150SAPE   HN216530   2.323   4.975   5.974  1.4334 -1.2536  0.0866
  150SAPE   HN316531   2.247   4.896   5.849  0.3485  0.9442 -0.3120
  150SAPE   C1216532   2.259   4.775   6.009 -0.0409  0.3680 -0.2318
  150SAPE  H12A16533   2.359   4.732   5.989 -0.1700  0.6579 -1.5648
  150SAPE  H12B16534   2.182   4.706   5.968  0.2913  0.2203 -0.6108
  150SAPE   C1116535   2.239   4.772   6.163  0.3723  0.1593  0.0408
  150SAPE  H11A16536   2.334   4.798   6.214  0.9872 -2.3558  0.2287
  150SAPE  H11B16537   2.210   4.672   6.200  1.2854 -0.2741 -0.4186
  150SAPE     P16538   2.157   4.995   6.291 -0.2678 -0.1662 -0.1157
  150SAPE   O1316539   2.262   5.081   6.240 -0.6521 -0.4168  0.2325
  150SAPE   O1416540   2.025   5.053   6.317 -0.0050 -0.7003  0.3035
  150SAPE   O1216541   2.137   4.871   6.192  0.3414 -0.2013 -0.7737
  150SAPE   O1116542   2.215   4.925   6.422  0.4944  0.2342  0.2299
  150SAPE    C116543   2.179   4.806   6.482  0.6558 -1.0464 -0.5554
  150SAPE    HA16544   2.148   4.728   6.410 -0.4256 -0.1965 -1.0340
  150SAPE    HB16545   2.262   4.767   6.544 -1.8315 -0.6420  3.1810
  150SAPE    C216546   2.064   4.829   6.572 -0.6677 -0.1166 -0.2513
  150SAPE    HS16547   1.982   4.857   6.503 -0.3966 -2.1637 -1.4572
  150SAPE   O2116548   2.092   4.936   6.664 -0.9065  0.5599 -0.3103
  150SAPE   C2116549   1.981   4.995   6.719 -0.1695 -0.1678 -0.6884
  150SAPE   O2216550   1.865   4.966   6.699  0.0726  0.5138 -0.2884
  150SAPE   C2216551   2.019   5.117   6.800 -0.6642  0.2532  1.1702
  150SAPE   H2R16552   2.070   5.186   6.729 -0.1629 -0.1792  1.1105
  150SAPE   H2S16553   1.922   5.166   6.823 -0.8536 -0.1554  1.2528
  150SAPE    C316554   2.024   4.697   6.655 -0.1266  1.0607  0.3147
  150SAPE    HX16555   2.012   4.607   6.591 -2.2288  1.6251 -0.1158
  150SAPE    HY16556   1.927   4.721   6.704 -0.5425 -1.7537  0.9261
  150SAPE   O3116557   2.129   4.669   6.753 -0.6593  0.5221  0.6441
  150SAPE   C3116558   2.123   4.727   6.866  0.5072 -0.2215  0.7828
  150SAPE   O3216559   2.025   4.787   6.910 -0.1290  0.3327  0.9417
  150SAPE   C3216560   2.257   4.739   6.937  0.3566  0.0330 -0.1446
  150SAPE   H2X16561   2.314   4.801   6.864  0.0937  0.7138  0.2300
  150SAPE   H2Y16562   2.310   4.643   6.951  0.6675  0.3784  1.1398
  150SAPE   C2316563   2.123   5.096   6.919  0.5810  0.3200  1.0620
  150SAPE   H3R16564   2.204   5.027   6.888  0.4103  0.0025  1.3173
  150SAPE   H3S16565   2.066   5.046   7.000  0.8260 -0.6752  0.6367
  150SAPE   C2416566   2.184   5.234   6.943 -0.3863 -0.1356  0.1319
  150SAPE   H4R16567   2.101   5.306   6.963  1.7054  3.1622 -2.4108
  150SAPE   H4S16568   2.221   5.272   6.845 -1.1721 -0.4108 -0.2722
  150SAPE   C2516569   2.292   5.242   7.055  0.2024  0.2567  0.1462
  150SAPE   H5R16570   2.392   5.272   7.021 -0.1654  1.4574  0.1194
  150SAPE   C2616571   2.275   5.227   7.187 -0.6293 -0.0618 -0.4944
  150SAPE   H6R16572   2.364   5.227   7.251 -0.1812 -2.3619 -1.0517
  150SAPE   C2716573   2.149   5.193   7.265  0.6831  0.7759  0.2235
  150SAPE   H7R16574   2.144   5.085   7.291 -0.2853  1.0147  1.0972
  150SAPE   H7S16575   2.066   5.207   7.192 -0.5790 -1.0200  1.2506
  150SAPE   C2816576   2.130   5.295   7.372  0.0481 -0.5321 -0.1998
  150SAPE   H8R16577   2.111   5.398   7.338  1.7508  0.1018  0.7033
  150SAPE   C2916578   2.130   5.277   7.503 -0.1799  0.0410  0.4112
  150SAPE   H9R16579   2.125   5.364   7.570  0.1568 -0.2533  0.8209
  150SAPE  C21016580   2.143   5.137   7.575  0.3129 -0.2784  0.3587
  150SAPE  H10R16581   2.150   5.054   7.502 -0.1821  1.2665 -1.4795
  150SAPE  H10S16582   2.043   5.122   7.622  0.1075  0.5289  0.1929
  150SAPE  C21116583   2.256   5.118   7.674  0.2948  0.4337 -0.0501
  150SAPE  H11R16584   2.351   5.095   7.625 -0.4885 -0.2248 -1.2797
  150SAPE  C21216585   2.234   5.127   7.803 -0.2154  0.6603  0.5642
  150SAPE  H12R16586   2.317   5.129   7.875  0.8283  1.1550 -0.6360
  150SAPE  C21316587   2.110   5.166   7.882 -0.1132  0.2744 -0.3352
  150SAPE  H13R16588   2.109   5.103   7.974  0.8707 -0.7916 -1.0300
  150SAPE  H13S16589   2.018   5.130   7.831 -0.6772 -1.4836  1.8011
  150SAPE  C21416590   2.118   5.310   7.917 -0.3936  0.4879  0.9486
  150SAPE  H14R16591   2.187   5.370   7.856  0.9742 -2.4179 -0.4217
  150SAPE  C21516592   2.056   5.369   8.024 -0.2696 -0.4468  0.2956
  150SAPE  H15R16593   2.065   5.475   8.049  0.8700 -1.2241  3.3786
  150SAPE  C21616594   1.973   5.291   8.127 -0.0636 -0.7194  0.4247
  150SAPE  H16R16595   1.927   5.197   8.088 -3.4817  0.8514  0.4297
  150SAPE  H16S16596   1.879   5.346   8.150  0.0632 -0.6000  0.6496
  150SAPE  C21716597   2.052   5.260   8.259 -0.5490 -0.5763  0.8989
  150SAPE  H17R16598   2.079   5.357   8.304  0.0094 -0.0396 -0.5717
  150SAPE  H17S16599   2.145   5.204   8.231 -0.7570 -0.1385 -0.7242
  150SAPE  C21816600   1.979   5.186   8.362  0.6507 -0.3605 -0.3463
  150SAPE  H18R16601   1.962   5.090   8.309 -0.1731 -0.1837 -0.4172
  150SAPE  H18S16602   1.876   5.219   8.387  0.5081 -1.1488  0.0937
  150SAPE  C21916603   2.061   5.144   8.483 -0.3187 -0.0820 -0.4701
  150SAPE  H19R16604   2.156   5.098   8.450 -0.8271  0.3847 -2.6425
  150SAPE  H19S16605   2.002   5.079   8.550 -0.8014  1.3116  0.4749
  150SAPE  C22016606   2.098   5.267   8.566  0.1402  0.1601  0.0692
  150SAPE  H20R16607   2.159   5.241   8.655  1.5194  1.9616 -0.3002
  150SAPE  H20S16608   2.005   5.319   8.598 -0.2147 -0.0314 -0.6576
  150SAPE  H20T16609   2.168   5.334   8.512  0.8001 -0.7811 -0.2574
  150SAPE   C3316610   2.267   4.820   7.067 -0.0013  0.1894 -0.1150
  150SAPE   H3X16611   2.193   4.903   7.060  1.5895  1.4978 -2.0884
  150SAPE   H3Y16612   2.366   4.868   7.086 -0.6104  0.6002  2.2075
  150SAPE   C3416613   2.247   4.718   7.180  0.3712  0.0334 -0.6489
  150SAPE   H4X16614   2.318   4.633   7.173 -0.5364 -0.6677 -1.4247
  150SAPE   H4Y16615   2.154   4.666   7.147  0.3413  0.4736 -1.2485
  150SAPE   C3516616   2.240   4.765   7.321 -0.0976 -0.4191 -0.0770
  150SAPE   H5X16617   2.169   4.849   7.337 -1.7932 -1.4382 -2.0396
  150SAPE   H5Y16618   2.338   4.814   7.341  0.1725 -0.3962 -1.3962
  150SAPE   C3616619   2.226   4.660   7.422  0.2701  1.2408  0.5418
  150SAPE   H6X16620   2.318   4.597   7.419  0.0509  0.9450 -0.0716
  150SAPE   H6Y16621   2.138   4.598   7.395 -0.1514  2.4890 -0.9623
  150SAPE   C3716622   2.211   4.700   7.565  0.6118 -0.2511  0.2061
  150SAPE   H7X16623   2.142   4.626   7.611  0.4930 -2.0555 -2.7488
  150SAPE   H7Y16624   2.156   4.797   7.563  0.1283 -0.4878  1.4492
  150SAPE   C3816625   2.336   4.708   7.642 -0.0341 -0.0087  0.3590
  150SAPE   H8X16626   2.391   4.790   7.591 -1.3230  0.7472  0.1413
  150SAPE   H8Y16627   2.398   4.618   7.626  1.2076  0.9639 -0.3996
  150SAPE   C3916628   2.307   4.740   7.788 -0.1508 -0.1298  0.1773
  150SAPE   H9X16629   2.220   4.810   7.795  0.3056  0.4633 -0.1072
  150SAPE   H9Y16630   2.393   4.798   7.828 -0.6755 -1.1799  2.9709
  150SAPE  C31016631   2.284   4.624   7.869  0.6486 -0.5411 -0.0349
  150SAPE  H10X16632   2.375   4.560   7.872 -0.0500 -1.4864  2.5397
  150SAPE  H10Y16633   2.186   4.575   7.849  0.0212  0.3991  0.6437
  150SAPE  C31116634   2.247   4.670   8.018 -0.1570  0.0115  0.0497
  150SAPE  H11X16635   2.141   4.703   8.012 -0.2747 -0.2349  0.7543
  150SAPE  H11Y16636   2.313   4.753   8.051  0.3859 -1.1534  1.9852
  150SAPE  C31216637   2.256   4.556   8.120  0.0089 -0.6692 -0.8244
  150SAPE  H12X16638   2.360   4.539   8.154 -0.4231  3.3804  3.0161
  150SAPE  H12Y16639   2.220   4.459   8.079 -0.2381 -1.9580  2.2367
  150SAPE  C31316640   2.171   4.585   8.248 -0.2335  0.4952  0.1845
  150SAPE  H13X16641   2.064   4.559   8.234 -0.5399  2.2657 -0.9697
  150SAPE  H13Y16642   2.166   4.689   8.288  0.5313  0.1253  1.2694
  150SAPE  C31416643   2.212   4.488   8.357 -0.4326 -0.3649 -0.4132
  150SAPE  H14X16644   2.135   4.498   8.436  0.2842  2.3704 -0.0258
  150SAPE  H14Y16645   2.309   4.519   8.402 -0.2585 -1.9683  0.3734
  150SAPE  C31516646   2.229   4.335   8.325  0.0941  0.2197 -0.2769
  150SAPE  H15X16647   2.318   4.333   8.258  0.8831 -0.4638  0.7689
  150SAPE  H15Y16648   2.140   4.295   8.272  0.7024  0.0817 -1.2127
  150SAPE  C31616649   2.250   4.253   8.452  0.6207 -0.4197 -0.2743
  150SAPE  H16X16650   2.315   4.303   8.527 -0.9481  0.3580  0.5780
  150SAPE  H16Y16651   2.293   4.162   8.406 -0.0157  1.0602 -3.9630
  150SAPE  C31716652   2.119   4.215   8.519 -0.1620 -0.4096 -0.4123
  150SAPE  H17X16653   2.047   4.159   8.455 -0.1215 -0.8766 -0.0556
  150SAPE  H17Y16654   2.068   4.306   8.557 -0.5684 -1.1460  0.8681
  150SAPE  C31816655   2.129   4.133   8.648  0.4352 -0.1849 -0.1260
  150SAPE  H18X16656   2.183   4.039   8.626  0.2141  0.0937 -1.9581
  150SAPE  H18Y16657   2.033   4.105   8.696  0.3371  1.1049  0.4413
  150SAPE  H18Z16658   2.191   4.192   8.719 -3.2783  2.6942  0.9043
  151SAPE     N16659   4.346   2.885   6.464 -0.0807  0.4950  0.6322
  151SAPE   HN116660   4.257   2.938   6.452  0.2561  0.8796 -0.1173
  151SAPE   HN216661   4.369   2.867   6.564  0.3710  0.8138  0.5872
  151SAPE   HN316662   4.416   2.951   6.426 -0.9245  0.4172 -1.1141
  151SAPE   C1216663   4.340   2.756   6.397  1.1146  0.4416 -0.5092
  151SAPE  H12A16664   4.243   2.704   6.412  0.7988  1.3641  0.6312
  151SAPE  H12B16665   4.422   2.691   6.434  1.5157  2.8198  2.9457
  151SAPE   C1116666   4.357   2.771   6.240 -0.0798 -0.2392 -0.7701
  151SAPE  H11A16667   4.269   2.832   6.209  1.6854  2.6350 -0.3120
  151SAPE  H11B16668   4.355   2.672   6.189  1.9296 -0.2496 -0.8468
  151SAPE     P16669   4.619   2.750   6.204 -0.5221 -0.0770 -0.1343
  151SAPE   O1316670   4.602   2.633   6.112 -0.0202  0.1514 -0.3184
  151SAPE   O1416671   4.729   2.840   6.170 -0.2403  0.0634 -0.3636
  151SAPE   O1216672   4.483   2.827   6.209 -0.0679 -0.1163 -0.0795
  151SAPE   O1116673   4.638   2.682   6.347 -0.4130  0.1800  0.6377
  151SAPE    C116674   4.721   2.747   6.443 -0.0483 -0.6378 -0.8755
  151SAPE    HA16675   4.724   2.856   6.423  1.6059 -0.6573 -0.7777
  151SAPE    HB16676   4.689   2.734   6.548  0.8866 -0.6998 -0.5994
  151SAPE    C216677   4.863   2.681   6.447 -0.0668  0.4794  0.3972
  151SAPE    HS16678   4.908   2.675   6.346  1.1784  0.3516  0.9465
  151SAPE   O2116679   4.842   2.552   6.506 -0.0650  0.5334  0.1346
  151SAPE   C2116680   4.920   2.455   6.459  0.3160  0.1730  0.0097
  151SAPE   O2216681   5.021   2.478   6.396  0.3814  0.1165  0.0859
  151SAPE   C2216682   4.882   2.316   6.512  0.5569  0.3451 -0.1068
  151SAPE   H2R16683   4.773   2.310   6.491  0.6582 -0.9674 -0.3385
  151SAPE   H2S16684   4.933   2.237   6.452 -0.5155 -0.6671  0.2925
  151SAPE    C316685   4.967   2.764   6.535  0.1374  0.1062  0.3370
  151SAPE    HX16686   4.999   2.851   6.474  1.9058 -0.7102  0.0461
  151SAPE    HY16687   5.058   2.700   6.544 -0.2959 -0.4136  0.9810
  151SAPE   O3116688   4.907   2.807   6.667  0.5732 -0.3349 -0.0698
  151SAPE   C3116689   4.967   2.744   6.773  0.2174 -0.3023  0.4285
  151SAPE   O3216690   5.056   2.661   6.766  0.0821 -0.0967 -0.1510
  151SAPE   C3216691   4.879   2.789   6.890  0.6420 -0.1192  0.1890
  151SAPE   H2X16692   4.780   2.745   6.865  0.4506  1.0493 -1.1521
  151SAPE   H2Y16693   4.874   2.900   6.891  2.1735 -0.0013 -1.6545
  151SAPE   C2316694   4.894   2.286   6.671 -0.2908 -0.2477  0.3798
  151SAPE   H3R16695   5.001   2.301   6.697 -0.5062 -0.2195  1.2903
  151SAPE   H3S16696   4.864   2.182   6.694 -1.4411  0.0263  0.1522
  151SAPE   C2416697   4.810   2.378   6.765 -0.0040  0.2775 -0.0137
  151SAPE   H4R16698   4.850   2.480   6.748 -0.0091  0.1943 -0.5506
  151SAPE   H4S16699   4.829   2.355   6.872  1.5551  0.3712 -0.2623
  151SAPE   C2516700   4.665   2.380   6.738  0.0616 -0.6995  0.7075
  151SAPE   H5R16701   4.640   2.417   6.637  0.0819 -0.6909  0.7055
  151SAPE   C2616702   4.561   2.357   6.825  0.3735  0.1969 -0.3476
  151SAPE   H6R16703   4.457   2.371   6.791  0.4107 -0.7844 -0.8718
  151SAPE   C2716704   4.570   2.324   6.971 -0.1526  0.4282  0.0451
  151SAPE   H7R16705   4.630   2.399   7.028  1.0367 -2.9610  3.4557
  151SAPE   H7S16706   4.618   2.224   6.978 -1.0501  0.1013  1.9541
  151SAPE   C2816707   4.432   2.296   7.028  0.4227  0.9064 -0.4107
  151SAPE   H8R16708   4.363   2.241   6.962  1.2166  0.9605 -1.3028
  151SAPE   C2916709   4.398   2.331   7.154  0.3244  1.2316 -0.4708
  151SAPE   H9R16710   4.301   2.291   7.188  0.3896  1.2884 -0.2178
  151SAPE  C21016711   4.492   2.381   7.259 -0.0957  1.3036  0.8367
  151SAPE  H10R16712   4.600   2.389   7.234 -0.4527 -0.2170 -1.3181
  151SAPE  H10S16713   4.483   2.315   7.349  1.6283 -1.1073 -0.6986
  151SAPE  C21116714   4.450   2.521   7.288 -0.2419  0.7020  0.4268
  151SAPE  H11R16715   4.483   2.599   7.218  1.8478 -0.5340 -0.0110
  151SAPE  C21216716   4.370   2.562   7.390  0.0379  0.4477  0.1306
  151SAPE  H12R16717   4.371   2.672   7.387 -0.0044  0.6099  3.9845
  151SAPE  C21316718   4.304   2.485   7.502 -0.2361  0.4124  0.2686
  151SAPE  H13R16719   4.342   2.380   7.509 -2.4125 -0.5221 -1.2794
  151SAPE  H13S16720   4.196   2.481   7.477  0.3657 -1.2170 -2.2652
  151SAPE  C21416721   4.318   2.548   7.641  0.4102  0.0728  0.0077
  151SAPE  H14R16722   4.278   2.650   7.636  1.5125  0.5095 -0.2058
  151SAPE  C21516723   4.382   2.500   7.748  0.1357  0.0377  0.3492
  151SAPE  H15R16724   4.396   2.564   7.835 -1.6618 -0.2642  0.8957
  151SAPE  C21616725   4.463   2.372   7.755 -0.8303 -0.8254 -0.0765
  151SAPE  H16R16726   4.571   2.391   7.739 -0.9813 -0.1921 -0.3529
  151SAPE  H16S16727   4.439   2.297   7.676  2.3386  0.5669 -2.4699
  151SAPE  C21716728   4.429   2.303   7.885 -1.0233 -0.1346 -0.3928
  151SAPE  H17R16729   4.475   2.202   7.892 -1.5484 -0.4910 -1.8980
  151SAPE  H17S16730   4.321   2.276   7.892 -1.3121  1.2317  0.6513
  151SAPE  C21816731   4.472   2.385   8.013 -0.4646 -0.1097 -0.2730
  151SAPE  H18R16732   4.386   2.454   8.031 -0.8018 -0.0338 -2.1076
  151SAPE  H18S16733   4.566   2.445   8.015 -0.1435 -0.6167  0.0499
  151SAPE  C21916734   4.503   2.296   8.135 -0.0995  0.2969  0.2529
  151SAPE  H19R16735   4.592   2.230   8.123  1.3334  2.1920  0.2445
  151SAPE  H19S16736   4.420   2.224   8.152 -1.7542  2.7240  2.8768
  151SAPE  C22016737   4.518   2.371   8.260  0.3602  0.7414 -0.6171
  151SAPE  H20R16738   4.440   2.445   8.287  0.3320  0.2952  0.5604
  151SAPE  H20S16739   4.527   2.297   8.343 -1.0217 -0.8789 -1.8525
  151SAPE  H20T16740   4.606   2.438   8.266 -1.4967  3.4136 -2.1140
  151SAPE   C3316741   4.913   2.710   7.020 -0.8403 -0.7307  0.4850
  151SAPE   H3X16742   5.017   2.744   7.040 -1.3801  0.0807  1.9726
  151SAPE   H3Y16743   4.914   2.605   6.984  0.1463  0.3259 -2.7864
  151SAPE   C3416744   4.814   2.719   7.135  0.5096 -0.2209  0.8532
  151SAPE   H4X16745   4.713   2.682   7.108  1.0018 -1.8363  1.2183
  151SAPE   H4Y16746   4.808   2.826   7.166  1.5193  0.0332  0.1952
  151SAPE   C3516747   4.854   2.640   7.260 -0.2414  0.6984  0.4081
  151SAPE   H5X16748   4.962   2.663   7.273 -0.1162 -0.9506  2.5033
  151SAPE   H5Y16749   4.850   2.532   7.236  0.6447  1.3095 -2.8390
  151SAPE   C3616750   4.793   2.691   7.391 -0.2599 -0.7162  0.2877
  151SAPE   H6X16751   4.682   2.698   7.393 -0.2197  0.1594 -0.3520
  151SAPE   H6Y16752   4.840   2.788   7.417  0.5455 -0.8937 -0.4710
  151SAPE   C3716753   4.825   2.596   7.503 -0.0942 -0.6133 -0.5767
  151SAPE   H7X16754   4.935   2.582   7.507  0.4047  3.1710  1.0596
  151SAPE   H7Y16755   4.785   2.495   7.480 -0.7941 -0.7809  1.3027
  151SAPE   C3816756   4.782   2.650   7.649 -0.1371  0.2829  0.2880
  151SAPE   H8X16757   4.673   2.673   7.654 -0.3571 -0.6696 -0.0084
  151SAPE   H8Y16758   4.827   2.750   7.662  2.9361 -1.0595  0.2516
  151SAPE   C3916759   4.826   2.555   7.759 -0.2038  0.4997 -0.1990
  151SAPE   H9X16760   4.916   2.503   7.721 -1.7933 -1.7721 -0.9668
  151SAPE   H9Y16761   4.762   2.465   7.775 -0.8936  1.0440  0.1427
  151SAPE  C31016762   4.857   2.632   7.892  0.4325 -0.1591 -0.3706
  151SAPE  H10X16763   4.921   2.717   7.860  0.4946 -0.5378 -1.2681
  151SAPE  H10Y16764   4.907   2.556   7.956  0.1636  0.6377  0.7941
  151SAPE  C31116765   4.739   2.685   7.971 -0.1296  0.4253  0.3614
  151SAPE  H11X16766   4.663   2.607   7.995 -0.8574  1.4895  1.5576
  151SAPE  H11Y16767   4.684   2.756   7.905 -0.0043 -2.0427 -2.5260
  151SAPE  C31216768   4.768   2.765   8.099  0.1725  0.4181  0.0200
  151SAPE  H12X16769   4.667   2.805   8.125  0.4870  1.4242 -0.2964
  151SAPE  H12Y16770   4.837   2.851   8.090  3.4212 -1.9224  1.2820
  151SAPE  C31316771   4.818   2.678   8.218 -0.4621 -0.0820 -0.4587
  151SAPE  H13X16772   4.918   2.634   8.198 -0.4948 -1.0895  1.4759
  151SAPE  H13Y16773   4.752   2.589   8.220  0.0173 -0.3959  1.8135
  151SAPE  C31416774   4.812   2.753   8.349  0.3069 -0.7796  0.4246
  151SAPE  H14X16775   4.712   2.799   8.332 -0.1982 -2.5720 -1.5687
  151SAPE  H14Y16776   4.881   2.841   8.353 -1.1239  0.4254 -0.5534
  151SAPE  C31516777   4.827   2.672   8.473 -0.2807  0.3060 -0.1675
  151SAPE  H15X16778   4.934   2.641   8.479 -0.1019  0.6441 -1.4734
  151SAPE  H15Y16779   4.754   2.590   8.458 -0.4759  0.6399 -1.0632
  151SAPE  C31616780   4.810   2.748   8.604  0.3455  0.4697 -0.0193
  151SAPE  H16X16781   4.709   2.795   8.597 -0.0888 -0.6235 -1.5754
  151SAPE  H16Y16782   4.873   2.839   8.607 -0.6845  1.1219  2.8869
  151SAPE  C31716783   4.838   2.649   8.720 -0.1352  0.4645 -0.9230
  151SAPE  H17X16784   4.805   2.702   8.812 -2.0402 -2.2953  0.0283
  151SAPE  H17Y16785   4.947   2.634   8.707  0.0873  1.3006 -0.1596
  151SAPE  C31816786   4.772   2.514   8.725 -0.0522 -0.2068 -0.1402
  151SAPE  H18X16787   4.808   2.465   8.632  2.0447  1.0680 -0.0355
  151SAPE  H18Y16788   4.662   2.527   8.719 -0.1141 -0.6802 -0.0078
  151SAPE  H18Z16789   4.803   2.453   8.812 -0.0538 -1.7193 -1.1869
  152SAPE     N16790   1.391   6.210   6.181 -0.3472 -0.3887 -0.3207
  152SAPE   HN116791   1.289   6.191   6.191 -0.2845 -1.5404 -1.7005
  152SAPE   HN216792   1.418   6.268   6.263  0.1622 -1.0236 -0.0385
  152SAPE   HN316793   1.405   6.271   6.098 -0.3689  1.4918  1.0152
  152SAPE   C1216794   1.469   6.087   6.165  0.0605  0.6444  0.4121
  152SAPE  H12A16795   1.434   6.034   6.074  1.8939 -2.4128  1.4409
  152SAPE  H12B16796   1.450   6.016   6.248 -1.7498 -0.6769 -1.1097
  152SAPE   C1116797   1.624   6.128   6.160 -0.2931  0.7744 -0.6765
  152SAPE  H11A16798   1.645   6.212   6.231 -3.4525  1.4448 -0.4478
  152SAPE  H11B16799   1.643   6.168   6.058  3.6094  0.5642 -0.1113
  152SAPE     P16800   1.865   6.039   6.203 -0.0873  0.6439  0.0710
  152SAPE   O1316801   1.925   5.920   6.142 -0.8498  0.3938  0.1759
  152SAPE   O1416802   1.911   6.165   6.143  0.5158 -0.2496 -0.0736
  152SAPE   O1216803   1.711   6.016   6.191  0.1506  0.1980 -0.2078
  152SAPE   O1116804   1.897   6.025   6.358  0.6663  0.5249  0.0029
  152SAPE    C116805   1.812   5.939   6.436 -0.6786 -0.1320  1.3169
  152SAPE    HA16806   1.715   5.990   6.450 -1.6446 -1.9832  1.5612
  152SAPE    HB16807   1.793   5.839   6.390 -0.0088  0.7859 -1.0459
  152SAPE    C216808   1.876   5.899   6.572  1.0150  0.5514 -0.0022
  152SAPE    HS16809   1.820   5.814   6.616  0.3310  1.0509  0.0879
  152SAPE   O2116810   1.883   6.005   6.658  0.0365  0.4069  0.7864
  152SAPE   C2116811   1.875   5.984   6.787 -0.0649 -0.6495  1.1518
  152SAPE   O2216812   1.850   5.878   6.844  0.0375  0.0956 -0.0181
  152SAPE   C2216813   1.879   6.118   6.848  0.5398  0.3558 -0.1289
  152SAPE   H2R16814   1.984   6.154   6.840  1.2363 -1.6210 -0.0418
  152SAPE   H2S16815   1.817   6.197   6.800 -1.5097 -0.1317  1.6620
  152SAPE    C316816   2.020   5.835   6.548 -0.0416 -0.3070 -0.7084
  152SAPE    HX16817   2.075   5.894   6.471 -0.1296 -1.8277 -1.9650
  152SAPE    HY16818   1.996   5.736   6.504 -1.0948  0.0603 -0.9726
  152SAPE   O3116819   2.104   5.823   6.665  0.4031 -0.5096 -0.1874
  152SAPE   C3116820   2.150   5.702   6.701  0.6670 -0.2169  0.3649
  152SAPE   O3216821   2.129   5.600   6.633  0.4969 -0.0717 -0.4695
  152SAPE   C3216822   2.239   5.716   6.823  0.1154  0.5762 -0.1692
  152SAPE   H2X16823   2.334   5.762   6.789  0.0773 -0.1288 -1.2597
  152SAPE   H2Y16824   2.259   5.610   6.848 -0.3117  0.5760  0.1810
  152SAPE   C2316825   1.845   6.112   7.003  1.0347  0.1084  0.4265
  152SAPE   H3R16826   1.929   6.061   7.055 -0.8342 -0.8018  2.6671
  152SAPE   H3S16827   1.749   6.057   7.014  2.2836 -1.9033  1.8188
  152SAPE   C2416828   1.831   6.251   7.064  0.4826  0.1935  0.4445
  152SAPE   H4R16829   1.915   6.321   7.045  0.5668  0.3400  1.3559
  152SAPE   H4S16830   1.834   6.250   7.175 -0.0297  1.8244  0.4867
  152SAPE   C2516831   1.703   6.319   7.031  0.3105  0.1250 -0.3134
  152SAPE   H5R16832   1.708   6.382   6.941  1.2548 -1.2983 -1.2720
  152SAPE   C2616833   1.591   6.325   7.108 -0.0857 -0.0793  0.2603
  152SAPE   H6R16834   1.506   6.391   7.085 -0.9927 -0.3378  2.7445
  152SAPE   C2716835   1.581   6.258   7.244 -0.2365  0.7778 -0.0079
  152SAPE   H7R16836   1.622   6.155   7.240 -0.8362  0.3564  3.0072
  152SAPE   H7S16837   1.478   6.233   7.279 -0.2026  0.0913 -0.4094
  152SAPE   C2816838   1.659   6.318   7.364  0.0284  0.7735  0.5531
  152SAPE   H8R16839   1.757   6.359   7.334 -0.8333  1.1230 -1.9477
  152SAPE   C2916840   1.614   6.354   7.484  0.4376 -0.5190 -0.2882
  152SAPE   H9R16841   1.680   6.389   7.565 -0.7133 -2.5968  1.6155
  152SAPE  C21016842   1.474   6.331   7.535  0.5152  0.7586  0.3052
  152SAPE  H10R16843   1.465   6.222   7.548  1.1913  0.6190 -0.3324
  152SAPE  H10S16844   1.401   6.359   7.456  0.4081  0.8264  0.4285
  152SAPE  C21116845   1.449   6.415   7.656 -0.3061 -1.0338  0.2156
  152SAPE  H11R16846   1.446   6.523   7.637  0.5787 -0.7844  1.4628
  152SAPE  C21216847   1.435   6.361   7.778  0.3750  0.0235  0.9531
  152SAPE  H12R16848   1.399   6.424   7.861  0.0466  1.0400  0.0506
  152SAPE  C21316849   1.435   6.217   7.816 -0.3764 -0.0307  0.2133
  152SAPE  H13R16850   1.536   6.172   7.825 -0.5202 -0.6356 -1.1742
  152SAPE  H13S16851   1.396   6.161   7.729  0.7127  2.5201 -1.9779
  152SAPE  C21416852   1.343   6.189   7.934  0.2468 -0.0930  0.5663
  152SAPE  H14R16853   1.234   6.181   7.916  0.4082 -0.3733 -0.3451
  152SAPE  C21516854   1.388   6.168   8.055  0.2084 -0.0590 -0.7366
  152SAPE  H15R16855   1.324   6.131   8.137  1.2176 -0.5810 -0.1742
  152SAPE  C21616856   1.531   6.177   8.105 -0.2106  0.1336  0.2773
  152SAPE  H16R16857   1.565   6.279   8.074  0.5791 -0.6134 -1.4118
  152SAPE  H16S16858   1.596   6.103   8.053 -1.0917  2.0459 -3.7904
  152SAPE  C21716859   1.531   6.175   8.259  0.2432  0.1639  0.2125
  152SAPE  H17R16860   1.498   6.079   8.303  2.5817 -0.4894  0.5973
  152SAPE  H17S16861   1.463   6.249   8.307 -2.3661 -0.6240 -2.1115
  152SAPE  C21816862   1.670   6.192   8.320  0.4018 -0.0553 -0.0608
  152SAPE  H18R16863   1.710   6.286   8.277  1.1363  0.2514  1.2788
  152SAPE  H18S16864   1.737   6.109   8.289 -0.2799 -0.2636 -0.9989
  152SAPE  C21916865   1.666   6.191   8.476  0.0447 -0.3212  0.3000
  152SAPE  H19R16866   1.599   6.107   8.507 -2.3512  1.5113  0.2516
  152SAPE  H19S16867   1.614   6.277   8.524  0.8553 -0.0400  0.6819
  152SAPE  C22016868   1.799   6.162   8.543  0.3868 -0.1007 -0.8804
  152SAPE  H20R16869   1.805   6.185   8.652 -0.4493  0.8370 -1.0313
  152SAPE  H20S16870   1.882   6.220   8.497  1.9087 -0.0046  1.8498
  152SAPE  H20T16871   1.835   6.060   8.516  0.1033 -0.9105  1.6110
  152SAPE   C3316872   2.183   5.788   6.945 -0.6244  0.0559  0.1880
  152SAPE   H3X16873   2.126   5.878   6.914  0.4212  1.3007  1.7596
  152SAPE   H3Y16874   2.266   5.823   7.011 -0.4522  3.5612 -1.7698
  152SAPE   C3416875   2.085   5.706   7.035  0.0951 -0.6607  0.3036
  152SAPE   H4X16876   2.136   5.613   7.067 -0.3389 -1.3190 -0.8969
  152SAPE   H4Y16877   1.995   5.681   6.975  1.6834 -2.4625 -1.4176
  152SAPE   C3516878   2.035   5.774   7.165  0.1424  0.1208  0.7347
  152SAPE   H5X16879   1.974   5.864   7.143  1.5817  1.4460  1.9515
  152SAPE   H5Y16880   2.131   5.809   7.210  1.4596 -0.6514 -1.3902
  152SAPE   C3616881   1.995   5.685   7.283  0.3275 -1.5388 -0.4042
  152SAPE   H6X16882   2.071   5.603   7.275  0.2380 -1.5395 -1.2479
  152SAPE   H6Y16883   1.898   5.634   7.265  0.2821 -1.0353 -1.6489
  152SAPE   C3716884   2.005   5.757   7.414 -0.1558 -0.0668  0.5684
  152SAPE   H7X16885   1.910   5.815   7.423  1.0578  1.6845  2.5627
  152SAPE   H7Y16886   2.090   5.829   7.414 -0.4314  0.2869  2.4590
  152SAPE   C3816887   2.005   5.663   7.537  0.4159 -0.5885 -1.3274
  152SAPE   H8X16888   2.003   5.726   7.628  1.7895  1.2594 -2.5427
  152SAPE   H8Y16889   2.102   5.609   7.539  1.0343  0.5143  3.8432
  152SAPE   C3916890   1.887   5.560   7.533 -0.2346 -0.6691  0.9495
  152SAPE   H9X16891   1.907   5.476   7.463  0.4222 -0.5950  1.0405
  152SAPE   H9Y16892   1.792   5.595   7.487  0.8593  3.3973  1.5587
  152SAPE  C31016893   1.847   5.508   7.672 -0.4924 -0.1400  0.3757
  152SAPE  H10X16894   1.802   5.587   7.736 -1.1561 -0.8357  0.7721
  152SAPE  H10Y16895   1.942   5.477   7.720  0.1190  2.2506  0.7924
  152SAPE  C31116896   1.760   5.380   7.677  0.5870  0.3334 -0.5362
  152SAPE  H11X16897   1.826   5.301   7.635  1.8917  0.1007  1.9236
  152SAPE  H11Y16898   1.662   5.402   7.629 -1.3917 -2.6107  1.8973
  152SAPE  C31216899   1.720   5.348   7.825  0.0003  1.2504 -0.2480
  152SAPE  H12X16900   1.799   5.383   7.895  1.7579  0.2701 -1.6798
  152SAPE  H12Y16901   1.715   5.237   7.835 -1.2787  1.3583  0.3619
  152SAPE  C31316902   1.586   5.403   7.869 -0.0446 -0.0375 -0.4838
  152SAPE  H13X16903   1.509   5.355   7.804 -0.1746 -0.3958 -0.0624
  152SAPE  H13Y16904   1.592   5.513   7.858 -2.1065 -0.0478 -2.2156
  152SAPE  C31416905   1.535   5.374   8.015  0.4128 -0.0947 -0.3728
  152SAPE  H14X16906   1.602   5.412   8.095 -0.0986 -0.3338  0.1714
  152SAPE  H14Y16907   1.543   5.264   8.025  1.3690  0.0571  0.6717
  152SAPE  C31516908   1.385   5.411   8.021  0.0935  0.3462  0.5506
  152SAPE  H15X16909   1.330   5.360   7.938 -1.7999 -0.9584  2.5331
  152SAPE  H15Y16910   1.380   5.521   8.012 -0.4327  0.2937  0.1683
  152SAPE  C31616911   1.331   5.367   8.158  0.4876  0.0239 -0.1876
  152SAPE  H16X16912   1.413   5.366   8.233  0.4318 -0.9506 -0.1286
  152SAPE  H16Y16913   1.312   5.258   8.152  2.2392 -0.3311  0.3940
  152SAPE  C31716914   1.225   5.458   8.220 -0.0686  0.1224 -0.8182
  152SAPE  H17X16915   1.131   5.468   8.161  1.5055 -0.0927 -3.4143
  152SAPE  H17Y16916   1.276   5.556   8.235  2.1705 -1.1386 -0.0156
  152SAPE  C31816917   1.177   5.403   8.351 -0.2536  0.2711 -0.6022
  152SAPE  H18X16918   1.106   5.473   8.401  2.1591  0.2330  2.9955
  152SAPE  H18Y16919   1.254   5.369   8.423 -0.5194 -2.9742 -1.7471
  152SAPE  H18Z16920   1.121   5.307   8.339 -2.3338  1.3760  0.0160
  153SAPE     N16921   5.024   6.408   6.281  0.2753  0.4506 -0.2933
  153SAPE   HN116922   4.922   6.427   6.292  0.3656  1.7802 -1.5804
  153SAPE   HN216923   5.069   6.492   6.322  0.5212  1.6924 -3.0287
  153SAPE   HN316924   5.052   6.403   6.182  0.7738  0.6720 -0.1625
  153SAPE   C1216925   5.059   6.275   6.347  1.5678 -0.0666  0.1066
  153SAPE  H12A16926   5.051   6.292   6.456  0.4609 -0.7254  0.1288
  153SAPE  H12B16927   5.170   6.271   6.334  1.6393 -4.1527  1.3125
  153SAPE   C1116928   4.977   6.160   6.292 -0.2744 -0.1463  0.4951
  153SAPE  H11A16929   4.986   6.075   6.364  2.6401 -0.4361 -0.1644
  153SAPE  H11B16930   5.028   6.132   6.198  1.7551 -0.5445  1.6645
  153SAPE     P16931   4.733   6.185   6.387  0.5718  0.2205 -0.2537
  153SAPE   O1316932   4.599   6.236   6.347  0.1931  0.6522  0.3090
  153SAPE   O1416933   4.732   6.051   6.448  0.6055 -0.8261 -0.2713
  153SAPE   O1216934   4.834   6.186   6.266  0.3392  0.3672 -0.2246
  153SAPE   O1116935   4.801   6.283   6.493 -0.1817 -0.5723 -1.0195
  153SAPE    C116936   4.724   6.375   6.570  1.0504 -0.5960  0.5731
  153SAPE    HA16937   4.653   6.432   6.506  0.2837 -0.7934  1.2418
  153SAPE    HB16938   4.674   6.324   6.654 -2.0826  1.7367  0.2233
  153SAPE    C216939   4.815   6.483   6.632  0.2022 -0.6567 -0.2020
  153SAPE    HS16940   4.870   6.540   6.555 -1.2620  1.8463  0.5596
  153SAPE   O2116941   4.904   6.418   6.727  0.0745  0.2606  0.7059
  153SAPE   C2116942   5.011   6.488   6.759 -0.4305 -0.0250 -0.0791
  153SAPE   O2216943   5.041   6.599   6.723  0.0440  0.8593  0.0986
  153SAPE   C2216944   5.094   6.404   6.862 -0.0390 -0.1481  0.1736
  153SAPE   H2R16945   5.056   6.435   6.961  0.9898  1.4892  0.0723
  153SAPE   H2S16946   5.058   6.300   6.847  0.0795 -0.2419  0.5426
  153SAPE    C316947   4.727   6.587   6.712 -0.8261 -0.8636  0.0318
  153SAPE    HX16948   4.647   6.613   6.639 -1.8571  0.8015  1.7015
  153SAPE    HY16949   4.791   6.677   6.727 -0.5718 -0.6722 -2.0224
  153SAPE   O3116950   4.660   6.540   6.827 -0.0995 -0.1669  0.2890
  153SAPE   C3116951   4.716   6.563   6.942 -0.5566  0.3491  0.4227
  153SAPE   O3216952   4.821   6.629   6.965 -0.7909  0.6824  0.6234
  153SAPE   C3216953   4.620   6.514   7.048  0.3286  0.4926 -0.5278
  153SAPE   H2X16954   4.587   6.411   7.022  2.3188 -0.8756  2.0615
  153SAPE   H2Y16955   4.534   6.583   7.052 -0.8167 -0.9001 -0.6528
  153SAPE   C2316956   5.247   6.425   6.856 -0.4970  0.2025  0.4594
  153SAPE   H3R16957   5.268   6.528   6.890  1.0553 -0.5008  1.6608
  153SAPE   H3S16958   5.286   6.427   6.752  0.5381 -1.3165  0.8003
  153SAPE   C2416959   5.325   6.311   6.926 -0.6638 -0.0107 -0.0124
  153SAPE   H4R16960   5.307   6.226   6.856 -1.1614  0.5340 -0.5592
  153SAPE   H4S16961   5.283   6.306   7.029  0.1036  2.4340  0.4580
  153SAPE   C2516962   5.473   6.356   6.924  0.0353  0.6944 -0.6372
  153SAPE   H5R16963   5.513   6.383   6.825 -0.7406  2.5623 -0.4526
  153SAPE   C2616964   5.552   6.377   7.027  0.5205  0.1608  0.3239
  153SAPE   H6R16965   5.660   6.389   7.006  0.0906  3.1218 -0.3857
  153SAPE   C2716966   5.525   6.335   7.170  0.1339 -0.4942 -0.0830
  153SAPE   H7R16967   5.604   6.269   7.212 -0.3783  0.1389  1.9461
  153SAPE   H7S16968   5.436   6.268   7.168 -0.0339 -0.2981 -4.2130
  153SAPE   C2816969   5.496   6.451   7.265  0.4592 -0.2021 -0.3312
  153SAPE   H8R16970   5.470   6.543   7.212  0.1450  0.2644  0.6094
  153SAPE   C2916971   5.502   6.449   7.399 -0.9307 -0.7381 -0.1537
  153SAPE   H9R16972   5.486   6.547   7.447  2.9333  0.8015 -1.7823
  153SAPE  C21016973   5.529   6.332   7.485 -0.2052 -0.0952 -0.1661
  153SAPE  H10R16974   5.552   6.237   7.431  0.4141  0.3093 -0.6141
  153SAPE  H10S16975   5.434   6.313   7.541  0.0126  0.1194  0.2778
  153SAPE  C21116976   5.636   6.346   7.594  0.2769 -0.0031 -0.1969
  153SAPE  H11R16977   5.740   6.355   7.560  0.7075  2.8979  1.8031
  153SAPE  C21216978   5.620   6.352   7.726  0.6188  0.0367 -0.7824
  153SAPE  H12R16979   5.706   6.357   7.795  0.8336 -0.6526 -0.9973
  153SAPE  C21316980   5.483   6.348   7.789 -0.4048  0.5006 -0.5645
  153SAPE  H13R16981   5.414   6.385   7.710  0.9787  1.9546 -1.1338
  153SAPE  H13S16982   5.483   6.432   7.862 -0.3911  0.1293 -0.1399
  153SAPE  C21416983   5.441   6.216   7.844 -0.3993  0.2991 -0.0557
  153SAPE  H14R16984   5.437   6.127   7.780 -1.5574 -1.4656  2.3669
  153SAPE  C21516985   5.395   6.190   7.969 -0.6813  0.1212 -0.4720
  153SAPE  H15R16986   5.384   6.083   7.994 -1.0095  0.2765  0.0455
  153SAPE  C21616987   5.385   6.299   8.080  0.0825 -0.3412 -0.7046
  153SAPE  H16R16988   5.476   6.362   8.073  0.3370 -0.5062  0.8456
  153SAPE  H16S16989   5.384   6.251   8.180  0.7859  0.5130 -0.2871
  153SAPE  C21716990   5.259   6.384   8.054  0.0628  0.2622  0.4080
  153SAPE  H17R16991   5.235   6.404   7.947 -0.5604  0.8437  0.6540
  153SAPE  H17S16992   5.292   6.486   8.084  3.0577 -0.9119  1.2747
  153SAPE  C21816993   5.144   6.353   8.147 -0.1139 -0.5342 -0.2883
  153SAPE  H18R16994   5.067   6.432   8.130  0.2143 -0.4258 -1.3515
  153SAPE  H18S16995   5.184   6.357   8.250  0.5169  2.8233 -0.5835
  153SAPE  C21916996   5.076   6.222   8.109  0.1056 -0.3991 -0.4240
  153SAPE  H19R16997   5.002   6.188   8.184  0.6480  2.6032  1.5174
  153SAPE  H19S16998   5.157   6.145   8.113 -2.0749 -2.6288  2.3765
  153SAPE  C22016999   5.019   6.214   7.973 -0.3252  0.8609  0.3724
  153SAPE  H20R17000   4.927   6.274   7.955 -0.0270  1.0680 -0.4923
  153SAPE  H20S17001   4.987   6.108   7.958 -0.7361  0.8335  1.4148
  153SAPE  H20T17002   5.087   6.220   7.885 -0.6493 -3.1063 -0.2785
  153SAPE   C3317003   4.675   6.526   7.186  0.3868  0.0209 -0.0896
  153SAPE   H3X17004   4.750   6.606   7.204  1.5540 -1.4800  2.0398
  153SAPE   H3Y17005   4.747   6.442   7.192  0.6113  0.0096 -2.5809
  153SAPE   C3417006   4.571   6.525   7.295 -0.0716 -0.3708 -0.6630
  153SAPE   H4X17007   4.514   6.430   7.293  0.9383 -0.9902 -0.3777
  153SAPE   H4Y17008   4.506   6.615   7.291  0.1528 -0.1502  0.3678
  153SAPE   C3517009   4.642   6.523   7.428  0.1634  0.2026  0.1802
  153SAPE   H5X17010   4.708   6.612   7.433  1.6067 -0.8055 -0.7427
  153SAPE   H5Y17011   4.701   6.430   7.439  0.3200 -0.2051 -3.4765
  153SAPE   C3617012   4.548   6.529   7.553  0.0918 -0.3809  0.1159
  153SAPE   H6X17013   4.512   6.425   7.569  3.8131 -1.8371 -0.5137
  153SAPE   H6Y17014   4.464   6.601   7.540 -0.5049 -1.1756 -0.5001
  153SAPE   C3717015   4.620   6.582   7.672  0.1990 -0.3706 -0.2288
  153SAPE   H7X17016   4.673   6.677   7.647  0.2307 -0.0434  1.0325
  153SAPE   H7Y17017   4.695   6.506   7.703  1.2509  0.3831 -0.8627
  153SAPE   C3817018   4.535   6.591   7.800  0.5076  0.1486 -0.4197
  153SAPE   H8X17019   4.470   6.501   7.801 -1.1950  1.3568  1.5683
  153SAPE   H8Y17020   4.472   6.682   7.783  1.2946  0.6145 -0.8616
  153SAPE   C3917021   4.601   6.596   7.946  0.2185 -0.2574  0.1642
  153SAPE   H9X17022   4.520   6.591   8.021 -0.2587  0.0286 -0.3216
  153SAPE   H9Y17023   4.648   6.697   7.946 -0.2089 -0.0550  1.5803
  153SAPE  C31017024   4.702   6.490   7.960  0.8323  0.5824  0.0080
  153SAPE  H10X17025   4.778   6.496   7.879  0.9488 -1.6368 -0.0938
  153SAPE  H10Y17026   4.640   6.400   7.938 -0.3369  0.8666  2.0342
  153SAPE  C31117027   4.757   6.470   8.107  0.1011 -0.3424  0.0116
  153SAPE  H11X17028   4.797   6.560   8.157 -0.0950  0.1127 -0.6516
  153SAPE  H11Y17029   4.843   6.400   8.105 -0.4851 -1.0682 -0.3995
  153SAPE  C31217030   4.652   6.412   8.195  0.2690  0.8240  0.0756
  153SAPE  H12X17031   4.550   6.455   8.184 -0.0411  0.1463  0.2883
  153SAPE  H12Y17032   4.674   6.427   8.303  0.1037  3.9318 -0.2817
  153SAPE  C31317033   4.626   6.261   8.166  0.4410  0.5591  0.0171
  153SAPE  H13X17034   4.721   6.205   8.151  0.5056  0.9885 -1.2466
  153SAPE  H13Y17035   4.578   6.260   8.065  1.5770  2.0067 -0.5540
  153SAPE  C31417036   4.522   6.203   8.266  0.2258  0.0696  0.1283
  153SAPE  H14X17037   4.520   6.099   8.227  0.8882  1.5887 -4.2242
  153SAPE  H14Y17038   4.418   6.231   8.239 -0.0597 -1.8658 -0.8722
  153SAPE  C31517039   4.550   6.201   8.418 -0.3106  0.7762  0.3400
  153SAPE  H15X17040   4.542   6.310   8.439 -2.8241 -0.0605  4.2520
  153SAPE  H15Y17041   4.647   6.147   8.423 -2.5320 -3.5032 -0.6409
  153SAPE  C31617042   4.464   6.107   8.505  0.3995 -0.4035 -1.0508
  153SAPE  H16X17043   4.514   6.064   8.594  0.7025 -0.0183 -1.0314
  153SAPE  H16Y17044   4.414   6.031   8.442 -1.7998 -0.3578  0.5930
  153SAPE  C31717045   4.341   6.187   8.557 -0.1995 -0.1822  0.0774
  153SAPE  H17X17046   4.290   6.231   8.469  0.7561  0.3147 -0.2367
  153SAPE  H17Y17047   4.377   6.272   8.620 -0.8691 -0.0567  0.2929
  153SAPE  C31817048   4.249   6.090   8.631  0.7837  0.4148 -0.0173
  153SAPE  H18X17049   4.203   6.151   8.711 -0.9092 -1.5646  0.5707
  153SAPE  H18Y17050   4.311   6.014   8.683  0.1862 -0.7683 -1.0090
  153SAPE  H18Z17051   4.178   6.035   8.565 -0.2755  0.7323  0.8436
  154SAPE     N17052   3.379   5.894   6.466 -0.4588 -0.3533 -0.0250
  154SAPE   HN117053   3.457   5.961   6.482  0.4138 -1.0351 -1.3314
  154SAPE   HN217054   3.285   5.936   6.482 -0.0327  0.2234  1.0585
  154SAPE   HN317055   3.378   5.825   6.543 -1.9670 -2.7980 -2.1615
  154SAPE   C1217056   3.402   5.817   6.338  0.0386 -0.3771 -0.4552
  154SAPE  H12A17057   3.507   5.779   6.338 -0.1680 -0.9493 -0.5491
  154SAPE  H12B17058   3.393   5.891   6.256 -3.6155 -0.0606  0.1817
  154SAPE   C1117059   3.299   5.710   6.323 -0.2912  0.8001  0.1034
  154SAPE  H11A17060   3.314   5.640   6.408  1.0271  1.3189  0.3142
  154SAPE  H11B17061   3.317   5.656   6.228 -0.3405  1.7628 -0.4601
  154SAPE     P17062   3.050   5.666   6.297  0.0106 -0.1922  0.2621
  154SAPE   O1317063   2.930   5.745   6.250 -0.3961 -1.0452 -0.2588
  154SAPE   O1417064   3.107   5.569   6.205  0.4692  0.4611 -0.1583
  154SAPE   O1217065   3.164   5.766   6.332 -0.6217 -0.1755 -0.6259
  154SAPE   O1117066   3.019   5.607   6.440 -0.5895 -0.2994 -0.3407
  154SAPE    C117067   2.977   5.466   6.462 -0.2058 -0.3641 -0.2118
  154SAPE    HA17068   2.890   5.457   6.393 -0.6043  2.8371 -0.1971
  154SAPE    HB17069   3.059   5.396   6.436 -0.6367 -0.6228 -0.8905
  154SAPE    C217070   2.925   5.428   6.602  0.7247 -0.2929 -0.2894
  154SAPE    HS17071   2.838   5.495   6.619  0.7474 -0.0988 -0.9249
  154SAPE   O2117072   3.033   5.435   6.691 -0.5058  0.6287  0.0844
  154SAPE   C2117073   3.008   5.501   6.808  0.0636 -0.0027 -0.5057
  154SAPE   O2217074   2.900   5.554   6.836  0.2359 -0.0092 -0.1267
  154SAPE   C2217075   3.119   5.470   6.909 -0.0110 -0.1723 -0.2440
  154SAPE   H2R17076   3.217   5.481   6.858 -0.4653 -0.4153 -1.1965
  154SAPE   H2S17077   3.117   5.558   6.977 -1.5798 -0.4115  0.0375
  154SAPE    C317078   2.865   5.282   6.600 -0.9280  0.2827 -0.3712
  154SAPE    HX17079   2.953   5.214   6.597  0.3479  1.9167 -0.1618
  154SAPE    HY17080   2.793   5.270   6.515  0.8256  1.9304 -2.1379
  154SAPE   O3117081   2.787   5.269   6.721 -0.0385  0.2070  0.1761
  154SAPE   C3117082   2.711   5.159   6.716  0.7026  0.2810 -1.3387
  154SAPE   O3217083   2.710   5.069   6.630 -0.5069 -0.0063 -0.6226
  154SAPE   C3217084   2.619   5.144   6.838  0.0344  0.4802  0.5169
  154SAPE   H2X17085   2.515   5.109   6.819  0.6605 -1.8176  1.2223
  154SAPE   H2Y17086   2.609   5.247   6.878 -0.3297  1.4759 -2.0493
  154SAPE   C2317087   3.095   5.338   6.993 -0.4649  0.5735  0.7309
  154SAPE   H3R17088   3.130   5.249   6.936  1.6643  1.1568  1.1138
  154SAPE   H3S17089   2.985   5.326   7.008 -0.2072 -1.2730  1.3198
  154SAPE   C2417090   3.165   5.329   7.136  0.5747 -0.8053 -0.3678
  154SAPE   H4R17091   3.275   5.330   7.127  0.4591 -1.0617 -2.0533
  154SAPE   H4S17092   3.136   5.226   7.168  1.9866 -1.1487 -0.1521
  154SAPE   C2517093   3.123   5.444   7.227  0.2368 -0.3847  0.1258
  154SAPE   H5R17094   3.128   5.546   7.185 -1.8121 -0.4247 -0.2470
  154SAPE   C2617095   3.075   5.435   7.353 -0.3341 -0.3639  0.1553
  154SAPE   H6R17096   3.075   5.531   7.407  3.5662  0.5417 -1.2467
  154SAPE   C2717097   3.050   5.320   7.443 -0.0476  0.5998 -0.3417
  154SAPE   H7R17098   3.075   5.219   7.403  1.4726  1.1714 -0.8974
  154SAPE   H7S17099   2.946   5.310   7.480  0.1126  2.9096  0.8062
  154SAPE   C2817100   3.139   5.341   7.563  0.2679 -0.0689 -0.0456
  154SAPE   H8R17101   3.248   5.343   7.550  0.2182 -2.0022 -1.0320
  154SAPE   C2917102   3.097   5.394   7.679 -0.1124 -0.2552 -0.3660
  154SAPE   H9R17103   3.171   5.394   7.760  0.5215 -1.9026 -0.9309
  154SAPE  C21017104   2.956   5.438   7.716 -0.0273  0.4677  0.0854
  154SAPE  H10R17105   2.922   5.354   7.782 -0.8414  0.4174 -0.4015
  154SAPE  H10S17106   2.888   5.440   7.629  1.0418  1.2300 -0.7469
  154SAPE  C21117107   2.960   5.576   7.765  0.4253  0.1855  0.2903
  154SAPE  H11R17108   2.951   5.647   7.682  3.0804  0.8987  0.5842
  154SAPE  C21217109   2.946   5.609   7.894  0.9367  0.0006  0.2766
  154SAPE  H12R17110   2.947   5.716   7.918  3.1989 -0.5499  2.8194
  154SAPE  C21317111   2.949   5.499   8.006 -0.1606  0.3149 -0.2804
  154SAPE  H13R17112   3.049   5.450   8.003  0.5697  1.7708 -0.0193
  154SAPE  H13S17113   2.883   5.412   7.983 -1.1925  0.5346  1.7017
  154SAPE  C21417114   2.904   5.546   8.137 -0.2823 -0.7984 -0.3136
  154SAPE  H14R17115   2.799   5.524   8.163 -0.0479 -1.3332  0.1925
  154SAPE  C21517116   2.972   5.633   8.216 -1.0017  0.0792 -0.5526
  154SAPE  H15R17117   2.921   5.676   8.303  0.0802  0.5158 -0.1245
  154SAPE  C21617118   3.108   5.694   8.190 -0.1529  0.0586 -0.0210
  154SAPE  H16R17119   3.156   5.656   8.097 -1.6601  0.8589 -1.1387
  154SAPE  H16S17120   3.182   5.659   8.265  1.0155  1.1397 -0.6397
  154SAPE  C21717121   3.085   5.844   8.193  0.3324  1.0467 -0.2052
  154SAPE  H17R17122   3.061   5.874   8.297 -0.2014 -1.6264  0.4739
  154SAPE  H17S17123   2.998   5.876   8.132  0.6087 -1.3302 -1.8997
  154SAPE  C21817124   3.210   5.915   8.140 -0.2584  0.1165  0.3377
  154SAPE  H18R17125   3.192   6.023   8.157 -1.3598  0.0745 -0.4842
  154SAPE  H18S17126   3.229   5.891   8.033  0.9534  1.4826  0.2293
  154SAPE  C21917127   3.345   5.882   8.211 -0.3196 -0.5201  0.1513
  154SAPE  H19R17128   3.435   5.917   8.157 -0.1471  1.4307  1.6625
  154SAPE  H19S17129   3.353   5.771   8.212 -1.0000 -0.5628  1.2279
  154SAPE  C22017130   3.358   5.936   8.349  0.3550 -0.2570  0.0142
  154SAPE  H20R17131   3.374   6.046   8.339 -2.4251  0.2979  1.1944
  154SAPE  H20S17132   3.444   5.884   8.397  0.8029 -1.5215 -2.0507
  154SAPE  H20T17133   3.267   5.928   8.411  1.8952 -2.9934  2.0382
  154SAPE   C3317134   2.669   5.037   6.943 -0.4970 -0.9887 -0.0650
  154SAPE   H3X17135   2.671   4.931   6.909 -0.1506 -1.3591  1.0700
  154SAPE   H3Y17136   2.608   5.050   7.035 -0.6439  0.3611 -0.3447
  154SAPE   C3417137   2.814   5.071   6.987  0.3611  0.4816 -0.3714
  154SAPE   H4X17138   2.827   5.182   6.987  1.2766  0.3805  1.1728
  154SAPE   H4Y17139   2.875   5.018   6.912 -0.4524 -1.4952  0.3365
  154SAPE   C3517140   2.841   5.019   7.132  0.2442 -0.4240  0.2615
  154SAPE   H5X17141   2.951   5.012   7.143  0.6227  0.2585 -2.5769
  154SAPE   H5Y17142   2.803   4.915   7.130  0.9341 -0.6554 -1.7031
  154SAPE   C3617143   2.778   5.109   7.237  0.1931  0.9402  0.4099
  154SAPE   H6X17144   2.676   5.133   7.201 -0.3981 -0.8614  0.8223
  154SAPE   H6Y17145   2.838   5.203   7.243  2.8625 -0.7929  1.4373
  154SAPE   C3717146   2.765   5.034   7.370 -0.2493  0.7620  0.0705
  154SAPE   H7X17147   2.868   4.998   7.388 -0.7685 -0.1726  1.2873
  154SAPE   H7Y17148   2.703   4.942   7.360 -0.6535  1.0960 -0.5326
  154SAPE   C3817149   2.705   5.115   7.483 -0.4948  0.0663 -0.9105
  154SAPE   H8X17150   2.615   5.169   7.447 -0.3388  1.2333  0.3794
  154SAPE   H8Y17151   2.772   5.199   7.510  0.6283 -0.4747 -1.9978
  154SAPE   C3917152   2.675   5.039   7.610 -0.3606 -0.1301  0.6836
  154SAPE   H9X17153   2.760   4.973   7.636 -0.3223 -0.2419  0.2829
  154SAPE   H9Y17154   2.587   4.971   7.601 -0.1881 -0.7376  3.1442
  154SAPE  C31017155   2.635   5.140   7.722  0.2883  0.5619 -0.3286
  154SAPE  H10X17156   2.555   5.203   7.678  1.4836  0.8876 -2.1028
  154SAPE  H10Y17157   2.727   5.201   7.737 -0.0456  0.4640  2.4209
  154SAPE  C31117158   2.610   5.086   7.863  0.5132  1.0354  0.3408
  154SAPE  H11X17159   2.692   5.013   7.878 -0.9345 -0.5608  0.5821
  154SAPE  H11Y17160   2.516   5.028   7.865  0.0157  1.7285 -1.5786
  154SAPE  C31217161   2.600   5.198   7.966 -0.7068 -0.2962  0.3339
  154SAPE  H12X17162   2.508   5.259   7.952 -0.3619  0.4925  1.4873
  154SAPE  H12Y17163   2.690   5.262   7.958  1.6611 -3.3518  1.1664
  154SAPE  C31317164   2.594   5.135   8.108 -0.7595  0.1084  0.4651
  154SAPE  H13X17165   2.611   5.216   8.182 -2.7416 -0.2980  1.4228
  154SAPE  H13Y17166   2.675   5.064   8.133  0.7693  0.9849 -1.9041
  154SAPE  C31417167   2.459   5.063   8.136  0.3137  0.5782 -0.3960
  154SAPE  H14X17168   2.437   4.996   8.051 -0.9329  0.8165 -0.2862
  154SAPE  H14Y17169   2.388   5.148   8.126  1.5325  1.6410 -0.1306
  154SAPE  C31517170   2.454   4.999   8.270 -0.0364 -0.5516 -0.3666
  154SAPE  H15X17171   2.349   4.990   8.307 -0.2446  1.8271 -0.3177
  154SAPE  H15Y17172   2.498   5.075   8.338  0.8674  0.3601 -1.9484
  154SAPE  C31617173   2.536   4.878   8.293 -0.2593  0.9054 -0.4664
  154SAPE  H16X17174   2.627   4.882   8.230 -0.6789  0.9825 -1.0757
  154SAPE  H16Y17175   2.467   4.799   8.255  0.3630 -0.1088  0.4763
  154SAPE  C31717176   2.552   4.839   8.442 -0.0689  0.7837 -0.3767
  154SAPE  H17X17177   2.449   4.838   8.484 -0.4390 -0.6930 -1.2990
  154SAPE  H17Y17178   2.624   4.907   8.492  2.0836 -1.5307 -0.2274
  154SAPE  C31817179   2.590   4.692   8.465 -0.2795 -0.4289 -0.1832
  154SAPE  H18X17180   2.629   4.667   8.566 -1.6000  1.4574  0.8114
  154SAPE  H18Y17181   2.662   4.673   8.382  0.0612  0.5406 -0.1128
  154SAPE  H18Z17182   2.509   4.620   8.440 -0.2207 -0.2392 -0.9451
  155SAPE     N17183   2.753   5.890   6.433 -0.2473 -0.5865  0.1457
  155SAPE   HN117184   2.660   5.846   6.417 -1.1632  1.6718 -0.8885
  155SAPE   HN217185   2.832   5.843   6.383  0.7928 -0.6911  1.8622
  155SAPE   HN317186   2.760   5.887   6.536  2.1043  0.3838  0.0337
  155SAPE   C1217187   2.753   6.035   6.392  0.0914 -0.0946  0.2655
  155SAPE  H12A17188   2.658   6.055   6.338  0.1512  2.0423  0.9143
  155SAPE  H12B17189   2.824   6.055   6.309 -3.1982 -1.6813 -3.0857
  155SAPE   C1117190   2.787   6.129   6.515  0.1498 -0.8508 -0.2777
  155SAPE  H11A17191   2.712   6.108   6.595  1.0831 -0.0097  0.8373
  155SAPE  H11B17192   2.770   6.234   6.482  1.3288 -0.3880  0.5653
  155SAPE     P17193   3.055   6.123   6.507 -0.1985  0.1454  0.2153
  155SAPE   O1317194   3.136   6.001   6.519 -1.0218  0.0574 -0.4262
  155SAPE   O1417195   3.036   6.177   6.368  0.4414 -0.5835 -0.4246
  155SAPE   O1217196   2.913   6.110   6.572  0.3243  0.1411  0.3760
  155SAPE   O1117197   3.123   6.227   6.603  0.0746  0.0949  0.3025
  155SAPE    C117198   3.049   6.342   6.639 -1.4540 -0.5325 -0.4579
  155SAPE    HA17199   2.986   6.383   6.557 -0.0734 -4.1279 -3.4217
  155SAPE    HB17200   2.977   6.315   6.719 -2.4151  0.3366 -0.9999
  155SAPE    C217201   3.137   6.453   6.705  0.9181  0.2761 -0.3093
  155SAPE    HS17202   3.203   6.502   6.630  2.7522  1.0508  1.7530
  155SAPE   O2117203   3.220   6.389   6.804 -0.1406 -0.2198  0.1826
  155SAPE   C2117204   3.315   6.475   6.853 -0.6767 -0.3410  1.1170
  155SAPE   O2217205   3.338   6.587   6.813 -0.1103 -0.0395  0.2523
  155SAPE   C2217206   3.401   6.410   6.963 -0.4046 -0.4138 -1.1982
  155SAPE   H2R17207   3.388   6.300   6.952 -0.9926 -0.7715  2.3405
  155SAPE   H2S17208   3.507   6.437   6.942 -0.6834  1.6674 -0.0346
  155SAPE    C317209   3.035   6.558   6.774  0.5450  0.6110 -0.4059
  155SAPE    HX17210   2.966   6.605   6.701  0.1405 -0.4287 -0.6935
  155SAPE    HY17211   3.108   6.634   6.810 -0.1689  1.4869 -0.7857
  155SAPE   O3117212   2.966   6.502   6.889  0.4750  0.7248  1.1083
  155SAPE   C3117213   2.919   6.595   6.967  0.0304  0.1408 -0.8763
  155SAPE   O3217214   2.894   6.710   6.938  0.1427  0.2400  0.9332
  155SAPE   C3217215   2.915   6.540   7.110 -0.1948  0.0122  0.4894
  155SAPE   H2X17216   3.018   6.517   7.145  0.5188  0.0183 -1.5599
  155SAPE   H2Y17217   2.864   6.442   7.097  0.0632  0.1768 -1.9166
  155SAPE   C2317218   3.364   6.446   7.107 -0.5071 -0.2594  0.2341
  155SAPE   H3R17219   3.254   6.442   7.115 -0.5511 -1.0760 -0.7463
  155SAPE   H3S17220   3.386   6.554   7.121 -1.7557  0.0546 -0.1211
  155SAPE   C2417221   3.434   6.362   7.212 -0.2600 -0.2964  0.4657
  155SAPE   H4R17222   3.451   6.423   7.304  3.1402 -2.7990  1.5863
  155SAPE   H4S17223   3.536   6.333   7.181 -0.5887  0.4810 -1.4210
  155SAPE   C2517224   3.361   6.237   7.237 -0.1147 -0.1068 -0.1773
  155SAPE   H5R17225   3.350   6.169   7.151  2.0910  1.4141 -1.7171
  155SAPE   C2617226   3.306   6.201   7.354 -0.3155 -0.3383  0.8696
  155SAPE   H6R17227   3.252   6.105   7.369  0.6485 -0.7418  1.8259
  155SAPE   C2717228   3.310   6.279   7.482  0.3759  0.2784 -0.4244
  155SAPE   H7R17229   3.233   6.360   7.481 -0.1998 -0.2490  0.4986
  155SAPE   H7S17230   3.403   6.338   7.495  1.2294 -0.6462 -2.2184
  155SAPE   C2817231   3.294   6.186   7.603  0.5681  0.1375  0.1149
  155SAPE   H8R17232   3.267   6.085   7.570  1.7645 -0.3682  0.6528
  155SAPE   C2917233   3.283   6.222   7.732  0.0702  1.1570 -0.5049
  155SAPE   H9R17234   3.270   6.145   7.810 -2.7887 -1.0435 -3.0530
  155SAPE  C21017235   3.288   6.363   7.787  0.5958 -0.2657 -0.0836
  155SAPE  H10R17236   3.291   6.435   7.703 -0.5163 -1.5431 -1.2408
  155SAPE  H10S17237   3.388   6.375   7.834 -0.3749 -0.3713  2.1097
  155SAPE  C21117238   3.159   6.373   7.871 -0.5066 -0.6793  0.1389
  155SAPE  H11R17239   3.064   6.392   7.819 -0.3847  2.0069  0.7972
  155SAPE  C21217240   3.156   6.372   8.008 -0.8824  0.6820 -0.7232
  155SAPE  H12R17241   3.056   6.395   8.047 -0.0430  0.0190  1.9135
  155SAPE  C21317242   3.271   6.364   8.104 -0.3702 -0.6227 -0.1968
  155SAPE  H13R17243   3.343   6.442   8.073  1.7162 -1.9121  1.2284
  155SAPE  H13S17244   3.338   6.277   8.088  0.8569 -0.0873  1.7729
  155SAPE  C21417245   3.245   6.378   8.253 -0.0012  0.0128  0.1801
  155SAPE  H14R17246   3.233   6.280   8.301 -0.9527  0.8931  1.7439
  155SAPE  C21517247   3.220   6.492   8.321  0.3879 -0.7398  0.0154
  155SAPE  H15R17248   3.189   6.483   8.427 -0.9385 -0.3514 -0.3303
  155SAPE  C21617249   3.221   6.630   8.268  0.5521  0.0412 -0.4345
  155SAPE  H16R17250   3.272   6.639   8.169  0.5267  0.1739 -0.4348
  155SAPE  H16S17251   3.280   6.699   8.332  2.7841 -0.8046 -1.5103
  155SAPE  C21717252   3.078   6.685   8.270  0.1993 -0.0111 -0.4290
  155SAPE  H17R17253   3.033   6.695   8.371 -0.2479 -2.9723 -0.2786
  155SAPE  H17S17254   3.008   6.610   8.227 -2.2098  2.4296 -0.9163
  155SAPE  C21817255   3.072   6.829   8.209 -0.0837 -0.1195 -0.4490
  155SAPE  H18R17256   2.967   6.866   8.203  0.9025  2.8534 -0.3503
  155SAPE  H18S17257   3.109   6.822   8.105  0.1098 -2.2126 -0.2498
  155SAPE  C21917258   3.154   6.936   8.282 -0.4026 -0.2788  0.4195
  155SAPE  H19R17259   3.257   6.895   8.282 -0.9025 -1.5906 -0.9291
  155SAPE  H19S17260   3.119   6.948   8.386 -0.5496  1.1414  0.2177
  155SAPE  C22017261   3.160   7.079   8.215 -0.0916  0.1955  1.0771
  155SAPE  H20R17262   3.219   7.066   8.122 -0.1860 -3.3711  1.4615
  155SAPE  H20S17263   3.194   7.158   8.286  1.1292  0.4605  0.2195
  155SAPE  H20T17264   3.056   7.101   8.183  0.5732  1.0770 -0.5559
  155SAPE   C3317265   2.848   6.641   7.209  0.4607  0.2894 -0.8156
  155SAPE   H3X17266   2.743   6.655   7.176  0.8553  0.4460 -2.0377
  155SAPE   H3Y17267   2.884   6.746   7.212 -0.1299  0.4494  0.6419
  155SAPE   C3417268   2.838   6.587   7.352 -0.3063 -1.0143  0.0555
  155SAPE   H4X17269   2.932   6.565   7.406 -0.4588  2.0903  1.6754
  155SAPE   H4Y17270   2.777   6.494   7.343 -3.4628  1.1643 -2.1750
  155SAPE   C3517271   2.762   6.687   7.441 -0.0049  0.1349  0.7815
  155SAPE   H5X17272   2.660   6.716   7.406  0.0051 -1.3546 -0.5290
  155SAPE   H5Y17273   2.820   6.782   7.436  1.2103 -0.6711 -0.8506
  155SAPE   C3617274   2.765   6.628   7.581 -0.2080 -0.6019 -0.8166
  155SAPE   H6X17275   2.870   6.609   7.613  0.1456  1.0131 -0.9608
  155SAPE   H6Y17276   2.713   6.531   7.573 -2.0299  0.4600 -2.3217
  155SAPE   C3717277   2.691   6.707   7.693 -0.4165  0.6875  0.1186
  155SAPE   H7X17278   2.585   6.727   7.666  0.3918 -0.7233 -4.4382
  155SAPE   H7Y17279   2.741   6.806   7.696  0.0916  0.3904  1.5952
  155SAPE   C3817280   2.713   6.657   7.830  0.2312 -0.3766 -0.1737
  155SAPE   H8X17281   2.820   6.676   7.855 -0.6565  1.7433  2.1877
  155SAPE   H8Y17282   2.693   6.553   7.865  0.2090 -0.2686  0.1402
  155SAPE   C3917283   2.636   6.742   7.939  0.0205  0.0871 -0.1028
  155SAPE   H9X17284   2.529   6.749   7.913  0.3688  1.6769 -1.1812
  155SAPE   H9Y17285   2.672   6.846   7.955 -0.6703  0.3053  0.0474
  155SAPE  C31017286   2.650   6.685   8.080 -0.4479 -0.0054 -0.1611
  155SAPE  H10X17287   2.755   6.695   8.117  0.7086 -1.6511 -2.8594
  155SAPE  H10Y17288   2.635   6.577   8.062 -0.3604 -0.2486  1.1715
  155SAPE  C31117289   2.548   6.740   8.174 -0.1753 -0.5305  0.3946
  155SAPE  H11X17290   2.460   6.678   8.147  0.4290 -1.0996 -0.2965
  155SAPE  H11Y17291   2.529   6.847   8.150  2.1750 -0.0696  0.4442
  155SAPE  C31217292   2.595   6.719   8.320  0.3115 -0.5689 -0.2657
  155SAPE  H12X17293   2.692   6.764   8.349  1.0609 -3.0800  1.1764
  155SAPE  H12Y17294   2.613   6.610   8.331 -3.3344 -1.3980 -1.7355
  155SAPE  C31317295   2.497   6.772   8.429 -0.1604  0.3931  0.8407
  155SAPE  H13X17296   2.455   6.869   8.394  0.9745  0.3588 -0.6532
  155SAPE  H13Y17297   2.538   6.787   8.532  0.7130 -0.3085  0.5984
  155SAPE  C31417298   2.367   6.683   8.441  0.3657 -0.0183  0.1345
  155SAPE  H14X17299   2.407   6.582   8.462  0.7365  0.3544  1.2775
  155SAPE  H14Y17300   2.316   6.673   8.343 -0.4486 -0.1800  0.5723
  155SAPE  C31517301   2.265   6.734   8.546  0.3596 -0.1337 -0.6411
  155SAPE  H15X17302   2.232   6.835   8.511  0.3405  0.5678  1.3171
  155SAPE  H15Y17303   2.318   6.747   8.643  1.2864  0.4622 -1.2240
  155SAPE  C31617304   2.136   6.648   8.558 -0.0993 -0.2496 -0.0315
  155SAPE  H16X17305   2.152   6.562   8.627 -1.2199  0.2153  0.8134
  155SAPE  H16Y17306   2.106   6.614   8.456 -1.1273 -0.1123  0.2146
  155SAPE  C31717307   2.023   6.729   8.629  0.3336  0.1851  0.1373
  155SAPE  H17X17308   2.004   6.825   8.576  1.8222 -0.1536 -1.0461
  155SAPE  H17Y17309   2.052   6.756   8.733  1.2320 -1.2761  0.2863
  155SAPE  C31817310   1.887   6.659   8.642 -0.8564 -0.5328  0.2402
  155SAPE  H18X17311   1.878   6.609   8.741  2.2983  0.1155  0.9062
  155SAPE  H18Y17312   1.878   6.574   8.571 -0.8245  0.9056 -1.5085
  155SAPE  H18Z17313   1.797   6.723   8.633 -0.9908 -0.6869  0.4580
  156SAPE     N17314   1.416   0.316   6.350  0.3382  0.0640  0.0633
  156SAPE   HN117315   1.456   0.367   6.269 -0.8347  0.7031 -0.1163
  156SAPE   HN217316   1.423   0.390   6.423 -0.9196  1.7246 -1.4645
  156SAPE   HN317317   1.488   0.247   6.380  0.1501  0.2124  0.8588
  156SAPE   C1217318   1.281   0.255   6.339 -0.2853 -0.0932  0.3676
  156SAPE  H12A17319   1.249   0.289   6.238 -0.7719  1.1628  0.9361
  156SAPE  H12B17320   1.224   0.297   6.424 -0.1703 -0.0960  0.4456
  156SAPE   C1117321   1.297   0.104   6.360 -0.3705 -0.2483 -0.0198
  156SAPE  H11A17322   1.366   0.060   6.286  0.4767  1.3086 -0.1849
  156SAPE  H11B17323   1.195   0.063   6.346 -0.7895  0.9960 -0.6996
  156SAPE     P17324   1.375  -0.077   6.533  0.1644  0.3470  0.0995
  156SAPE   O1317325   1.398  -0.153   6.409  0.3008  0.3937  0.5083
  156SAPE   O1417326   1.486  -0.079   6.629 -0.4659 -0.3669 -0.2966
  156SAPE   O1217327   1.343   0.078   6.496  0.3688 -0.2408  0.3769
  156SAPE   O1117328   1.241  -0.131   6.596  0.0269 -0.1413 -0.1391
  156SAPE    C117329   1.143  -0.048   6.660  0.7280 -0.1422 -0.3755
  156SAPE    HA17330   1.153   0.057   6.625  0.2939  0.0502  0.0727
  156SAPE    HB17331   1.045  -0.079   6.618  0.5152 -1.0161  0.7140
  156SAPE    C217332   1.138  -0.071   6.818 -0.3104  0.2579  0.1221
  156SAPE    HS17333   1.054  -0.008   6.856  0.7764  1.0485  1.2392
  156SAPE   O2117334   1.263  -0.045   6.883 -0.0265  0.2956 -0.2418
  156SAPE   C2117335   1.286   0.086   6.896  0.0200 -0.1475  0.1468
  156SAPE   O2217336   1.215   0.178   6.859  0.4614  0.4076  0.2500
  156SAPE   C2217337   1.421   0.090   6.976  0.4429 -0.9176  0.3895
  156SAPE   H2R17338   1.398   0.058   7.080  0.4300  1.6658  1.2117
  156SAPE   H2S17339   1.502   0.037   6.922 -0.2113  1.9854 -3.6262
  156SAPE    C317340   1.103  -0.222   6.849  0.1584 -0.5942 -0.4717
  156SAPE    HX17341   1.167  -0.281   6.780  0.7092 -1.0933  0.4636
  156SAPE    HY17342   1.001  -0.239   6.807  0.8565 -0.3234 -2.3214
  156SAPE   O3117343   1.119  -0.257   6.987 -0.4408  0.2199 -0.1194
  156SAPE   C3117344   1.210  -0.341   7.024 -0.4368 -0.4356  0.2752
  156SAPE   O3217345   1.287  -0.392   6.944 -0.1026 -0.1313  0.2801
  156SAPE   C3217346   1.208  -0.357   7.174 -0.7926  0.3317 -0.5694
  156SAPE   H2X17347   1.274  -0.441   7.204  0.3418  2.2993  2.7810
  156SAPE   H2Y17348   1.109  -0.395   7.207 -1.2179  0.5314 -1.6084
  156SAPE   C2317349   1.473   0.236   6.985 -0.6777 -0.6829  0.2728
  156SAPE   H3R17350   1.466   0.283   6.885  0.9399  0.7422  0.8105
  156SAPE   H3S17351   1.578   0.223   7.018 -0.6410 -1.2118 -0.0432
  156SAPE   C2417352   1.414   0.321   7.094  0.2767 -0.2950  0.9076
  156SAPE   H4R17353   1.424   0.264   7.189 -1.7420  0.5599  1.6431
  156SAPE   H4S17354   1.310   0.337   7.061  0.4888  1.9225  1.2498
  156SAPE   C2517355   1.479   0.455   7.106  0.7026 -0.0039  0.5964
  156SAPE   H5R17356   1.521   0.492   7.011  0.9495 -0.5001  0.5131
  156SAPE   C2617357   1.489   0.524   7.223 -0.3264  0.1462  0.1745
  156SAPE   H6R17358   1.529   0.627   7.222  0.8895 -0.2952 -2.4515
  156SAPE   C2717359   1.435   0.492   7.364  0.2292  0.1205 -0.6242
  156SAPE   H7R17360   1.520   0.451   7.422  0.5179  1.4676 -0.0776
  156SAPE   H7S17361   1.355   0.416   7.369 -1.2278  1.7532  2.5700
  156SAPE   C2817362   1.393   0.621   7.440 -0.7139 -0.4176 -0.3370
  156SAPE   H8R17363   1.414   0.717   7.391 -0.0709 -0.2280  0.3099
  156SAPE   C2917364   1.304   0.629   7.549  0.0133 -0.4390 -0.2615
  156SAPE   H9R17365   1.278   0.728   7.588  2.2891  0.6247 -1.2952
  156SAPE  C21017366   1.247   0.508   7.618 -0.0406 -0.2512  0.4516
  156SAPE  H10R17367   1.269   0.510   7.727 -1.1456 -1.4756  0.7125
  156SAPE  H10S17368   1.289   0.413   7.577 -1.6104 -0.1064 -1.5492
  156SAPE  C21117369   1.099   0.494   7.593  0.5839  0.1494  0.2164
  156SAPE  H11R17370   1.058   0.462   7.496 -1.2734 -1.0455  1.3610
  156SAPE  C21217371   1.002   0.529   7.689 -0.3100  0.1371  0.4915
  156SAPE  H12R17372   0.897   0.503   7.665  0.1539 -0.2667 -1.1991
  156SAPE  C21317373   1.014   0.596   7.822  0.1227 -0.0783 -0.4458
  156SAPE  H13R17374   1.108   0.655   7.830 -0.4382  0.8071 -0.2599
  156SAPE  H13S17375   1.027   0.517   7.899  0.0553  1.0786  0.7656
  156SAPE  C21417376   0.899   0.686   7.854  0.0018  0.1199 -0.4679
  156SAPE  H14R17377   0.848   0.732   7.769 -3.8898  0.4936  1.9271
  156SAPE  C21517378   0.855   0.705   7.981  0.4692  0.2272 -0.1316
  156SAPE  H15R17379   0.774   0.775   8.004  0.0916 -0.5010  0.7869
  156SAPE  C21617380   0.895   0.636   8.108 -0.7601  0.1626  0.4542
  156SAPE  H16R17381   0.971   0.555   8.099 -2.0952 -1.1284  0.7159
  156SAPE  H16S17382   0.813   0.598   8.171 -1.2435  1.8255  0.8350
  156SAPE  C21717383   0.978   0.746   8.180 -0.4843 -0.0708  0.1625
  156SAPE  H17R17384   0.902   0.822   8.208  0.3929  1.4015 -1.3865
  156SAPE  H17S17385   1.054   0.799   8.119 -0.5529  0.9976  1.0006
  156SAPE  C21817386   1.045   0.699   8.313 -0.3580  1.2995 -0.5789
  156SAPE  H18R17387   1.090   0.785   8.367  0.5920  0.6690 -0.3452
  156SAPE  H18S17388   1.123   0.626   8.281 -1.6962  0.0103 -0.9333
  156SAPE  C21917389   0.952   0.622   8.413 -0.3179  0.1934 -0.5383
  156SAPE  H19R17390   0.928   0.528   8.359  0.8260  0.0094 -0.7349
  156SAPE  H19S17391   0.862   0.684   8.432 -0.4736  0.8574 -3.1583
  156SAPE  C22017392   1.011   0.578   8.546 -0.3137  0.3020 -0.4353
  156SAPE  H20R17393   0.944   0.524   8.617  2.2726 -1.9241  0.3663
  156SAPE  H20S17394   1.039   0.669   8.604  2.6985 -0.7226 -0.2109
  156SAPE  H20T17395   1.105   0.522   8.530 -0.8021 -0.8111  0.5017
  156SAPE   C3317396   1.249  -0.236   7.251  0.6195  0.3949  0.2134
  156SAPE   H3X17397   1.232  -0.260   7.358 -0.0768 -1.0368 -0.1999
  156SAPE   H3Y17398   1.193  -0.144   7.223  2.0170  1.3601  0.5675
  156SAPE   C3417399   1.397  -0.213   7.249 -0.6321 -0.3954 -0.2838
  156SAPE   H4X17400   1.444  -0.169   7.158 -0.9440 -1.9972 -1.2471
  156SAPE   H4Y17401   1.448  -0.309   7.272 -2.1703 -1.2233 -0.2915
  156SAPE   C3517402   1.433  -0.117   7.367 -0.2547 -0.3970 -0.2966
  156SAPE   H5X17403   1.449  -0.180   7.457  1.0767 -0.4647 -0.5692
  156SAPE   H5Y17404   1.364  -0.033   7.393  0.8962  0.4285  0.1591
  156SAPE   C3617405   1.570  -0.050   7.350 -0.6273  0.8949  0.0762
  156SAPE   H6X17406   1.569   0.016   7.261  0.7575 -2.2764 -2.4085
  156SAPE   H6Y17407   1.635  -0.138   7.331 -1.0182  0.6259 -0.0153
  156SAPE   C3717408   1.626   0.028   7.469 -0.4144  0.2841  0.4473
  156SAPE   H7X17409   1.737   0.033   7.463 -0.3289  0.1900  1.7859
  156SAPE   H7Y17410   1.603  -0.031   7.560 -1.4545  1.5345  0.9968
  156SAPE   C3817411   1.575   0.175   7.485 -0.1216 -0.2854 -0.2239
  156SAPE   H8X17412   1.465   0.169   7.497 -0.3425 -3.4122 -3.1415
  156SAPE   H8Y17413   1.596   0.237   7.395  2.0433 -1.8993 -0.8765
  156SAPE   C3917414   1.626   0.250   7.606  0.4525  0.6260  0.1201
  156SAPE   H9X17415   1.595   0.356   7.604  0.4016  0.6177  0.5832
  156SAPE   H9Y17416   1.737   0.249   7.598  0.4555 -0.4648  0.1877
  156SAPE  C31017417   1.588   0.194   7.745  0.3202 -0.4290  0.6666
  156SAPE  H10X17418   1.635   0.270   7.811  1.2522 -0.9562  0.6133
  156SAPE  H10Y17419   1.644   0.099   7.753  0.7826 -0.3187 -1.0215
  156SAPE  C31117420   1.438   0.183   7.773  0.0562 -0.1025 -0.0921
  156SAPE  H11X17421   1.392   0.119   7.694  0.7073 -0.6502 -0.0349
  156SAPE  H11Y17422   1.407   0.288   7.756  0.6189  0.1005  0.1326
  156SAPE  C31217423   1.420   0.140   7.920 -0.4452  0.0196 -0.7054
  156SAPE  H12X17424   1.493   0.192   7.986  1.1864  1.1540 -3.2943
  156SAPE  H12Y17425   1.421   0.032   7.945 -2.9046  0.4018  1.2077
  156SAPE  C31317426   1.286   0.200   7.978 -1.2450  0.6982 -0.3297
  156SAPE  H13X17427   1.202   0.144   7.933 -1.4457  2.2625 -1.9392
  156SAPE  H13Y17428   1.285   0.309   7.956 -0.4539  0.3835 -1.9773
  156SAPE  C31417429   1.279   0.201   8.127 -0.8287 -0.0270  0.0548
  156SAPE  H14X17430   1.358   0.275   8.152 -1.5747  0.8361 -0.1241
  156SAPE  H14Y17431   1.314   0.105   8.170 -0.2323  0.5822  0.9485
  156SAPE  C31517432   1.137   0.230   8.173  0.0906  0.1355  0.2701
  156SAPE  H15X17433   1.077   0.137   8.177 -1.7539  1.2302 -1.0709
  156SAPE  H15Y17434   1.081   0.293   8.100  2.4874 -0.6208 -2.3041
  156SAPE  C31617435   1.134   0.286   8.315 -0.2625  0.5823  0.5480
  156SAPE  H16X17436   1.027   0.303   8.339 -0.1069  0.1793  1.5223
  156SAPE  H16Y17437   1.185   0.384   8.327  0.0402  0.5164 -0.1688
  156SAPE  C31717438   1.188   0.189   8.426 -0.2261 -0.1998 -0.0089
  156SAPE  H17X17439   1.296   0.166   8.409 -0.1355  0.8382 -0.8745
  156SAPE  H17Y17440   1.133   0.094   8.405 -0.5332 -0.2208  0.8900
  156SAPE  C31817441   1.159   0.243   8.570 -0.5507 -0.9396 -0.2746
  156SAPE  H18X17442   1.225   0.330   8.592  0.8173 -1.9899 -0.0889
  156SAPE  H18Y17443   1.191   0.158   8.635  1.2619 -0.2044 -0.1670
  156SAPE  H18Z17444   1.050   0.256   8.583 -0.3956 -0.6819  0.8276
  157SAPE     N17445   4.899   1.775   6.513  0.1146  0.5612  0.1742
  157SAPE   HN117446   4.960   1.753   6.594  0.6877  0.1626 -0.3626
  157SAPE   HN217447   4.811   1.822   6.543 -0.5404 -1.3937  1.3716
  157SAPE   HN317448   4.877   1.685   6.467 -3.1888  1.8647 -0.9782
  157SAPE   C1217449   4.970   1.854   6.415 -0.0485 -0.4090  0.1419
  157SAPE  H12A17450   4.995   1.957   6.449 -0.2484 -0.3360  0.0687
  157SAPE  H12B17451   4.898   1.865   6.331  0.1067  0.6678  0.1397
  157SAPE   C1117452   5.087   1.780   6.357  0.4329 -0.4187 -0.3287
  157SAPE  H11A17453   5.132   1.857   6.291 -0.8365  0.2993 -0.3600
  157SAPE  H11B17454   5.042   1.694   6.304 -1.2791  1.0918 -1.3501
  157SAPE     P17455   5.300   1.841   6.510 -0.3558 -0.1088 -0.1130
  157SAPE   O1317456   5.429   1.764   6.523 -0.4147 -0.4548  0.1571
  157SAPE   O1417457   5.302   1.958   6.419 -0.3252 -0.0286 -0.7734
  157SAPE   O1217458   5.183   1.744   6.464  0.7852  0.6949  0.5505
  157SAPE   O1117459   5.252   1.888   6.656  0.0626 -0.2401 -0.1644
  157SAPE    C117460   5.350   1.936   6.735 -0.4001  1.0634 -0.2683
  157SAPE    HA17461   5.312   1.952   6.839  1.2062 -0.8147  0.6244
  157SAPE    HB17462   5.433   1.867   6.759  0.1684  1.7181 -0.3288
  157SAPE    C217463   5.397   2.077   6.691 -0.5008  0.2820  0.1343
  157SAPE    HS17464   5.427   2.081   6.584  0.4358  0.6143  0.4079
  157SAPE   O2117465   5.508   2.113   6.776 -0.3362 -0.3367  0.2578
  157SAPE   C2117466   5.627   2.043   6.781 -0.2279  0.4138 -0.0017
  157SAPE   O2217467   5.664   1.967   6.698 -0.4027  0.5033 -0.0198
  157SAPE   C2217468   5.684   2.077   6.910  0.7066 -0.6185  0.2811
  157SAPE   H2R17469   5.793   2.076   6.890  0.1652 -1.3128 -2.8253
  157SAPE   H2S17470   5.659   2.178   6.949  0.0957  0.3407 -2.4619
  157SAPE    C317471   5.278   2.189   6.703 -0.0555 -0.3896 -0.1477
  157SAPE    HX17472   5.202   2.157   6.628 -0.2407  0.1659 -0.2041
  157SAPE    HY17473   5.316   2.287   6.666 -0.7593  0.3880  1.1408
  157SAPE   O3117474   5.222   2.194   6.841 -0.7258 -0.3724  0.2940
  157SAPE   C3117475   5.267   2.298   6.909 -0.6417 -0.4005 -0.2462
  157SAPE   O3217476   5.339   2.388   6.871  0.1795 -0.3594 -0.2377
  157SAPE   C3217477   5.220   2.286   7.057  0.3317 -0.1504 -0.3729
  157SAPE   H2X17478   5.276   2.198   7.093  2.1859  0.7161 -1.0364
  157SAPE   H2Y17479   5.109   2.285   7.060  0.3404 -0.2961 -0.1414
  157SAPE   C2317480   5.675   1.966   7.022  0.1108  0.0256  0.3494
  157SAPE   H3R17481   5.770   1.973   7.080  0.9064  2.2258 -1.1445
  157SAPE   H3S17482   5.694   1.865   6.980  0.6876  0.2472  0.0575
  157SAPE   C2417483   5.552   1.986   7.117 -0.1078  0.3942  0.4678
  157SAPE   H4R17484   5.462   1.954   7.059  2.0477 -0.7175 -2.3808
  157SAPE   H4S17485   5.553   2.094   7.144 -1.0589  0.1489  1.5454
  157SAPE   C2517486   5.563   1.894   7.236 -0.3563 -0.2768 -0.2010
  157SAPE   H5R17487   5.570   1.787   7.210 -0.7200 -0.0937 -1.0655
  157SAPE   C2617488   5.566   1.928   7.370 -0.1204  0.4328  0.2912
  157SAPE   H6R17489   5.556   1.849   7.446  3.3211  0.5765  1.0035
  157SAPE   C2717490   5.547   2.071   7.419 -0.2674 -0.2827  0.1233
  157SAPE   H7R17491   5.502   2.133   7.339  0.8774  0.7587  0.2706
  157SAPE   H7S17492   5.642   2.118   7.450 -0.5688 -0.1326  0.8318
  157SAPE   C2817493   5.445   2.068   7.530  0.8618 -0.0281  0.1442
  157SAPE   H8R17494   5.342   2.098   7.507  0.6775 -1.5037 -1.0103
  157SAPE   C2917495   5.480   2.049   7.663 -0.4024  0.0092  0.4561
  157SAPE   H9R17496   5.399   2.038   7.736  0.5571 -1.6514  1.2741
  157SAPE  C21017497   5.615   2.022   7.723  0.4606  0.6193  0.3478
  157SAPE  H10R17498   5.638   2.116   7.778 -2.9732  1.1771  0.9636
  157SAPE  H10S17499   5.688   2.014   7.639 -2.3690  1.0249 -2.2424
  157SAPE  C21117500   5.618   1.915   7.825  0.1802  0.6349  0.9183
  157SAPE  H11R17501   5.627   1.815   7.782  1.8688  0.9233  0.5735
  157SAPE  C21217502   5.581   1.918   7.954 -0.1372 -0.2738 -0.1114
  157SAPE  H12R17503   5.587   1.825   8.012  0.3740 -1.7249 -2.4170
  157SAPE  C21317504   5.533   2.044   8.029 -0.4125 -0.2178  0.7041
  157SAPE  H13R17505   5.501   2.128   7.963  0.4776  2.0779  3.0851
  157SAPE  H13S17506   5.618   2.093   8.082  0.6533  2.2290 -3.0144
  157SAPE  C21417507   5.424   2.018   8.130  0.4386 -0.0896 -0.0564
  157SAPE  H14R17508   5.320   2.030   8.095  0.9290  0.8733 -1.2176
  157SAPE  C21517509   5.444   1.980   8.262  0.0726  0.0893 -0.6153
  157SAPE  H15R17510   5.354   1.961   8.322  0.9424  1.9060  1.2802
  157SAPE  C21617511   5.582   1.966   8.328  0.3342 -0.4803 -0.7321
  157SAPE  H16R17512   5.668   1.996   8.264  0.1087  0.3885 -0.6407
  157SAPE  H16S17513   5.589   1.860   8.360 -1.2679  0.0362  1.4259
  157SAPE  C21717514   5.583   2.051   8.455 -1.0839 -0.5658 -0.4600
  157SAPE  H17R17515   5.658   2.015   8.528 -1.8484 -1.3267 -0.0380
  157SAPE  H17S17516   5.490   2.047   8.517 -1.2038 -0.0066 -0.5962
  157SAPE  C21817517   5.615   2.195   8.419 -0.2630 -0.0866  0.5279
  157SAPE  H18R17518   5.533   2.256   8.374  0.0037  1.3424  1.9459
  157SAPE  H18S17519   5.713   2.206   8.368 -0.3777 -3.3192 -0.4716
  157SAPE  C21917520   5.628   2.291   8.546 -0.2588 -0.4386 -0.8372
  157SAPE  H19R17521   5.531   2.288   8.600  0.5157  0.5497  0.6586
  157SAPE  H19S17522   5.652   2.391   8.503  1.9311 -0.2325  0.7323
  157SAPE  C22017523   5.746   2.269   8.637 -0.1283  0.3668 -0.2925
  157SAPE  H20R17524   5.760   2.160   8.654  2.0313  0.0519 -3.5231
  157SAPE  H20S17525   5.725   2.323   8.731 -1.6660 -0.7120 -0.0098
  157SAPE  H20T17526   5.843   2.309   8.600 -1.4417  2.9782 -1.0107
  157SAPE   C3317527   5.269   2.406   7.144  0.6707 -0.0278  0.4581
  157SAPE   H3X17528   5.250   2.504   7.096  0.6642  0.1556  0.8345
  157SAPE   H3Y17529   5.379   2.408   7.158  0.6322  1.5152  0.5488
  157SAPE   C3417530   5.194   2.404   7.272  0.1738  0.5895  0.0608
  157SAPE   H4X17531   5.159   2.299   7.286 -2.5028  1.5149  0.4822
  157SAPE   H4Y17532   5.103   2.467   7.275 -0.3120 -0.1465  2.0551
  157SAPE   C3517533   5.280   2.426   7.398  0.4632  0.9378  0.8532
  157SAPE   H5X17534   5.321   2.529   7.410  1.2930  0.5511  1.4017
  157SAPE   H5Y17535   5.364   2.355   7.383  1.0478  1.6715  0.5737
  157SAPE   C3617536   5.196   2.402   7.517  0.2440  0.1851 -0.3063
  157SAPE   H6X17537   5.165   2.296   7.526 -2.3350  1.0459  1.6428
  157SAPE   H6Y17538   5.102   2.461   7.510 -0.1922 -0.6331 -1.4530
  157SAPE   C3717539   5.286   2.421   7.641 -0.5107 -0.5267  0.3678
  157SAPE   H7X17540   5.395   2.418   7.620 -0.3649 -1.4518  1.2486
  157SAPE   H7Y17541   5.253   2.347   7.716 -0.5463 -0.9021 -0.0142
  157SAPE   C3817542   5.268   2.559   7.702  0.4095  0.4235 -0.5882
  157SAPE   H8X17543   5.202   2.629   7.645  0.1764  0.5884 -0.1132
  157SAPE   H8Y17544   5.367   2.606   7.719 -1.3988  2.8180  4.1840
  157SAPE   C3917545   5.203   2.563   7.833  0.8938  0.1175  0.0807
  157SAPE   H9X17546   5.115   2.495   7.832  1.3495 -0.4719 -0.9589
  157SAPE   H9Y17547   5.180   2.668   7.861  3.2671  1.0436 -1.2966
  157SAPE  C31017548   5.300   2.513   7.945  0.6296 -0.0524  0.6473
  157SAPE  H10X17549   5.398   2.562   7.931 -0.2647  2.4513  2.6757
  157SAPE  H10Y17550   5.323   2.407   7.922 -1.8147 -1.1406  2.9343
  157SAPE  C31117551   5.263   2.550   8.087 -0.0386 -0.1241 -0.5381
  157SAPE  H11X17552   5.175   2.488   8.117 -0.5718  1.1008  0.4723
  157SAPE  H11Y17553   5.237   2.658   8.094  1.0374  0.1777 -1.1564
  157SAPE  C31217554   5.367   2.515   8.197 -0.1782  0.1197 -0.2837
  157SAPE  H12X17555   5.459   2.577   8.191 -0.8319  1.2070  0.7767
  157SAPE  H12Y17556   5.404   2.410   8.187 -0.7149 -0.1211  0.2326
  157SAPE  C31317557   5.319   2.553   8.339 -0.9758  0.2933 -0.0455
  157SAPE  H13X17558   5.366   2.502   8.427  0.2601 -0.9015 -1.3808
  157SAPE  H13Y17559   5.208   2.546   8.342 -0.9174 -0.6061  0.3162
  157SAPE  C31417560   5.329   2.706   8.360 -0.6526 -0.0595  0.2431
  157SAPE  H14X17561   5.287   2.757   8.270 -2.2662 -2.2307 -0.2758
  157SAPE  H14Y17562   5.439   2.720   8.355 -0.7991  1.1734  0.2511
  157SAPE  C31517563   5.277   2.737   8.502  0.2066  0.1742  0.0294
  157SAPE  H15X17564   5.313   2.659   8.573 -0.5341  0.3324  0.5815
  157SAPE  H15Y17565   5.166   2.732   8.500  0.0758  1.6089  2.4822
  157SAPE  C31617566   5.325   2.872   8.560 -0.2355 -0.4551 -0.8948
  157SAPE  H16X17567   5.433   2.881   8.537 -1.0855 -0.1083 -5.2412
  157SAPE  H16Y17568   5.303   2.870   8.669  2.3230  1.9135 -0.2730
  157SAPE  C31717569   5.262   2.998   8.495  0.0137 -0.0613  0.2247
  157SAPE  H17X17570   5.158   2.999   8.535  0.1412 -0.3797  0.5689
  157SAPE  H17Y17571   5.264   2.988   8.384 -0.7447  0.0944  0.1943
  157SAPE  C31817572   5.322   3.133   8.528  0.3996 -0.1227 -0.0590
  157SAPE  H18X17573   5.431   3.132   8.507  0.2273 -0.9384 -0.9206
  157SAPE  H18Y17574   5.288   3.170   8.627 -1.4962  0.5336 -0.9225
  157SAPE  H18Z17575   5.277   3.213   8.466 -1.8613  0.3003  2.0298
  158SAPE     N17576   0.704   6.404   6.546 -0.0090  0.5456 -0.0847
  158SAPE   HN117577   0.714   6.391   6.649 -1.7592  2.6261  0.3806
  158SAPE   HN217578   0.651   6.493   6.543 -0.8239  0.0304 -1.7905
  158SAPE   HN317579   0.637   6.336   6.504 -0.3417 -0.9246  2.7282
  158SAPE   C1217580   0.850   6.397   6.492 -0.0700  0.1570 -0.7015
  158SAPE  H12A17581   0.918   6.455   6.558  1.6293  3.2289 -4.8888
  158SAPE  H12B17582   0.838   6.443   6.391  1.4555 -0.2804 -1.0932
  158SAPE   C1117583   0.905   6.258   6.472  0.0920 -0.6185 -0.0095
  158SAPE  H11A17584   0.886   6.211   6.571 -1.9366 -0.8897 -0.4990
  158SAPE  H11B17585   1.010   6.262   6.437 -0.3067  0.2073 -1.1382
  158SAPE     P17586   0.850   6.047   6.327  0.4400 -0.1270 -0.2783
  158SAPE   O1317587   0.810   6.033   6.184 -0.0633 -0.2949  0.0865
  158SAPE   O1417588   0.990   6.012   6.355 -0.0594 -0.3080  0.4790
  158SAPE   O1217589   0.822   6.197   6.377 -0.3773  0.3840 -0.3402
  158SAPE   O1117590   0.763   5.957   6.420  0.0112  0.1799 -0.0717
  158SAPE    C117591   0.622   5.986   6.447  0.6280  0.6503  0.5733
  158SAPE    HA17592   0.582   6.067   6.383 -0.4717 -2.2430 -2.5702
  158SAPE    HB17593   0.573   5.891   6.417  1.1316  0.4224  0.4561
  158SAPE    C217594   0.583   6.010   6.595  0.0677  0.2244  0.1913
  158SAPE    HS17595   0.629   6.107   6.623  2.1538 -2.0164  5.2250
  158SAPE   O2117596   0.619   5.909   6.692 -0.3754 -0.3184  0.4000
  158SAPE   C2117597   0.709   5.936   6.780 -0.2534 -0.3818  0.6273
  158SAPE   O2217598   0.764   6.045   6.787  0.1493  0.1235 -0.4712
  158SAPE   C2217599   0.743   5.815   6.862  0.7476 -0.2824 -0.0798
  158SAPE   H2R17600   0.669   5.806   6.945 -0.9973 -0.5949 -1.6196
  158SAPE   H2S17601   0.738   5.720   6.805  0.4783  0.1607 -0.8094
  158SAPE    C317602   0.433   6.026   6.615 -0.7795 -0.6192 -0.4013
  158SAPE    HX17603   0.393   5.923   6.624  1.5940 -1.7100 -1.8028
  158SAPE    HY17604   0.386   6.062   6.521 -2.2101 -2.4091 -0.3898
  158SAPE   O3117605   0.411   6.107   6.731 -0.1415 -0.7288  0.2448
  158SAPE   C3117606   0.292   6.082   6.794 -0.4297 -0.7588 -0.6582
  158SAPE   O3217607   0.210   5.999   6.762 -0.9024  0.0289 -0.2380
  158SAPE   C3217608   0.274   6.171   6.915 -0.2483  0.0866  0.3655
  158SAPE   H2X17609   0.321   6.270   6.898 -1.2889  1.0080  2.6097
  158SAPE   H2Y17610   0.327   6.122   6.999  0.3298 -0.8305 -0.5291
  158SAPE   C2317611   0.891   5.803   6.913  0.0521 -0.4938  0.3317
  158SAPE   H3R17612   0.891   5.869   7.003 -0.8137 -1.4296  1.0258
  158SAPE   H3S17613   0.956   5.852   6.838  0.9150  1.6033  2.3638
  158SAPE   C2417614   0.942   5.667   6.954  0.0254 -0.0475  0.5432
  158SAPE   H4R17615   0.927   5.601   6.866 -1.5144  2.2369 -0.9676
  158SAPE   H4S17616   0.887   5.628   7.042  1.7197 -3.5668  0.1426
  158SAPE   C2517617   1.091   5.646   6.982  0.1033  0.0758  0.3524
  158SAPE   H5R17618   1.153   5.638   6.892 -1.6406 -0.6335 -0.8160
  158SAPE   C2617619   1.145   5.632   7.104  0.2381 -0.1658  0.0347
  158SAPE   H6R17620   1.254   5.638   7.116  0.5830  0.3198 -2.9271
  158SAPE   C2717621   1.075   5.650   7.235  0.8304  0.4739 -0.3990
  158SAPE   H7R17622   0.966   5.669   7.230  0.7661  0.3844  0.5840
  158SAPE   H7S17623   1.112   5.745   7.280  0.2547 -0.3386  1.8015
  158SAPE   C2817624   1.105   5.532   7.322  0.3787  0.2852 -0.0774
  158SAPE   H8R17625   1.116   5.435   7.272 -1.5688 -0.8404  1.5985
  158SAPE   C2917626   1.100   5.536   7.454  0.2128 -0.3497  0.0921
  158SAPE   H9R17627   1.115   5.444   7.512  0.5325  1.0284  2.2703
  158SAPE  C21017628   1.080   5.660   7.533 -0.1347  0.5193  0.0754
  158SAPE  H10R17629   1.032   5.748   7.485 -2.5220 -1.0398 -0.4838
  158SAPE  H10S17630   1.180   5.696   7.565 -0.1614 -0.8704  1.7975
  158SAPE  C21117631   0.988   5.621   7.645 -0.3084 -0.1291 -0.5687
  158SAPE  H11R17632   0.900   5.559   7.620 -1.4535  1.8303 -1.4717
  158SAPE  C21217633   0.988   5.670   7.772  0.4257  0.6936  0.3771
  158SAPE  H12R17634   0.919   5.633   7.849  0.1774 -0.4917 -0.3969
  158SAPE  C21317635   1.088   5.764   7.830  0.5735  0.0557 -0.8609
  158SAPE  H13R17636   1.058   5.869   7.808  2.7700  1.1076  0.8941
  158SAPE  H13S17637   1.181   5.765   7.770  1.2709 -0.5720  0.1874
  158SAPE  C21417638   1.121   5.734   7.980  0.1601 -0.1126 -0.8970
  158SAPE  H14R17639   1.203   5.662   7.984 -0.9950 -1.4543 -1.2576
  158SAPE  C21517640   1.055   5.759   8.091 -0.3178  0.1292 -0.8340
  158SAPE  H15R17641   1.083   5.711   8.186  0.3469 -1.0159 -1.5911
  158SAPE  C21617642   0.930   5.834   8.102 -0.0930  0.1663 -0.4919
  158SAPE  H16R17643   0.849   5.758   8.109  0.4777 -0.4296 -0.2349
  158SAPE  H16S17644   0.916   5.896   8.012  1.5950  0.5854 -0.4708
  158SAPE  C21717645   0.917   5.927   8.219 -0.2803 -0.2230  0.5660
  158SAPE  H17R17646   0.924   5.867   8.312  0.5207 -2.4488 -0.8918
  158SAPE  H17S17647   0.821   5.982   8.221 -0.9677 -1.2764 -1.9774
  158SAPE  C21817648   1.032   6.031   8.236 -0.4313  0.1510  0.4240
  158SAPE  H18R17649   1.019   6.115   8.164  0.1763  0.1224  0.2759
  158SAPE  H18S17650   1.128   5.975   8.225 -0.0902  0.5288  1.3808
  158SAPE  C21917651   1.037   6.090   8.372  0.4686 -0.4688 -1.0038
  158SAPE  H19R17652   1.032   6.013   8.452  0.9150 -1.1273 -1.6040
  158SAPE  H19S17653   0.958   6.167   8.386 -0.6550 -1.5438 -1.4243
  158SAPE  C22017654   1.161   6.178   8.398 -0.1998 -0.3235  0.7404
  158SAPE  H20R17655   1.257   6.123   8.394 -0.3031 -0.4829  0.4761
  158SAPE  H20S17656   1.170   6.224   8.499  0.4784  0.2267  0.4295
  158SAPE  H20T17657   1.165   6.250   8.314  1.5786  0.6009  1.5978
  158SAPE   C3317658   0.122   6.195   6.955 -0.4125 -0.2023  0.0028
  158SAPE   H3X17659   0.078   6.093   6.957 -2.0741  0.4191 -2.7387
  158SAPE   H3Y17660   0.060   6.256   6.886  0.5915  2.0856  1.0635
  158SAPE   C3417661   0.120   6.264   7.093 -0.2766  0.0728 -0.5284
  158SAPE   H4X17662   0.186   6.354   7.092  1.1206 -0.9488 -1.6824
  158SAPE   H4Y17663   0.164   6.185   7.158  0.6935  0.8325 -0.2491
  158SAPE   C3517664  -0.023   6.294   7.152 -0.2035 -0.2520  0.4540
  158SAPE   H5X17665  -0.096   6.211   7.154 -1.3655  0.7394  0.1923
  158SAPE   H5Y17666  -0.072   6.365   7.082 -0.0279 -1.4987 -0.9517
  158SAPE   C3617667  -0.014   6.346   7.299  0.2368  0.2179 -0.8616
  158SAPE   H6X17668  -0.100   6.410   7.327 -0.8597 -1.2156 -0.8752
  158SAPE   H6Y17669   0.073   6.413   7.319  0.6370 -0.8302  1.0879
  158SAPE   C3717670  -0.014   6.237   7.401 -0.3797  0.3160  0.5106
  158SAPE   H7X17671  -0.102   6.170   7.392 -1.9632  1.9911  2.8605
  158SAPE   H7Y17672   0.078   6.174   7.400 -2.2671 -2.5278  0.9709
  158SAPE   C3817673  -0.008   6.297   7.540  0.0867  0.3674 -0.0809
  158SAPE   H8X17674  -0.109   6.336   7.564 -0.7692 -1.6521 -0.2983
  158SAPE   H8Y17675   0.069   6.377   7.548 -0.4755  1.1679 -2.2634
  158SAPE   C3917676   0.027   6.192   7.651  0.5385 -0.2085  0.1192
  158SAPE   H9X17677   0.129   6.150   7.640 -0.7682 -3.4014 -0.1156
  158SAPE   H9Y17678  -0.042   6.105   7.652 -2.7062  2.2454  0.8522
  158SAPE  C31017679   0.025   6.264   7.790 -0.2427 -0.1185  0.5464
  158SAPE  H10X17680  -0.058   6.338   7.795  1.4523  2.2489 -3.7058
  158SAPE  H10Y17681   0.118   6.324   7.804 -1.0787  1.3987 -0.3463
  158SAPE  C31117682   0.011   6.174   7.914 -0.1980 -0.1873 -0.3983
  158SAPE  H11X17683   0.085   6.093   7.900  0.5931  0.7870 -2.0210
  158SAPE  H11Y17684  -0.090   6.128   7.905 -0.6321  1.1951 -3.2867
  158SAPE  C31217685   0.024   6.258   8.046  0.5318  0.1986  0.2958
  158SAPE  H12X17686   0.109   6.329   8.044 -0.0034  0.8302 -0.1778
  158SAPE  H12Y17687   0.038   6.189   8.132 -0.6118 -0.8671 -0.3442
  158SAPE  C31317688  -0.089   6.345   8.091  0.3085  0.1571  0.5455
  158SAPE  H13X17689  -0.180   6.283   8.109 -0.8000  1.6003  0.0035
  158SAPE  H13Y17690  -0.119   6.414   8.010 -1.2803  2.3627  2.9316
  158SAPE  C31417691  -0.055   6.445   8.209 -0.4631 -0.5378 -0.5914
  158SAPE  H14X17692   0.030   6.510   8.179 -1.1300 -1.2629 -4.3196
  158SAPE  H14Y17693  -0.027   6.377   8.293  0.1483 -0.6698 -0.8925
  158SAPE  C31517694  -0.169   6.537   8.248  0.0192 -0.4972 -0.6729
  158SAPE  H15X17695  -0.259   6.477   8.274 -0.3282  0.8411  1.3061
  158SAPE  H15Y17696  -0.194   6.598   8.159 -1.7098 -0.5638 -0.2434
  158SAPE  C31617697  -0.129   6.637   8.360 -0.0349  0.2239 -0.5729
  158SAPE  H16X17698  -0.028   6.677   8.339 -0.0287  0.7653  0.4750
  158SAPE  H16Y17699  -0.129   6.572   8.450 -0.8885 -2.1908 -2.2744
  158SAPE  C31717700  -0.222   6.750   8.394 -0.6084  0.0952  0.3753
  158SAPE  H17X17701  -0.323   6.723   8.429 -0.4114 -0.6688  0.3665
  158SAPE  H17Y17702  -0.235   6.811   8.302 -1.2486 -1.6016 -0.6817
  158SAPE  C31817703  -0.157   6.843   8.500 -0.2154  0.1411 -0.1955
  158SAPE  H18X17704  -0.109   6.936   8.461  2.0184  0.1738  2.5397
  158SAPE  H18Y17705  -0.076   6.785   8.549 -2.4091 -2.6132  0.3012
  158SAPE  H18Z17706  -0.227   6.847   8.586 -1.9084  0.3522 -1.5438
  159SAPE     N17707   6.588   3.263   6.242 -0.5695  0.3332 -0.0081
  159SAPE   HN117708   6.574   3.363   6.269  1.3647  0.1600  1.7672
  159SAPE   HN217709   6.686   3.238   6.266 -0.7445 -0.2987  0.0315
  159SAPE   HN317710   6.581   3.247   6.139  3.0155 -0.8723 -0.1397
  159SAPE   C1217711   6.489   3.170   6.301  0.2663  0.0829 -0.3196
  159SAPE  H12A17712   6.406   3.175   6.227  1.2211  0.9779 -1.3571
  159SAPE  H12B17713   6.446   3.208   6.396 -1.9954 -3.0796  0.0188
  159SAPE   C1117714   6.547   3.029   6.304  0.5993  0.3286 -0.5632
  159SAPE  H11A17715   6.474   2.950   6.331  0.8849  0.4608  0.6472
  159SAPE  H11B17716   6.622   3.017   6.384  0.7043  1.2472 -0.5145
  159SAPE     P17717   6.680   2.872   6.133 -0.2023  0.2076  0.2389
  159SAPE   O1317718   6.596   2.781   6.049  0.3351  0.1726  0.1887
  159SAPE   O1417719   6.813   2.896   6.083 -0.3309 -0.0580 -0.2922
  159SAPE   O1217720   6.596   2.997   6.170  0.2989  0.0984 -0.8570
  159SAPE   O1117721   6.686   2.801   6.268  0.3056 -0.3078 -0.1719
  159SAPE    C117722   6.757   2.682   6.293 -0.5492  0.2579  0.3268
  159SAPE    HA17723   6.741   2.600   6.219  2.8307 -0.3798  0.2163
  159SAPE    HB17724   6.864   2.710   6.295  0.1682 -2.4221  2.1350
  159SAPE    C217725   6.716   2.613   6.430 -0.5285 -0.0664 -0.5188
  159SAPE    HS17726   6.619   2.559   6.423  0.4191 -1.7252 -1.1069
  159SAPE   O2117727   6.690   2.715   6.531  0.2121  0.1045 -0.3611
  159SAPE   C2117728   6.779   2.813   6.555 -0.6244  0.8543 -0.1033
  159SAPE   O2217729   6.889   2.830   6.504 -0.2122  0.6683  0.6991
  159SAPE   C2217730   6.721   2.898   6.672 -0.2120 -0.1932 -0.2400
  159SAPE   H2R17731   6.619   2.930   6.644  0.1605  0.7978 -0.4974
  159SAPE   H2S17732   6.722   2.825   6.756 -0.0699 -1.0399 -0.9679
  159SAPE    C317733   6.823   2.512   6.475 -0.1354  0.7395 -0.0719
  159SAPE    HX17734   6.919   2.566   6.484  0.7724 -0.7119 -0.7552
  159SAPE    HY17735   6.819   2.428   6.402 -0.2883  1.2067 -0.5997
  159SAPE   O3117736   6.793   2.460   6.611  0.0867 -0.1762  0.3683
  159SAPE   C3117737   6.868   2.362   6.663  0.1428 -0.6474  0.3157
  159SAPE   O3217738   6.953   2.305   6.601 -0.3225 -0.2161  0.4513
  159SAPE   C3217739   6.832   2.335   6.812  0.2106 -0.2599  0.4048
  159SAPE   H2X17740   6.852   2.226   6.824  2.1131  0.0753  0.5048
  159SAPE   H2Y17741   6.723   2.352   6.823 -0.0287  0.1241 -2.2097
  159SAPE   C2317742   6.793   3.024   6.721  0.1625  0.4059 -0.5743
  159SAPE   H3R17743   6.720   3.107   6.708 -2.7847 -1.7035  1.8576
  159SAPE   H3S17744   6.875   3.044   6.649 -0.8950 -0.1971 -1.9715
  159SAPE   C2417745   6.847   3.042   6.865 -0.3680  0.0554  0.4893
  159SAPE   H4R17746   6.772   3.086   6.934  0.3045  3.5762 -0.8896
  159SAPE   H4S17747   6.908   3.131   6.837 -0.0438 -0.9095 -1.9957
  159SAPE   C2517748   6.940   2.937   6.916  0.1071  0.0721 -0.1314
  159SAPE   H5R17749   6.999   2.875   6.847  1.2019  0.6107  0.3007
  159SAPE   C2617750   6.962   2.901   7.046 -0.1788  0.7126 -0.2183
  159SAPE   H6R17751   7.029   2.816   7.063 -0.4834 -0.0808 -2.6698
  159SAPE   C2717752   6.885   2.963   7.160 -0.0189 -0.1273  0.4737
  159SAPE   H7R17753   6.837   3.060   7.134  0.2119  0.2424  1.4200
  159SAPE   H7S17754   6.961   2.985   7.238  0.1735  0.6585  0.0646
  159SAPE   C2817755   6.780   2.860   7.201  0.3021  0.3353 -0.0621
  159SAPE   H8R17756   6.742   2.801   7.116  2.9057 -1.3780 -0.0838
  159SAPE   C2917757   6.743   2.827   7.325  0.0094  0.0297  0.2424
  159SAPE   H9R17758   6.667   2.747   7.331 -0.1877  0.0874 -1.1677
  159SAPE  C21017759   6.802   2.876   7.458  0.5204 -0.3167 -0.1550
  159SAPE  H10R17760   6.875   2.956   7.432 -2.0034  1.8539 -0.7540
  159SAPE  H10S17761   6.860   2.787   7.492  2.7594  0.4425 -1.8537
  159SAPE  C21117762   6.697   2.921   7.559 -0.4259  0.0241  0.2463
  159SAPE  H11R17763   6.619   2.995   7.536 -1.2819 -1.3554 -1.3587
  159SAPE  C21217764   6.692   2.879   7.692  0.2005  0.0300 -0.9567
  159SAPE  H12R17765   6.620   2.924   7.762  0.8975  0.6435 -0.6208
  159SAPE  C21317766   6.778   2.774   7.756  0.6748 -0.0298 -0.0378
  159SAPE  H13R17767   6.859   2.825   7.813  3.0302 -3.0833 -0.5043
  159SAPE  H13S17768   6.827   2.705   7.684 -0.0409 -1.4160  0.7780
  159SAPE  C21417769   6.690   2.694   7.850 -0.1553 -0.4316  0.4062
  159SAPE  H14R17770   6.629   2.618   7.799  2.8929 -0.7571 -2.9669
  159SAPE  C21517771   6.687   2.687   7.987  0.3688 -0.3240  0.0665
  159SAPE  H15R17772   6.593   2.648   8.030 -0.9778  2.7100  0.0161
  159SAPE  C21617773   6.776   2.756   8.088 -0.6062  0.7790  0.5104
  159SAPE  H16R17774   6.850   2.829   8.049  0.2559 -0.5854 -0.4705
  159SAPE  H16S17775   6.834   2.670   8.128  0.7224  0.5512 -1.8399
  159SAPE  C21717776   6.709   2.813   8.219 -0.6370  0.1811  0.7263
  159SAPE  H17R17777   6.787   2.872   8.272  0.1602  2.4933 -2.8509
  159SAPE  H17S17778   6.679   2.733   8.291  0.5329 -0.6102  0.3461
  159SAPE  C21817779   6.589   2.910   8.186 -0.5000  0.1437 -0.0925
  159SAPE  H18R17780   6.557   2.964   8.277  1.1448  1.1561 -0.0977
  159SAPE  H18S17781   6.502   2.850   8.151  0.1577  0.5006 -2.4108
  159SAPE  C21917782   6.635   3.021   8.088 -0.1367 -0.3456  0.3970
  159SAPE  H19R17783   6.688   2.978   8.001  0.0208  1.7735 -0.5834
  159SAPE  H19S17784   6.695   3.098   8.142 -0.3037  0.2693 -0.2849
  159SAPE  C22017785   6.529   3.122   8.031  0.2254 -0.1542 -0.1408
  159SAPE  H20R17786   6.466   3.162   8.113 -0.1618 -1.0019 -0.0171
  159SAPE  H20S17787   6.464   3.075   7.954 -1.3463  2.8832 -0.7302
  159SAPE  H20T17788   6.579   3.207   7.979  0.1916  0.7692  1.3017
  159SAPE   C3317789   6.919   2.401   6.918  0.7083  0.6715 -0.4589
  159SAPE   H3X17790   6.901   2.509   6.897 -0.0403  0.5495 -0.4884
  159SAPE   H3Y17791   7.028   2.384   6.912  0.8617  1.9730 -1.5089
  159SAPE   C3417792   6.878   2.377   7.062 -1.1452 -0.3757 -0.3488
  159SAPE   H4X17793   6.898   2.272   7.090 -0.5175 -0.3434 -0.6687
  159SAPE   H4Y17794   6.768   2.389   7.060 -1.1333 -0.3429 -1.1694
  159SAPE   C3517795   6.946   2.480   7.159 -0.3045 -0.4649  0.0802
  159SAPE   H5X17796   6.940   2.582   7.117 -0.9697 -0.6380 -0.2544
  159SAPE   H5Y17797   7.054   2.460   7.178 -0.6034  0.7866  3.3853
  159SAPE   C3617798   6.873   2.507   7.288  0.6816  0.2350 -0.6540
  159SAPE   H6X17799   6.764   2.505   7.268  0.6883  0.7574 -0.7589
  159SAPE   H6Y17800   6.910   2.609   7.314  0.0940  0.9560 -2.5708
  159SAPE   C3717801   6.908   2.407   7.403 -0.0338  0.5800  0.0720
  159SAPE   H7X17802   7.013   2.380   7.383 -0.0161 -0.8493  1.9846
  159SAPE   H7Y17803   6.862   2.306   7.401  0.3678  0.3334  2.1587
  159SAPE   C3817804   6.873   2.462   7.543 -0.5609  1.1953  0.1319
  159SAPE   H8X17805   6.762   2.464   7.544 -0.5646  0.6835  1.2974
  159SAPE   H8Y17806   6.911   2.567   7.539  0.9121  0.6463 -1.0385
  159SAPE   C3917807   6.934   2.370   7.645  0.5070 -0.2045  0.8488
  159SAPE   H9X17808   7.045   2.383   7.647  0.3648  0.6688  4.0882
  159SAPE   H9Y17809   6.921   2.264   7.612 -0.4370 -0.1664  1.1125
  159SAPE  C31017810   6.871   2.374   7.789 -0.1626  0.3540  0.1376
  159SAPE  H10X17811   6.762   2.350   7.793 -0.0458  0.0197  1.4821
  159SAPE  H10Y17812   6.875   2.479   7.826 -0.9469  0.4730 -0.0891
  159SAPE  C31117813   6.939   2.292   7.899 -0.7746  0.3982 -0.7329
  159SAPE  H11X17814   7.040   2.333   7.920 -1.6418  1.5873  1.2498
  159SAPE  H11Y17815   6.948   2.189   7.858  1.7524  0.0140  0.6720
  159SAPE  C31217816   6.867   2.284   8.026  0.7819 -0.2177 -0.3183
  159SAPE  H12X17817   6.757   2.276   8.010  0.7565  0.6403 -0.5682
  159SAPE  H12Y17818   6.860   2.384   8.074 -1.6768 -0.3678 -0.2764
  159SAPE  C31317819   6.916   2.162   8.110  0.1538 -0.3028 -0.6041
  159SAPE  H13X17820   7.020   2.156   8.148  0.4602  1.6399 -1.1046
  159SAPE  H13Y17821   6.897   2.066   8.057  2.1062 -0.9093 -0.2335
  159SAPE  C31417822   6.826   2.146   8.236  0.4368 -0.3224  0.0828
  159SAPE  H14X17823   6.729   2.115   8.192  1.9495 -1.1242 -2.8455
  159SAPE  H14Y17824   6.807   2.244   8.285  1.2582  1.6173 -3.3258
  159SAPE  C31517825   6.875   2.045   8.344 -0.7782 -0.6189  0.2625
  159SAPE  H15X17826   6.893   1.948   8.293 -1.3283 -0.3488 -0.4607
  159SAPE  H15Y17827   6.795   2.024   8.417 -1.2098 -2.8063 -0.8014
  159SAPE  C31617828   7.002   2.094   8.417 -0.1084  0.3774  0.1865
  159SAPE  H16X17829   6.976   2.189   8.470  1.5579 -0.0472  1.8321
  159SAPE  H16Y17830   7.084   2.118   8.347  0.1246  1.4509  0.8030
  159SAPE  C31717831   7.046   1.985   8.509  0.3351 -0.2343  0.0545
  159SAPE  H17X17832   6.992   1.889   8.492 -0.6102 -0.1398  2.3527
  159SAPE  H17Y17833   7.010   1.994   8.613 -1.1294  0.0654 -0.4670
  159SAPE  C31817834   7.196   1.969   8.514  0.2499 -0.4136 -0.2345
  159SAPE  H18X17835   7.221   1.952   8.620 -0.5377 -0.8691 -0.1126
  159SAPE  H18Y17836   7.248   2.061   8.479 -1.4159 -0.7234 -3.8247
  159SAPE  H18Z17837   7.236   1.882   8.458 -1.5991 -0.8751 -0.8779
  160SAPE     N17838   0.465   0.349   6.296 -0.1398  0.0219  0.5416
  160SAPE   HN117839   0.561   0.328   6.264 -0.7935 -0.3086 -1.2371
  160SAPE   HN217840   0.410   0.260   6.289  0.1157 -0.2696  1.9765
  160SAPE   HN317841   0.415   0.417   6.235  1.5429 -2.4189 -3.7259
  160SAPE   C1217842   0.473   0.379   6.444  0.8241 -0.0541  0.7770
  160SAPE  H12A17843   0.520   0.478   6.464 -0.8440  0.4624  2.3357
  160SAPE  H12B17844   0.539   0.302   6.489  0.2493  0.1798  2.0446
  160SAPE   C1117845   0.336   0.379   6.513  0.6309  1.0899  0.1496
  160SAPE  H11A17846   0.290   0.480   6.512 -0.2614  0.6918  0.8747
  160SAPE  H11B17847   0.354   0.349   6.618  2.5257 -0.5482 -0.6078
  160SAPE     P17848   0.095   0.273   6.504  0.1045  0.0457  0.1262
  160SAPE   O1317849   0.027   0.347   6.397  0.1386 -0.3988 -0.0169
  160SAPE   O1417850   0.048   0.135   6.526  0.0657 -0.2070 -0.6781
  160SAPE   O1217851   0.248   0.279   6.462  0.3723  0.3127  0.9937
  160SAPE   O1117852   0.093   0.359   6.636 -0.0889  0.6124  0.4411
  160SAPE    C117853   0.052   0.294   6.754 -0.3073 -0.4526  0.4718
  160SAPE    HA17854  -0.048   0.249   6.735 -0.4682  0.4151 -0.8324
  160SAPE    HB17855   0.123   0.219   6.793  0.0317 -1.5284 -2.1594
  160SAPE    C217856   0.021   0.395   6.863 -0.1239  0.0208 -0.2474
  160SAPE    HS17857   0.121   0.424   6.902  0.0425 -0.6722 -0.1563
  160SAPE   O2117858  -0.060   0.330   6.964 -0.3257 -0.4831 -0.6428
  160SAPE   C2117859  -0.035   0.327   7.095 -0.1581 -0.0780  0.6108
  160SAPE   O2217860   0.062   0.374   7.150 -0.1766 -0.3560 -0.1898
  160SAPE   C2217861  -0.152   0.259   7.176 -0.6376  0.0647  0.4929
  160SAPE   H2R17862  -0.238   0.285   7.111 -1.0724  1.2848  1.5422
  160SAPE   H2S17863  -0.121   0.153   7.162 -1.3229 -0.1695  0.7720
  160SAPE    C317864  -0.056   0.523   6.802 -0.7433  0.5587  0.2884
  160SAPE    HX17865  -0.138   0.471   6.748  1.5255  0.3093 -3.1017
  160SAPE    HY17866   0.010   0.574   6.729  0.0477  0.4990  0.9558
  160SAPE   O3117867  -0.118   0.606   6.906 -0.4063 -0.2308 -0.0968
  160SAPE   C3117868  -0.026   0.678   6.970 -0.0686  0.0214  0.1715
  160SAPE   O3217869   0.092   0.687   6.946  0.0957 -0.5816  0.1144
  160SAPE   C3217870  -0.085   0.760   7.084  0.7763 -0.0313  0.1468
  160SAPE   H2X17871  -0.153   0.695   7.144  1.8640 -0.1305  1.2879
  160SAPE   H2Y17872  -0.132   0.848   7.036  0.0794  0.0536  0.9743
  160SAPE   C2317873  -0.160   0.294   7.318 -0.1654 -0.7856 -0.4531
  160SAPE   H3R17874  -0.064   0.274   7.371  0.7968  0.8769 -1.5434
  160SAPE   H3S17875  -0.237   0.228   7.365  0.8463 -3.5805 -2.5665
  160SAPE   C2417876  -0.202   0.440   7.352  0.5420 -0.0137  0.1751
  160SAPE   H4R17877  -0.136   0.515   7.303 -0.4061  2.0764  1.9867
  160SAPE   H4S17878  -0.190   0.444   7.463  2.0634  1.7138 -0.0418
  160SAPE   C2517879  -0.349   0.472   7.311  0.4104  0.3727 -0.4720
  160SAPE   H5R17880  -0.369   0.485   7.204 -0.1056 -1.4765 -0.6232
  160SAPE   C2617881  -0.463   0.473   7.388  0.1311 -0.3140 -0.0819
  160SAPE   H6R17882  -0.558   0.494   7.336  0.5769 -2.3761 -1.8430
  160SAPE   C2717883  -0.473   0.449   7.541 -0.2920  0.4830 -0.5085
  160SAPE   H7R17884  -0.570   0.490   7.577 -2.3881 -2.4115 -2.5747
  160SAPE   H7S17885  -0.389   0.495   7.598  0.5707 -3.3435  1.4629
  160SAPE   C2817886  -0.460   0.304   7.585 -0.2900 -0.1677 -0.2501
  160SAPE   H8R17887  -0.405   0.233   7.521  3.4944  1.7625  0.7365
  160SAPE   C2917888  -0.518   0.261   7.699 -0.7437  0.0237  0.3550
  160SAPE   H9R17889  -0.513   0.152   7.704 -1.1708 -0.1413 -2.2664
  160SAPE  C21017890  -0.601   0.325   7.807  0.0132 -0.3663 -0.6287
  160SAPE  H10R17891  -0.684   0.260   7.842 -0.7274  2.1876  2.6781
  160SAPE  H10S17892  -0.656   0.410   7.760 -0.1046  1.1552  2.1325
  160SAPE  C21117893  -0.508   0.368   7.921  0.0917 -0.0365 -0.5183
  160SAPE  H11R17894  -0.437   0.286   7.938  0.0752 -0.3670 -1.9409
  160SAPE  C21217895  -0.499   0.483   7.991  0.1450  0.5084  0.0627
  160SAPE  H12R17896  -0.423   0.494   8.070  0.5571  0.0207 -0.2647
  160SAPE  C21317897  -0.574   0.614   7.979 -0.2635  0.0889  0.5830
  160SAPE  H13R17898  -0.633   0.631   7.886  0.1540 -1.1986  0.0687
  160SAPE  H13S17899  -0.494   0.691   7.975  0.4785 -0.7563 -1.1350
  160SAPE  C21417900  -0.666   0.630   8.093 -0.0891 -0.3021  0.0844
  160SAPE  H14R17901  -0.756   0.567   8.092 -1.0564  1.0821 -0.5932
  160SAPE  C21517902  -0.654   0.721   8.193 -0.0182  0.3114  0.1214
  160SAPE  H15R17903  -0.730   0.729   8.272  0.2101 -1.3323  0.5447
  160SAPE  C21617904  -0.538   0.818   8.200 -0.7038  1.3102 -0.2888
  160SAPE  H16R17905  -0.573   0.907   8.257  0.1131  1.7865 -0.5197
  160SAPE  H16S17906  -0.501   0.866   8.107  2.8598  0.9289  0.8490
  160SAPE  C21717907  -0.421   0.759   8.284 -1.1210  0.1199  0.3954
  160SAPE  H17R17908  -0.377   0.696   8.205 -1.8987  1.1458 -0.8719
  160SAPE  H17S17909  -0.465   0.706   8.371 -0.1992  1.4565  1.7125
  160SAPE  C21817910  -0.336   0.871   8.337  0.1631 -0.1630  0.3781
  160SAPE  H18R17911  -0.395   0.928   8.412  1.4343  0.4677  0.9219
  160SAPE  H18S17912  -0.303   0.927   8.246  0.0474  0.7256  0.8805
  160SAPE  C21917913  -0.212   0.837   8.425 -0.2351 -0.6548  0.8707
  160SAPE  H19R17914  -0.153   0.765   8.365 -4.0465 -3.6396  0.5283
  160SAPE  H19S17915  -0.240   0.788   8.520  0.1936  0.5274  1.6267
  160SAPE  C22017916  -0.134   0.962   8.451  0.2501  0.3994  0.1081
  160SAPE  H20R17917  -0.034   0.934   8.488 -0.0047 -1.0384 -0.2643
  160SAPE  H20S17918  -0.185   1.037   8.515 -0.2703  2.4497 -2.5931
  160SAPE  H20T17919  -0.120   1.022   8.359  2.2085  0.6545  0.5563
  160SAPE   C3317920   0.027   0.797   7.187 -0.6203  0.3811  0.3925
  160SAPE   H3X17921   0.105   0.862   7.143  2.9901 -2.6265  2.1062
  160SAPE   H3Y17922   0.095   0.716   7.221  2.1046  1.9451 -1.1509
  160SAPE   C3417923  -0.027   0.878   7.308 -0.3248  0.2380  0.0284
  160SAPE   H4X17924  -0.078   0.970   7.272  1.0863  0.0267 -2.6510
  160SAPE   H4Y17925   0.057   0.913   7.371 -0.3923 -1.9246  1.3619
  160SAPE   C3517926  -0.120   0.799   7.400 -0.1330 -0.0016  0.2975
  160SAPE   H5X17927  -0.049   0.721   7.435  0.8793  0.8434  0.1805
  160SAPE   H5Y17928  -0.199   0.744   7.346  0.0261  1.1055 -1.1054
  160SAPE   C3617929  -0.171   0.886   7.515 -0.0124 -0.2348  0.3328
  160SAPE   H6X17930  -0.254   0.944   7.469  1.4505  1.0174 -0.7404
  160SAPE   H6Y17931  -0.094   0.960   7.541 -1.7799  2.7342 -2.4946
  160SAPE   C3717932  -0.222   0.790   7.624  0.7098 -0.3123  0.5434
  160SAPE   H7X17933  -0.147   0.710   7.644  0.6983 -0.0852  1.5322
  160SAPE   H7Y17934  -0.303   0.739   7.567  1.6716  2.5647 -3.6416
  160SAPE   C3817935  -0.286   0.842   7.747  0.1551 -0.2019 -0.6127
  160SAPE   H8X17936  -0.366   0.770   7.775  0.6517 -0.2607  0.6784
  160SAPE   H8Y17937  -0.333   0.941   7.728  1.0243  0.0750 -1.3639
  160SAPE   C3917938  -0.193   0.860   7.873  0.4575 -0.3957  0.0485
  160SAPE   H9X17939  -0.260   0.904   7.950 -3.2139 -0.9450 -2.6722
  160SAPE   H9Y17940  -0.110   0.928   7.847  1.4075 -1.7431 -0.4919
  160SAPE  C31017941  -0.128   0.730   7.918  0.2185 -0.2270  0.2775
  160SAPE  H10X17942  -0.039   0.711   7.853  1.1655 -0.8922  1.7420
  160SAPE  H10Y17943  -0.198   0.644   7.928 -2.2875  1.6723 -0.3328
  160SAPE  C31117944  -0.093   0.741   8.064  0.3570  0.2544 -1.1687
  160SAPE  H11X17945  -0.183   0.769   8.124  0.8042 -1.1720  0.2014
  160SAPE  H11Y17946  -0.026   0.829   8.074  0.3532  0.0983  0.3293
  160SAPE  C31217947  -0.026   0.615   8.125  0.3746 -0.6712  0.0604
  160SAPE  H12X17948   0.043   0.587   8.043  0.0811  0.1872 -0.4852
  160SAPE  H12Y17949  -0.093   0.527   8.125  0.1099 -0.4740  0.0966
  160SAPE  C31317950   0.060   0.653   8.250 -0.6157 -0.7021  0.4626
  160SAPE  H13X17951   0.011   0.645   8.349  0.9474 -1.5580  1.1767
  160SAPE  H13Y17952   0.094   0.759   8.249 -0.9860 -0.5847  0.0282
  160SAPE  C31417953   0.191   0.573   8.274 -0.9212 -0.6288  0.8431
  160SAPE  H14X17954   0.256   0.631   8.342  1.7721 -1.1163 -1.2267
  160SAPE  H14Y17955   0.249   0.544   8.184  0.6102  1.3305  1.1818
  160SAPE  C31517956   0.176   0.452   8.363 -0.6229 -0.3275 -0.1665
  160SAPE  H15X17957   0.252   0.379   8.328 -0.4089 -0.2892  0.2120
  160SAPE  H15Y17958   0.072   0.418   8.345 -0.9125 -0.2453  1.2497
  160SAPE  C31617959   0.168   0.476   8.511  0.1276 -0.4675  0.4701
  160SAPE  H16X17960   0.077   0.525   8.550  0.4195  0.6823 -0.2888
  160SAPE  H16Y17961   0.258   0.531   8.545 -0.5038  1.3181 -0.7145
  160SAPE  C31717962   0.169   0.340   8.581  0.1436  0.1906 -0.5387
  160SAPE  H17X17963   0.264   0.283   8.566  0.4951  0.6297 -0.0100
  160SAPE  H17Y17964   0.095   0.277   8.528  0.7754 -0.3098 -0.8374
  160SAPE  C31817965   0.144   0.340   8.733 -0.0652 -0.1785  0.5391
  160SAPE  H18X17966   0.050   0.386   8.771 -1.2548 -1.0027 -1.3209
  160SAPE  H18Y17967   0.226   0.402   8.775 -0.2366 -0.6471  1.5862
  160SAPE  H18Z17968   0.145   0.237   8.776 -3.8382 -1.0178 -1.1981
  161SOPE     N17969   5.952   3.449  10.473  0.2852 -0.1233  0.2010
  161SOPE   HN117970   6.022   3.373  10.480  0.6545  0.0448 -1.3467
  161SOPE   HN217971   5.926   3.468  10.374 -1.0842  3.0830  1.1045
  161SOPE   HN317972   5.994   3.535  10.513  0.9959 -1.2397  1.9118
  161SOPE   C1217973   5.824   3.410  10.538 -0.7573 -0.4971  0.6620
  161SOPE  H12A17974   5.743   3.484  10.524 -0.5955 -0.3523  0.4947
  161SOPE  H12B17975   5.842   3.399  10.647 -2.1733 -1.3057  0.8155
  161SOPE   C1117976   5.783   3.273  10.479 -0.3692 -0.4192 -0.1887
  161SOPE  H11A17977   5.747   3.295  10.376 -0.5592  1.1123  0.1922
  161SOPE  H11B17978   5.699   3.257  10.549 -1.2831  2.5365 -0.5254
  161SOPE     P17979   5.893   3.062  10.587  0.0370 -0.2729  0.0267
  161SOPE   O1317980   5.841   3.128  10.711 -0.0820 -0.0281  0.3771
  161SOPE   O1417981   6.036   3.021  10.600  0.1359 -0.4364 -0.2782
  161SOPE   O1217982   5.892   3.175  10.471 -0.3539  0.0617  0.2863
  161SOPE   O1117983   5.808   2.935  10.548 -0.1239  0.3328  0.0900
  161SOPE    C117984   5.821   2.890  10.413  0.3473 -0.6068  0.0519
  161SOPE    HA17985   5.793   2.783  10.409 -1.1555 -0.1657 -1.8588
  161SOPE    HB17986   5.915   2.917  10.360 -0.4145 -1.2121 -1.6629
  161SOPE    C217987   5.715   2.966  10.321  0.3737  0.0896  0.3530
  161SOPE    HS17988   5.730   3.073  10.345 -0.0716  0.2516 -0.1141
  161SOPE   O2117989   5.587   2.918  10.357 -0.5669  0.0901 -0.4308
  161SOPE   C2117990   5.489   3.011  10.360 -0.0922  0.7185 -0.0096
  161SOPE   O2217991   5.496   3.131  10.362 -0.4385 -0.2225 -0.0644
  161SOPE   C2217992   5.359   2.943  10.371  0.2310  0.4084  0.2569
  161SOPE   H2R17993   5.341   2.918  10.478  0.1842  0.3806  0.2428
  161SOPE   H2S17994   5.358   2.853  10.305 -0.1099  0.8414 -0.3350
  161SOPE    C317995   5.746   2.947  10.172 -0.2252  0.0662  0.4808
  161SOPE    HX17996   5.667   2.981  10.102 -0.6263 -1.1054  0.3513
  161SOPE    HY17997   5.748   2.838  10.148 -2.4077  0.0225  0.3869
  161SOPE   O3117998   5.876   2.997  10.145 -0.0805 -0.0002 -0.3151
  161SOPE   C3117999   5.878   3.120  10.109  0.0070 -0.9353 -0.3628
  161SOPE   O3218000   5.786   3.196  10.105  0.0860  0.0694 -1.1161
  161SOPE   C3218001   6.025   3.170  10.094  0.1931  0.7344  0.3983
  161SOPE   H2X18002   6.088   3.079  10.089 -2.0729 -0.8040 -0.8273
  161SOPE   H2Y18003   6.041   3.236  10.182 -0.8880  1.1268  0.3168
  161SOPE   C2318004   5.247   3.043  10.340 -0.4360  0.3242 -0.3664
  161SOPE   H3R18005   5.254   3.144  10.385 -3.2881  0.4207 -0.0384
  161SOPE   H3S18006   5.158   3.001  10.391  1.4998 -0.5428  2.4606
  161SOPE   C2418007   5.204   3.063  10.193  0.3592  0.8463  0.4225
  161SOPE   H4R18008   5.164   2.966  10.158  0.2839  0.7767  0.7012
  161SOPE   H4S18009   5.121   3.137  10.200  0.1141  0.9270 -2.6687
  161SOPE   C2518010   5.310   3.092  10.091  0.4181 -0.1205  0.0660
  161SOPE   H5R18011   5.366   3.186  10.109  0.2135  0.9471 -4.3140
  161SOPE   H5S18012   5.381   3.007  10.102  0.7236  0.2430  0.9379
  161SOPE   C2618013   5.249   3.081   9.948 -0.0282  0.0200  0.8274
  161SOPE   H6R18014   5.211   2.978   9.933 -0.1928  0.0818  0.8126
  161SOPE   H6S18015   5.161   3.148   9.934 -0.6513 -0.3730  2.7007
  161SOPE   C2718016   5.345   3.110   9.833  0.6350 -0.2054  0.2057
  161SOPE   H7R18017   5.286   3.091   9.741  2.8752  0.9072 -1.5053
  161SOPE   H7S18018   5.366   3.219   9.827 -1.3659  0.2364  1.0102
  161SOPE   C2818019   5.488   3.047   9.835  0.3491  0.1111  0.6926
  161SOPE   H8R18020   5.542   3.081   9.926  1.6745  0.1899 -0.1139
  161SOPE   H8S18021   5.478   2.937   9.841  1.1276  0.0976  1.8006
  161SOPE   C2918022   5.572   3.086   9.723  0.0339 -0.1450 -0.0415
  161SOPE   H9118023   5.598   3.192   9.712  0.7883 -0.4905 -1.8712
  161SOPE  C21018024   5.631   2.998   9.638  0.2004  0.2178 -0.3143
  161SOPE  H10118025   5.692   3.033   9.553 -1.4396  0.8541 -1.2394
  161SOPE  C21118026   5.613   2.850   9.635 -0.5160  0.2360  0.0773
  161SOPE  H11R18027   5.513   2.813   9.667  0.5157 -1.1439  1.7922
  161SOPE  H11S18028   5.684   2.791   9.697 -1.8822 -2.6807 -1.0106
  161SOPE  C21218029   5.626   2.798   9.487  0.7781 -0.4878  0.1903
  161SOPE  H12R18030   5.623   2.687   9.480  1.3159 -0.4315 -1.1012
  161SOPE  H12S18031   5.727   2.823   9.449  0.0574 -0.5986 -1.8889
  161SOPE  C21318032   5.508   2.862   9.409  0.6648 -0.0067  0.3567
  161SOPE  H13R18033   5.525   2.971   9.414 -1.0410  0.2871  0.3153
  161SOPE  H13S18034   5.408   2.839   9.452  0.2639 -0.7498 -0.9358
  161SOPE  C21418035   5.498   2.821   9.259 -0.3161 -0.4218 -0.6343
  161SOPE  H14R18036   5.507   2.710   9.260 -2.9967 -0.6825 -1.9577
  161SOPE  H14S18037   5.597   2.858   9.222 -0.2808  2.4328  2.1132
  161SOPE  C21518038   5.376   2.876   9.197 -0.1992  0.0481 -0.0480
  161SOPE  H15R18039   5.387   2.986   9.193 -3.2660  0.4081 -0.2169
  161SOPE  H15S18040   5.285   2.861   9.261  0.2975 -0.7875  0.4776
  161SOPE  C21618041   5.345   2.844   9.052  0.3677 -0.2539 -0.8965
  161SOPE  H16R18042   5.431   2.882   8.994  1.1888 -0.1752  0.3490
  161SOPE  H16S18043   5.255   2.888   9.004 -0.5443 -3.1730 -2.0260
  161SOPE  C21718044   5.327   2.689   9.025 -0.2677  0.3407  0.2411
  161SOPE  H17R18045   5.256   2.647   9.100 -1.7936 -2.4232 -2.6148
  161SOPE  H17S18046   5.425   2.637   9.025 -1.1273 -1.3309  0.7338
  161SOPE  C21818047   5.261   2.663   8.890 -0.2978  0.1030 -0.1552
  161SOPE  H18R18048   5.189   2.747   8.877 -1.1193 -0.7575 -1.3665
  161SOPE  H18S18049   5.215   2.563   8.875  1.1660 -0.6684  0.3996
  161SOPE  H18T18050   5.344   2.673   8.817  0.0368 -1.9854 -0.0740
  161SOPE   C3318051   6.032   3.262   9.976  0.2673 -0.1615 -0.5543
  161SOPE   H3X18052   6.104   3.346   9.991  0.4998  0.0606 -2.7742
  161SOPE   H3Y18053   5.936   3.314   9.957 -0.5848 -1.8377 -0.9079
  161SOPE   C3418054   6.080   3.170   9.860 -0.5052 -0.2296  0.6987
  161SOPE   H4X18055   6.004   3.089   9.850  0.2845 -0.8194 -0.6433
  161SOPE   H4Y18056   6.174   3.116   9.883  1.2527  2.7376  0.6982
  161SOPE   C3518057   6.108   3.236   9.725 -0.2861 -0.1623  0.2253
  161SOPE   H5X18058   6.149   3.338   9.729 -3.5437  1.3011 -1.3711
  161SOPE   H5Y18059   6.005   3.246   9.683  0.1671 -1.5927 -1.3028
  161SOPE   C3618060   6.213   3.163   9.647 -0.1307  0.3163  0.3648
  161SOPE   H6X18061   6.169   3.062   9.631 -2.5690  1.4412 -0.3609
  161SOPE   H6Y18062   6.307   3.141   9.700 -0.5190 -0.8504  0.5865
  161SOPE   C3718063   6.251   3.228   9.513 -0.1232 -0.1473  0.3402
  161SOPE   H7X18064   6.306   3.318   9.548  0.2300 -0.0922 -0.3474
  161SOPE   H7Y18065   6.159   3.250   9.456  0.6839  0.3349 -0.8089
  161SOPE   C3818066   6.356   3.151   9.436  0.1178  0.5692  0.3714
  161SOPE   H8X18067   6.314   3.048   9.425  1.5820 -0.1665  1.5006
  161SOPE   H8Y18068   6.451   3.136   9.492  1.3627  0.1353 -1.7895
  161SOPE   C3918069   6.377   3.203   9.292  0.3916  0.1968  0.2702
  161SOPE   H9X18070   6.397   3.312   9.281  2.8443 -0.0903  1.5123
  161SOPE   H9Y18071   6.286   3.168   9.240  0.0848  1.0045  0.2478
  161SOPE  C31018072   6.494   3.117   9.232  0.2980 -0.4909  0.1973
  161SOPE  H10X18073   6.473   3.016   9.275  0.9854 -0.8356 -0.2631
  161SOPE  H10Y18074   6.587   3.157   9.277 -0.8245  0.0822  2.1119
  161SOPE  C31118075   6.500   3.099   9.076 -0.5354 -0.0366 -0.6903
  161SOPE  H11X18076   6.523   3.196   9.027  1.2457 -0.4483 -0.6846
  161SOPE  H11Y18077   6.395   3.089   9.040 -1.3312  0.1442  1.4790
  161SOPE  C31218078   6.572   2.975   9.032  0.8757 -0.1054 -0.0937
  161SOPE  H12X18079   6.528   2.881   9.072  3.1293  0.0589  3.0142
  161SOPE  H12Y18080   6.675   2.974   9.074  1.0348 -0.0781 -0.4839
  161SOPE  C31318081   6.587   2.956   8.881 -0.6444  0.6390 -0.6325
  161SOPE  H13X18082   6.495   2.973   8.821 -1.4788 -1.2179  0.0879
  161SOPE  H13Y18083   6.624   2.854   8.857 -0.2453  0.9215 -1.1958
  161SOPE  C31418084   6.689   3.071   8.836  0.8357 -0.1570  0.0825
  161SOPE  H14X18085   6.774   3.085   8.906 -0.7202  2.2183  1.5880
  161SOPE  H14Y18086   6.633   3.166   8.853  1.8259  1.0149 -2.8245
  161SOPE  C31518087   6.720   3.069   8.681  0.3638 -0.0531 -1.0439
  161SOPE  H15X18088   6.627   3.073   8.619 -0.6463  1.1672  0.4899
  161SOPE  H15Y18089   6.772   2.972   8.671  0.5436 -0.4527  2.9300
  161SOPE  C31618090   6.813   3.186   8.649 -0.3047 -0.0398 -0.0102
  161SOPE  H16X18091   6.866   3.178   8.552 -2.1271  1.1390 -1.1157
  161SOPE  H16Y18092   6.894   3.189   8.726  1.8884 -0.3577 -2.2407
  161SOPE  C31718093   6.732   3.320   8.620 -0.2074  0.5770  0.7498
  161SOPE  H17X18094   6.805   3.404   8.619  1.0118 -0.4529 -2.3807
  161SOPE  H17Y18095   6.668   3.333   8.709 -0.6068  2.5565  0.1968
  161SOPE  C31818096   6.655   3.313   8.485  0.5937  0.0014  0.8431
  161SOPE  H18X18097   6.728   3.313   8.401 -1.7535  0.2403 -1.2558
  161SOPE  H18Y18098   6.606   3.413   8.481  1.1324  0.2899  1.2353
  161SOPE  H18Z18099   6.575   3.237   8.492 -0.4446  1.2330  2.6648
  162SOPE     N18100   4.385   2.891  11.191 -0.2730  1.0761  0.1601
  162SOPE   HN118101   4.351   2.943  11.107 -1.2831  0.9280  0.4650
  162SOPE   HN218102   4.354   2.936  11.280 -1.1885  0.1031  0.3527
  162SOPE   HN318103   4.489   2.889  11.188 -0.3149 -0.5967 -1.1256
  162SOPE   C1218104   4.337   2.748  11.181 -0.0087  0.1379 -0.1794
  162SOPE  H12A18105   4.397   2.688  11.252 -0.6307 -0.7810 -0.4197
  162SOPE  H12B18106   4.372   2.701  11.087 -1.0366 -0.6202 -0.2006
  162SOPE   C1118107   4.189   2.731  11.210 -0.8015 -0.2381 -0.1834
  162SOPE  H11A18108   4.164   2.774  11.309 -0.9701  1.8411 -1.0946
  162SOPE  H11B18109   4.157   2.625  11.212 -1.3673 -0.1283 -2.3549
  162SOPE     P18110   4.054   2.763  10.986 -0.2526 -0.4722 -0.0004
  162SOPE   O1318111   4.070   2.873  10.889 -0.4108 -0.2937 -0.1717
  162SOPE   O1418112   3.916   2.712  11.010 -0.5661  0.2509 -0.3240
  162SOPE   O1218113   4.110   2.810  11.129 -0.2244  0.1182  0.4226
  162SOPE   O1118114   4.147   2.637  10.952  0.4366 -0.2140  0.4094
  162SOPE    C118115   4.216   2.650  10.832 -0.3114  1.0631  0.1288
  162SOPE    HA18116   4.290   2.733  10.836 -2.1279  2.6931  0.6172
  162SOPE    HB18117   4.149   2.660  10.744  2.0259 -1.5185 -2.0612
  162SOPE    C218118   4.294   2.519  10.788  1.0775 -0.2906 -0.0647
  162SOPE    HS18119   4.381   2.506  10.856  0.4349 -1.4333  0.5544
  162SOPE   O2118120   4.317   2.519  10.646  0.5079 -0.0646  0.1772
  162SOPE   C2118121   4.439   2.569  10.628 -0.6791 -0.8301  0.1240
  162SOPE   O2218122   4.526   2.585  10.711  0.3037 -0.1261 -0.0889
  162SOPE   C2218123   4.457   2.579  10.475  0.4094 -0.5051  0.3454
  162SOPE   H2R18124   4.354   2.574  10.432  0.2627 -1.1065  0.7555
  162SOPE   H2S18125   4.515   2.492  10.439  0.3913  0.3986 -1.9505
  162SOPE    C318126   4.193   2.401  10.816  0.1376  0.6929  0.2291
  162SOPE    HX18127   4.179   2.400  10.926  1.8782  0.6493  0.4646
  162SOPE    HY18128   4.249   2.306  10.800 -2.2585 -0.8305  0.7076
  162SOPE   O3118129   4.064   2.416  10.751 -0.2044  0.2768 -0.0375
  162SOPE   C3118130   4.060   2.353  10.630 -0.0811  0.8833 -0.8387
  162SOPE   O3218131   4.144   2.279  10.588  0.3258 -0.0854  0.5089
  162SOPE   C3218132   3.938   2.400  10.557  0.3141  0.3376 -0.6798
  162SOPE   H2X18133   3.896   2.495  10.597 -1.0469 -1.0198  1.1890
  162SOPE   H2Y18134   3.853   2.331  10.571  0.6044  0.3232  1.0622
  162SOPE   C2318135   4.531   2.715  10.431  0.3276  0.0641 -0.1519
  162SOPE   H3R18136   4.565   2.704  10.326  0.1531  0.3022 -0.2336
  162SOPE   H3S18137   4.621   2.726  10.495 -0.7783  2.0765  1.1254
  162SOPE   C2418138   4.448   2.854  10.444  0.6557  0.2849 -0.2480
  162SOPE   H4R18139   4.407   2.849  10.547  1.1429  2.0424  0.0498
  162SOPE   H4S18140   4.512   2.945  10.450 -1.5629  1.9280 -0.7568
  162SOPE   C2518141   4.338   2.872  10.342  0.1233 -0.4744  0.7132
  162SOPE   H5R18142   4.266   2.787  10.342  0.7842 -1.0605 -0.2755
  162SOPE   H5S18143   4.292   2.969  10.368 -1.5536 -0.9123 -0.5113
  162SOPE   C2618144   4.380   2.889  10.190 -0.5702 -0.0255 -1.1019
  162SOPE   H6R18145   4.478   2.938  10.173  0.6657 -1.4069  1.7702
  162SOPE   H6S18146   4.383   2.781  10.163 -0.2731 -1.2276  3.4326
  162SOPE   C2718147   4.274   2.947  10.101 -0.7910 -0.3580  0.8455
  162SOPE   H7R18148   4.183   2.889  10.128 -1.3808  0.3759  0.4468
  162SOPE   H7S18149   4.250   3.046  10.143 -0.4282 -0.5473  1.5076
  162SOPE   C2818150   4.311   2.937   9.949  0.8494 -0.8565 -0.5124
  162SOPE   H8R18151   4.357   2.838   9.930 -3.0972 -2.8625 -0.0536
  162SOPE   H8S18152   4.216   2.950   9.892  0.2457 -2.9429  0.0019
  162SOPE   C2918153   4.389   3.055   9.912 -0.1515 -0.0876 -0.0692
  162SOPE   H9118154   4.403   3.128   9.993  1.3816  0.5358 -0.8733
  162SOPE  C21018155   4.470   3.074   9.801 -0.3098 -0.3292 -0.5377
  162SOPE  H10118156   4.518   3.171   9.782 -0.1061 -0.3738 -0.2450
  162SOPE  C21118157   4.487   2.975   9.687  0.8853 -0.0538 -0.7848
  162SOPE  H11R18158   4.427   2.884   9.707  1.6136 -0.3573  0.0745
  162SOPE  H11S18159   4.588   2.933   9.666  1.5018  0.8267  0.3835
  162SOPE  C21218160   4.453   3.038   9.555  0.4181 -0.3384 -0.4782
  162SOPE  H12R18161   4.477   2.960   9.480  0.1918 -1.0677  0.1987
  162SOPE  H12S18162   4.521   3.122   9.532 -0.5195  0.2127 -1.2719
  162SOPE  C21318163   4.301   3.066   9.528  0.3036  0.3113 -0.0322
  162SOPE  H13R18164   4.268   3.123   9.617 -0.7091 -0.9704  0.4417
  162SOPE  H13S18165   4.251   2.967   9.537 -0.6873  0.9426  1.6449
  162SOPE  C21418166   4.278   3.148   9.405  0.1609 -0.5680 -0.3281
  162SOPE  H14R18167   4.325   3.093   9.321  1.2061 -0.4066  0.1375
  162SOPE  H14S18168   4.323   3.249   9.397  0.1739 -0.3462  2.1728
  162SOPE  C21518169   4.132   3.176   9.375  0.3104 -0.5035  0.0787
  162SOPE  H15R18170   4.083   3.232   9.458 -2.0938 -1.2803 -0.7597
  162SOPE  H15S18171   4.071   3.084   9.360 -0.1161  0.1836 -2.6064
  162SOPE  C21618172   4.120   3.271   9.252 -0.4209 -0.0903 -0.0380
  162SOPE  H16R18173   4.195   3.229   9.182 -0.1651 -2.6891  1.7211
  162SOPE  H16S18174   4.158   3.370   9.286 -1.1869  0.2525 -0.1862
  162SOPE  C21718175   3.970   3.284   9.209 -0.5672  0.1851  0.0813
  162SOPE  H17R18176   3.924   3.342   9.292 -1.9317 -0.1056 -0.4542
  162SOPE  H17S18177   3.933   3.179   9.204 -2.1029  0.7577 -1.0684
  162SOPE  C21818178   3.954   3.339   9.070 -0.6286 -0.7172  0.2671
  162SOPE  H18R18179   3.998   3.266   8.999  0.5506  0.2117  0.0393
  162SOPE  H18S18180   4.004   3.434   9.043  0.7092 -1.3921  0.3388
  162SOPE  H18T18181   3.855   3.354   9.021  0.3061  2.8570 -0.6105
  162SOPE   C3318182   3.959   2.419  10.404  0.5633  0.2603 -0.6160
  162SOPE   H3X18183   3.978   2.321  10.355  2.7882  0.8351 -0.9745
  162SOPE   H3Y18184   4.049   2.482  10.387 -0.6850  2.3005  0.1310
  162SOPE   C3418185   3.844   2.493  10.326  0.0283 -0.5303  0.3971
  162SOPE   H4X18186   3.824   2.593  10.371 -1.2561 -0.0388 -1.1972
  162SOPE   H4Y18187   3.752   2.434  10.346 -0.9382  1.4203  1.9468
  162SOPE   C3518188   3.870   2.500  10.175  0.2053 -0.2707 -0.1976
  162SOPE   H5X18189   3.770   2.517  10.131 -0.3614 -1.2396  0.6877
  162SOPE   H5Y18190   3.897   2.400  10.135 -0.3533  0.2170 -1.8034
  162SOPE   C3618191   3.970   2.599  10.116  1.0718 -0.8809 -0.3543
  162SOPE   H6X18192   4.068   2.574  10.162  0.2695 -3.0243  0.2117
  162SOPE   H6Y18193   3.937   2.700  10.150 -0.1762 -1.1147 -0.8129
  162SOPE   C3718194   3.983   2.598   9.960 -0.2923  0.1586 -0.1213
  162SOPE   H7X18195   3.879   2.600   9.924  0.0217  2.4699 -0.9834
  162SOPE   H7Y18196   4.024   2.499   9.930 -0.3591  0.2680 -0.5780
  162SOPE   C3818197   4.059   2.708   9.899  0.9391  0.0242 -0.3976
  162SOPE   H8X18198   4.156   2.720   9.952 -1.3430  3.9354  3.2478
  162SOPE   H8Y18199   4.017   2.811   9.907  1.9569  0.3582  0.7629
  162SOPE   C3918200   4.091   2.682   9.747 -0.0358 -0.4609 -0.1783
  162SOPE   H9X18201   4.087   2.572   9.732  1.3861 -0.6055  0.4276
  162SOPE   H9Y18202   4.189   2.730   9.728  0.8145 -1.1801  2.1180
  162SOPE  C31018203   3.986   2.741   9.651 -0.1107  0.3373  0.2543
  162SOPE  H10X18204   3.973   2.851   9.664 -2.9949 -0.1581  1.7525
  162SOPE  H10Y18205   3.893   2.698   9.693  1.5258 -3.5443  0.1058
  162SOPE  C31118206   4.003   2.704   9.505 -0.7765  0.4842 -0.2203
  162SOPE  H11X18207   3.976   2.599   9.478  1.2012 -0.6615  2.0953
  162SOPE  H11Y18208   4.111   2.712   9.478 -0.7474  0.3786 -0.1327
  162SOPE  C31218209   3.922   2.802   9.422 -0.6847  0.5312  0.7596
  162SOPE  H12X18210   3.969   2.903   9.425 -4.6094  2.4708  0.9366
  162SOPE  H12Y18211   3.823   2.810   9.472 -1.1150 -0.3309  0.0686
  162SOPE  C31318212   3.915   2.762   9.278  0.6912 -0.0269 -0.4172
  162SOPE  H13X18213   3.873   2.846   9.219  0.9091 -0.5828 -1.3645
  162SOPE  H13Y18214   3.849   2.673   9.267 -1.6629  1.6831 -0.4851
  162SOPE  C31418215   4.055   2.731   9.228 -0.2803  0.1711 -0.0565
  162SOPE  H14X18216   4.089   2.632   9.267  1.9766  1.1417  0.5132
  162SOPE  H14Y18217   4.122   2.810   9.268 -0.6625 -0.7276  2.4630
  162SOPE  C31518218   4.065   2.738   9.075 -0.2965 -0.5609  0.6373
  162SOPE  H15X18219   3.972   2.692   9.035 -0.2347 -0.7629  0.7237
  162SOPE  H15Y18220   4.157   2.684   9.042  0.9746  0.0276  3.1239
  162SOPE  C31618221   4.071   2.884   9.034 -0.1358 -0.3761  0.4134
  162SOPE  H16X18222   4.165   2.915   9.083  0.3301 -0.9499 -0.1079
  162SOPE  H16Y18223   3.990   2.947   9.076 -0.1712 -0.5258  0.5709
  162SOPE  C31718224   4.085   2.898   8.882  0.4321  0.2341  0.0261
  162SOPE  H17X18225   4.006   2.848   8.822  0.5278  0.3129 -0.1673
  162SOPE  H17Y18226   4.179   2.842   8.863 -0.3469 -0.7292 -1.0714
  162SOPE  C31818227   4.112   3.044   8.839  0.4150  1.4217  0.0847
  162SOPE  H18X18228   4.012   3.093   8.849  0.5291  2.0966 -1.8722
  162SOPE  H18Y18229   4.139   3.064   8.733 -0.2206 -1.9843 -0.7872
  162SOPE  H18Z18230   4.173   3.109   8.905  0.7725 -0.2724  1.4539
  163SOPE     N18231   5.605   0.288  10.984 -0.0745 -0.4669 -0.2285
  163SOPE   HN118232   5.528   0.349  10.950 -1.0863 -1.2840  0.5791
  163SOPE   HN218233   5.564   0.241  11.067 -0.5682  2.1616  1.0909
  163SOPE   HN318234   5.682   0.342  11.027  1.4375 -3.2983  0.7345
  163SOPE   C1218235   5.665   0.187  10.896  0.0000 -0.0545  0.2701
  163SOPE  H12A18236   5.733   0.118  10.949 -1.4274 -2.4359 -0.9165
  163SOPE  H12B18237   5.728   0.240  10.821 -1.7875  1.2467 -0.3487
  163SOPE   C1118238   5.548   0.109  10.826  0.8036  0.0608  0.4620
  163SOPE  H11A18239   5.574   0.011  10.780 -1.8666 -0.4938  0.0587
  163SOPE  H11B18240   5.522   0.181  10.745 -1.5248 -0.6825  0.5092
  163SOPE     P18241   5.286   0.107  10.885  0.2479 -0.0218 -0.3299
  163SOPE   O1318242   5.244   0.246  10.919 -1.0654 -0.4636 -0.0858
  163SOPE   O1418243   5.209  -0.000  10.951 -0.3567 -0.3349  0.9281
  163SOPE   O1218244   5.438   0.086  10.916  0.4090 -0.6658 -0.1667
  163SOPE   O1118245   5.288   0.091  10.730  0.4479 -0.1964  0.4795
  163SOPE    C118246   5.276   0.201  10.638 -0.0601 -0.1257  0.0934
  163SOPE    HA18247   5.350   0.279  10.666  1.0886 -1.1592  0.0142
  163SOPE    HB18248   5.174   0.244  10.639 -0.7152 -1.6446  1.1313
  163SOPE    C218249   5.306   0.151  10.490  0.2796 -0.5825 -0.2554
  163SOPE    HS18250   5.293   0.247  10.435  2.2206  0.7622  1.5620
  163SOPE   O2118251   5.211   0.048  10.448  0.4645  0.0899 -0.2673
  163SOPE   C2118252   5.090   0.099  10.425 -0.4494  0.1188 -0.0264
  163SOPE   O2218253   5.061   0.218  10.433  0.3897  0.5166 -0.2321
  163SOPE   C2218254   5.001  -0.014  10.371 -0.0746  0.1563 -0.2712
  163SOPE   H2R18255   4.893   0.011  10.368 -0.6988 -2.4708 -1.3367
  163SOPE   H2S18256   5.012  -0.091  10.450  0.7375 -0.0797 -0.6097
  163SOPE    C318257   5.453   0.102  10.468  0.2104 -0.0572  0.3612
  163SOPE    HX18258   5.447   0.002  10.516 -3.0878 -0.9544 -1.7763
  163SOPE    HY18259   5.518   0.166  10.531  1.5978  1.5257 -2.5669
  163SOPE   O3118260   5.482   0.108  10.328  0.0958  0.7150 -0.2016
  163SOPE   C3118261   5.454   0.010  10.244 -0.0904  0.4201  0.6584
  163SOPE   O3218262   5.409  -0.104  10.265 -0.2513 -0.1868  0.0570
  163SOPE   C3218263   5.474   0.069  10.102 -0.0739  0.0397  0.2718
  163SOPE   H2X18264   5.569   0.126  10.100 -0.0962  0.0937  0.6598
  163SOPE   H2Y18265   5.391   0.139  10.076  0.0183 -0.3407 -1.0651
  163SOPE   C2318266   5.046  -0.078  10.231 -0.2903  0.0607 -0.0710
  163SOPE   H3R18267   5.157  -0.075  10.223 -0.3862  3.0678 -1.0455
  163SOPE   H3S18268   5.005  -0.013  10.150 -0.1136 -0.3937 -0.5268
  163SOPE   C2418269   4.985  -0.211  10.213 -0.0100 -0.2471  0.2673
  163SOPE   H4R18270   5.025  -0.259  10.305 -2.9047  1.4871  2.5092
  163SOPE   H4S18271   4.874  -0.207  10.220 -0.0084  0.9123 -0.1144
  163SOPE   C2518272   5.025  -0.299  10.096  0.1687 -0.2518  1.0214
  163SOPE   H5R18273   4.990  -0.257   9.999  1.2812 -1.0364  0.2713
  163SOPE   H5S18274   5.135  -0.290  10.095  0.5549 -4.1463  1.5968
  163SOPE   C2618275   4.970  -0.445  10.105 -0.3452 -0.1075  0.4895
  163SOPE   H6R18276   4.981  -0.480  10.210  0.1603  0.0463  0.4848
  163SOPE   H6S18277   4.860  -0.436  10.088 -0.7023 -1.7040  1.7765
  163SOPE   C2718278   5.002  -0.554  10.003 -0.0127  0.1301  0.7591
  163SOPE   H7R18279   5.094  -0.598  10.047  0.1118  0.3915  0.7562
  163SOPE   H7S18280   4.935  -0.643  10.007 -0.4170  0.4364  0.8393
  163SOPE   C2818281   5.012  -0.501   9.858  0.0318  0.0136 -0.2016
  163SOPE   H8R18282   5.051  -0.397   9.858 -0.3360  0.1537  1.2333
  163SOPE   H8S18283   5.081  -0.555   9.790 -1.3707 -0.5418 -1.2285
  163SOPE   C2918284   4.875  -0.489   9.786 -0.3145 -0.1007 -0.3945
  163SOPE   H9118285   4.805  -0.444   9.858 -2.3764 -3.1082 -0.4195
  163SOPE  C21018286   4.846  -0.505   9.656  0.3010 -0.1761 -0.5823
  163SOPE  H10118287   4.739  -0.495   9.635  0.6629  0.8518 -2.0289
  163SOPE  C21118288   4.938  -0.546   9.542 -0.9099  0.0705  0.4795
  163SOPE  H11R18289   5.020  -0.616   9.568  1.6137  1.5951 -3.0440
  163SOPE  H11S18290   4.996  -0.456   9.513  0.5868 -0.7255  0.9756
  163SOPE  C21218291   4.873  -0.582   9.410 -0.0173  0.1917  0.4373
  163SOPE  H12R18292   4.789  -0.653   9.428 -0.7522  0.5160 -1.6434
  163SOPE  H12S18293   4.944  -0.638   9.346 -2.3702 -0.7586 -1.4049
  163SOPE  C21318294   4.829  -0.462   9.331 -0.1332  0.2511 -0.8389
  163SOPE  H13R18295   4.911  -0.390   9.312 -1.4724  1.4662 -2.1332
  163SOPE  H13S18296   4.756  -0.392   9.378  0.9926  0.6999  0.2937
  163SOPE  C21418297   4.766  -0.489   9.192 -0.1619 -0.9182 -0.0823
  163SOPE  H14R18298   4.818  -0.579   9.153  1.6694 -0.2749  0.7909
  163SOPE  H14S18299   4.792  -0.405   9.124  2.3984 -2.6431 -1.3265
  163SOPE  C21518300   4.612  -0.509   9.193 -0.2821 -0.0764  0.1906
  163SOPE  H15R18301   4.561  -0.414   9.221 -1.2795 -0.6751  0.4242
  163SOPE  H15S18302   4.575  -0.583   9.267 -0.8710  0.0764  0.0486
  163SOPE  C21618303   4.559  -0.542   9.050  0.2099  0.1624  0.4920
  163SOPE  H16R18304   4.608  -0.637   9.019  2.2581  0.6937  1.9736
  163SOPE  H16S18305   4.598  -0.459   8.987  1.6180  0.1189  1.2895
  163SOPE  C21718306   4.406  -0.550   9.044  0.2035  0.3860  0.2069
  163SOPE  H17R18307   4.364  -0.450   9.065 -0.2838  0.1716  0.2517
  163SOPE  H17S18308   4.371  -0.618   9.124  0.9156  1.7932  1.7472
  163SOPE  C21818309   4.359  -0.597   8.905  0.0209  0.3352  0.5883
  163SOPE  H18R18310   4.420  -0.685   8.876 -0.9435 -0.3462  0.6138
  163SOPE  H18S18311   4.377  -0.504   8.847 -2.6319  0.6382  0.2260
  163SOPE  H18T18312   4.253  -0.628   8.896  0.4603 -0.5833 -1.6775
  163SOPE   C3318313   5.478  -0.043   9.993 -0.1516  0.4513  0.8081
  163SOPE   H3X18314   5.379  -0.093   9.990  0.4417 -0.8108  1.9565
  163SOPE   H3Y18315   5.561  -0.114  10.014  0.2349  0.3412 -0.9493
  163SOPE   C3418316   5.504   0.031   9.859  0.1531  0.6321  0.1202
  163SOPE   H4X18317   5.598   0.087   9.843  0.1409  0.2774 -1.2640
  163SOPE   H4Y18318   5.425   0.108   9.842 -0.1395  0.3068  0.0019
  163SOPE   C3518319   5.507  -0.064   9.732  0.5283 -0.1262  0.5986
  163SOPE   H5X18320   5.406  -0.110   9.727  0.0363  0.6864  2.7585
  163SOPE   H5Y18321   5.579  -0.147   9.753 -0.8238 -1.5011 -0.0894
  163SOPE   C3618322   5.533   0.002   9.596  0.2512  0.0470 -0.0184
  163SOPE   H6X18323   5.629   0.058   9.586 -0.3905  1.4413  1.4635
  163SOPE   H6Y18324   5.455   0.081   9.594 -0.4700 -0.6623  0.1558
  163SOPE   C3718325   5.512  -0.098   9.483  0.4117  0.4273  0.2446
  163SOPE   H7X18326   5.417  -0.152   9.501 -0.0064  1.4520  1.1441
  163SOPE   H7Y18327   5.594  -0.173   9.471 -0.7094 -0.3305 -3.2533
  163SOPE   C3818328   5.492  -0.032   9.335  0.1557 -0.2419  0.2436
  163SOPE   H8X18329   5.561   0.053   9.321 -0.6003  0.6142  1.5937
  163SOPE   H8Y18330   5.385  -0.003   9.323  0.1034 -0.5917 -0.1415
  163SOPE   C3918331   5.517  -0.135   9.229 -0.4483 -0.7540  0.0699
  163SOPE   H9X18332   5.450  -0.221   9.251  1.1625 -1.9225  0.4551
  163SOPE   H9Y18333   5.618  -0.180   9.234 -0.9014 -1.8713 -0.5113
  163SOPE  C31018334   5.489  -0.076   9.088  0.2823  0.7142  0.0452
  163SOPE  H10X18335   5.532   0.026   9.079  2.9738 -0.5191 -1.5375
  163SOPE  H10Y18336   5.380  -0.085   9.070  0.5219 -1.2171 -0.5654
  163SOPE  C31118337   5.563  -0.161   8.982 -0.2058  0.3937  0.3240
  163SOPE  H11X18338   5.503  -0.172   8.889 -0.5005 -1.3602  0.6955
  163SOPE  H11Y18339   5.604  -0.259   9.016  1.0704  1.2994  1.4238
  163SOPE  C31218340   5.696  -0.101   8.938 -0.9546 -0.0537  0.1243
  163SOPE  H12X18341   5.768  -0.121   9.020 -2.2114 -0.1277  1.2414
  163SOPE  H12Y18342   5.689   0.008   8.914 -0.2216 -0.0087  0.1171
  163SOPE  C31318343   5.738  -0.168   8.806 -1.0430  0.1919  0.6752
  163SOPE  H13X18344   5.710  -0.274   8.820  3.7277 -1.2370  0.1822
  163SOPE  H13Y18345   5.849  -0.160   8.800 -1.0825 -0.3568 -0.9754
  163SOPE  C31418346   5.666  -0.104   8.675  0.5853  0.1651  0.3031
  163SOPE  H14X18347   5.713  -0.008   8.646  0.2899 -0.5320 -2.6383
  163SOPE  H14Y18348   5.558  -0.092   8.700  0.1657 -1.6401 -0.6074
  163SOPE  C31518349   5.673  -0.201   8.559  0.2773  0.0104 -0.0907
  163SOPE  H15X18350   5.623  -0.293   8.596 -0.5888  0.8487  0.8381
  163SOPE  H15Y18351   5.779  -0.220   8.534  0.0746  0.0021 -0.9688
  163SOPE  C31618352   5.598  -0.140   8.439  0.3297 -0.0981 -0.0723
  163SOPE  H16X18353   5.645  -0.045   8.406 -1.1424  1.0730  1.0822
  163SOPE  H16Y18354   5.499  -0.106   8.478 -0.5433 -0.6966 -1.7263
  163SOPE  C31718355   5.572  -0.240   8.327  0.4130  0.0619  0.0295
  163SOPE  H17X18356   5.497  -0.206   8.252  2.9990  3.4495 -1.1006
  163SOPE  H17Y18357   5.544  -0.337   8.374 -1.9451  0.8437  0.2945
  163SOPE  C31818358   5.700  -0.272   8.233  0.0459  0.4952  0.2346
  163SOPE  H18X18359   5.723  -0.178   8.177 -1.9418  0.7070 -0.2660
  163SOPE  H18Y18360   5.675  -0.351   8.159 -0.4757  2.3174 -1.5749
  163SOPE  H18Z18361   5.790  -0.305   8.289  0.0408 -1.2342 -0.7586
  164SOPE     N18362   0.638   5.484  10.670 -0.4707  0.2550 -1.0614
  164SOPE   HN118363   0.678   5.525  10.756 -1.4398 -1.9876  0.5214
  164SOPE   HN218364   0.546   5.527  10.647 -0.8925  0.2004  0.4897
  164SOPE   HN318365   0.623   5.383  10.691  1.3354  0.3276  0.7133
  164SOPE   C1218366   0.741   5.496  10.570  0.0162 -0.0596 -0.1185
  164SOPE  H12A18367   0.737   5.603  10.544 -0.1945 -0.1995 -0.6760
  164SOPE  H12B18368   0.713   5.451  10.472  0.6269  3.0417 -1.7696
  164SOPE   C1118369   0.877   5.448  10.618  0.7257 -0.2818 -0.6354
  164SOPE  H11A18370   0.967   5.477  10.558  1.3596  3.4564  1.9296
  164SOPE  H11B18371   0.870   5.339  10.599  0.7719 -0.6419  1.3496
  164SOPE     P18372   1.000   5.412  10.845 -0.3960  0.1788 -0.1740
  164SOPE   O1318373   0.924   5.350  10.953 -0.5556  0.5514 -0.2808
  164SOPE   O1418374   1.097   5.514  10.885 -0.2790 -0.2973 -0.5929
  164SOPE   O1218375   0.895   5.477  10.753  0.4015 -0.0304  0.7740
  164SOPE   O1118376   1.060   5.306  10.749 -0.7753 -0.1837  0.2457
  164SOPE    C118377   1.184   5.239  10.777 -1.2423  0.7755  0.8547
  164SOPE    HA18378   1.165   5.149  10.840 -0.4973 -1.1772 -1.6039
  164SOPE    HB18379   1.251   5.303  10.838  0.8688  0.4384 -1.0405
  164SOPE    C218380   1.264   5.195  10.652  0.1464  0.4198 -0.0312
  164SOPE    HS18381   1.334   5.118  10.692  0.1257  0.8231  0.8118
  164SOPE   O2118382   1.342   5.312  10.606  0.0304 -0.2434  0.3214
  164SOPE   C2118383   1.437   5.292  10.531 -0.5078 -0.8935 -0.2045
  164SOPE   O2218384   1.491   5.189  10.493  0.1129  0.5937  0.8410
  164SOPE   C2218385   1.453   5.424  10.446  0.3016 -0.5313  0.3104
  164SOPE   H2R18386   1.458   5.505  10.521  0.5159  0.5666 -0.8877
  164SOPE   H2S18387   1.360   5.428  10.385  0.3641  2.4448  0.3560
  164SOPE    C318388   1.164   5.148  10.542 -0.4036  0.0191  0.2729
  164SOPE    HX18389   1.100   5.235  10.517  0.1121  1.0467  2.4247
  164SOPE    HY18390   1.102   5.064  10.580 -0.0616  0.6633  2.2818
  164SOPE   O3118391   1.241   5.094  10.430 -0.1156 -0.0782  0.1524
  164SOPE   C3118392   1.187   5.124  10.312  0.4946  0.5843  0.8723
  164SOPE   O3218393   1.083   5.192  10.292  0.2495  0.4240  0.1832
  164SOPE   C3218394   1.289   5.084  10.202  0.5825 -0.1339  0.3515
  164SOPE   H2X18395   1.260   4.985  10.162  0.3420  1.0815 -2.6380
  164SOPE   H2Y18396   1.392   5.080  10.243  0.6525  1.4141  0.3638
  164SOPE   C2318397   1.586   5.421  10.364 -0.6050  0.4983  0.9963
  164SOPE   H3R18398   1.595   5.339  10.290  0.5676  2.0864 -0.6522
  164SOPE   H3S18399   1.656   5.406  10.449 -1.2566 -0.5732  1.3616
  164SOPE   C2418400   1.607   5.561  10.302  0.3430 -0.6803 -0.0560
  164SOPE   H4R18401   1.517   5.597  10.247 -0.1580  0.1808  1.3306
  164SOPE   H4S18402   1.630   5.620  10.393  3.0595 -0.5176 -0.7848
  164SOPE   C2518403   1.726   5.558  10.212 -0.2412 -1.2049  0.3835
  164SOPE   H5R18404   1.767   5.661  10.204 -0.6698 -0.9509  1.4320
  164SOPE   H5S18405   1.800   5.484  10.249  0.7070 -0.3599  0.2080
  164SOPE   C2618406   1.682   5.524  10.060 -0.0793  0.0458 -0.4107
  164SOPE   H6R18407   1.612   5.439  10.070 -2.3202  2.0790  1.8946
  164SOPE   H6S18408   1.629   5.615  10.025  0.2077  0.2472 -0.3194
  164SOPE   C2718409   1.796   5.476   9.960 -0.3987  0.1125 -0.0064
  164SOPE   H7R18410   1.873   5.555   9.944 -1.0783  0.2970 -2.6480
  164SOPE   H7S18411   1.853   5.394  10.008 -1.2781 -0.5130 -0.0293
  164SOPE   C2818412   1.734   5.437   9.825 -0.7895  0.4340 -0.1182
  164SOPE   H8R18413   1.652   5.508   9.797 -1.5204  0.3414  1.6753
  164SOPE   H8S18414   1.812   5.466   9.752 -1.1214  1.4205 -0.0956
  164SOPE   C2918415   1.669   5.304   9.813  0.0479  0.3557 -0.2195
  164SOPE   H9118416   1.582   5.295   9.879 -0.1598 -2.3394 -0.8234
  164SOPE  C21018417   1.710   5.194   9.738  0.4653 -0.1835 -0.6449
  164SOPE  H10118418   1.644   5.107   9.744 -0.3891  0.6120  2.1216
  164SOPE  C21118419   1.826   5.182   9.644 -0.7440 -0.1599  0.0944
  164SOPE  H11R18420   1.894   5.097   9.666  1.8192  1.4936 -1.1697
  164SOPE  H11S18421   1.881   5.278   9.650  2.2228 -1.6397 -2.0234
  164SOPE  C21218422   1.785   5.171   9.490 -0.0029  0.1701 -0.1811
  164SOPE  H12R18423   1.725   5.081   9.465  0.7274 -0.5444  0.5990
  164SOPE  H12S18424   1.878   5.160   9.431  0.3466 -0.3312  0.4496
  164SOPE  C21318425   1.721   5.297   9.437  0.1566  0.1367  0.3175
  164SOPE  H13R18426   1.794   5.381   9.444 -1.4295  1.6921 -1.2581
  164SOPE  H13S18427   1.637   5.317   9.508 -1.7377 -1.6721 -1.3803
  164SOPE  C21418428   1.688   5.283   9.286  0.2782 -0.8980  0.3023
  164SOPE  H14R18429   1.641   5.380   9.257  1.4045 -0.6609 -0.7780
  164SOPE  H14S18430   1.613   5.205   9.262 -0.7322 -0.0986  0.8311
  164SOPE  C21518431   1.816   5.246   9.193  0.0532 -0.7030 -0.6362
  164SOPE  H15R18432   1.849   5.142   9.215 -2.6686 -1.0954  1.9756
  164SOPE  H15S18433   1.898   5.311   9.229 -0.1929 -1.4589  1.3483
  164SOPE  C21618434   1.772   5.264   9.045  0.1617  0.2601 -0.3389
  164SOPE  H16R18435   1.715   5.359   9.031  0.7348  1.0412  2.2989
  164SOPE  H16S18436   1.693   5.191   9.018  0.4026 -0.5203  0.9985
  164SOPE  C21718437   1.875   5.250   8.936  0.6965 -0.0604  0.0800
  164SOPE  H17R18438   1.954   5.327   8.946  1.2222 -0.9753  3.6326
  164SOPE  H17S18439   1.831   5.267   8.836  0.6962  1.7115  0.3717
  164SOPE  C21818440   1.945   5.115   8.932 -0.0551  0.0445 -0.1025
  164SOPE  H18R18441   1.861   5.041   8.931  1.0638 -1.4056  3.5719
  164SOPE  H18S18442   2.019   5.098   9.013  1.0245  0.3117 -1.0321
  164SOPE  H18T18443   2.004   5.114   8.839 -0.2729 -2.7483 -0.2682
  164SOPE   C3318444   1.275   5.176  10.078 -0.5545  0.7006  0.4459
  164SOPE   H3X18445   1.309   5.282  10.083 -0.2910  0.5628  1.9558
  164SOPE   H3Y18446   1.168   5.176  10.048 -0.4842 -0.0156  0.1758
  164SOPE   C3418447   1.329   5.108   9.946  0.5994  0.5297 -0.7967
  164SOPE   H4X18448   1.290   5.005   9.953  3.6055 -0.5599  0.5667
  164SOPE   H4Y18449   1.440   5.100   9.947  0.7221  2.1314  1.4616
  164SOPE   C3518450   1.271   5.169   9.822  0.0280 -0.1832 -0.1720
  164SOPE   H5X18451   1.296   5.277   9.817 -2.0111  0.3003 -0.4070
  164SOPE   H5Y18452   1.160   5.166   9.819  0.0842 -2.7896 -1.1920
  164SOPE   C3618453   1.323   5.103   9.692 -0.1753  0.6198  0.0209
  164SOPE   H6X18454   1.305   4.994   9.689  0.7685  0.4572  0.1472
  164SOPE   H6Y18455   1.433   5.117   9.684 -0.1925  1.4752  1.1440
  164SOPE   C3718456   1.261   5.163   9.570  0.2138 -0.2881  0.2342
  164SOPE   H7X18457   1.271   5.273   9.583 -0.3103 -0.5015  2.6099
  164SOPE   H7Y18458   1.152   5.137   9.569  0.2709 -0.7091  2.9099
  164SOPE   C3818459   1.334   5.116   9.444  0.0496 -0.4392  0.6490
  164SOPE   H8X18460   1.316   5.008   9.427  1.4906 -0.5299 -0.4769
  164SOPE   H8Y18461   1.443   5.121   9.468 -0.2327 -1.8969  2.2766
  164SOPE   C3918462   1.298   5.192   9.313 -0.2475  0.1059 -0.5778
  164SOPE   H9X18463   1.350   5.148   9.225 -0.1602 -0.9843  0.0155
  164SOPE   H9Y18464   1.356   5.287   9.310 -0.2679  0.1435  0.2760
  164SOPE  C31018465   1.154   5.209   9.275 -0.2788  0.3830  0.0193
  164SOPE  H10X18466   1.113   5.292   9.337  2.6650  1.6037  0.3964
  164SOPE  H10Y18467   1.097   5.119   9.307  0.4926  0.2794  1.1224
  164SOPE  C31118468   1.124   5.239   9.125  0.5026 -0.2298 -0.3047
  164SOPE  H11X18469   1.014   5.235   9.108  0.2696 -1.9547  1.4492
  164SOPE  H11Y18470   1.181   5.164   9.067  1.4413  0.6267 -0.5047
  164SOPE  C31218471   1.168   5.382   9.064 -0.2283 -0.1810 -0.1990
  164SOPE  H12X18472   1.277   5.400   9.064 -0.2852  0.1561 -0.7837
  164SOPE  H12Y18473   1.113   5.466   9.112 -0.5965 -1.4858  1.7475
  164SOPE  C31318474   1.136   5.394   8.917  0.3576 -0.0730  0.5414
  164SOPE  H13X18475   1.027   5.412   8.916  0.5522  1.1178  0.3822
  164SOPE  H13Y18476   1.162   5.301   8.862 -0.3342  0.3834 -0.5605
  164SOPE  C31418477   1.197   5.515   8.852  0.1004  0.3077  0.1419
  164SOPE  H14X18478   1.307   5.501   8.839 -0.2141 -1.2714 -0.9020
  164SOPE  H14Y18479   1.203   5.602   8.921  0.2913  1.1105 -0.8546
  164SOPE  C31518480   1.148   5.562   8.715 -0.0059  0.4928 -0.0282
  164SOPE  H15X18481   1.044   5.595   8.737  0.5311  1.7686  0.6841
  164SOPE  H15Y18482   1.147   5.476   8.645 -0.2100  1.7183 -1.5672
  164SOPE  C31618483   1.231   5.670   8.654  0.9645  0.8702  0.8328
  164SOPE  H16X18484   1.252   5.749   8.730 -3.7740  1.4236  1.7086
  164SOPE  H16Y18485   1.157   5.716   8.584 -0.3713 -2.7112 -0.1859
  164SOPE  C31718486   1.360   5.622   8.573 -0.7444  0.4113  0.4031
  164SOPE  H17X18487   1.334   5.524   8.529  0.0423 -0.2464  1.3821
  164SOPE  H17Y18488   1.441   5.614   8.649  1.1791 -1.1850 -1.7546
  164SOPE  C31818489   1.421   5.704   8.463  0.1703  0.1039 -0.2582
  164SOPE  H18X18490   1.457   5.802   8.502  0.8601 -0.1167 -0.3218
  164SOPE  H18Y18491   1.352   5.733   8.380 -0.3682  1.6151  0.6974
  164SOPE  H18Z18492   1.515   5.665   8.418  0.0203  0.8766 -1.2673
  165SOPE     N18493   6.542   6.204  10.701  0.3757 -0.0875  0.4684
  165SOPE   HN118494   6.632   6.229  10.655  0.1315 -0.1565 -0.0607
  165SOPE   HN218495   6.482   6.159  10.629 -0.8440 -1.0996  2.1077
  165SOPE   HN318496   6.494   6.289  10.736  2.4968  0.5535  1.8997
  165SOPE   C1218497   6.546   6.096  10.807 -0.7403  0.3767 -0.1773
  165SOPE  H12A18498   6.646   6.097  10.856 -0.4995 -0.2435 -0.6403
  165SOPE  H12B18499   6.555   6.002  10.748 -1.3783 -0.0154  0.3543
  165SOPE   C1118500   6.434   6.104  10.903  0.0987 -0.5107 -0.2348
  165SOPE  H11A18501   6.426   6.194  10.968 -2.1707 -0.8614  0.0306
  165SOPE  H11B18502   6.446   6.017  10.972  0.2215  0.3379  0.8225
  165SOPE     P18503   6.182   6.031  10.900 -0.3759 -0.4411  0.2420
  165SOPE   O1318504   6.121   6.142  10.981  0.3146  0.4069 -0.8045
  165SOPE   O1418505   6.209   5.899  10.964  0.2141 -0.5968 -0.3509
  165SOPE   O1218506   6.311   6.079  10.826 -0.6475 -0.3616  0.4218
  165SOPE   O1118507   6.090   5.997  10.779 -0.1800  0.2578 -0.4508
  165SOPE    C118508   6.108   5.879  10.696 -0.1562 -0.2035  1.1335
  165SOPE    HA18509   6.016   5.866  10.635 -1.5126  1.3283  2.7930
  165SOPE    HB18510   6.123   5.788  10.758  2.4471  0.0396  0.9141
  165SOPE    C218511   6.218   5.897  10.588  0.5385 -0.5056  0.1953
  165SOPE    HS18512   6.315   5.921  10.636  0.3878  2.1723 -0.7292
  165SOPE   O2118513   6.179   6.016  10.515 -0.2798  0.3321  0.5484
  165SOPE   C2118514   6.275   6.090  10.461 -0.3672  0.0143 -0.1941
  165SOPE   O2218515   6.391   6.094  10.496  0.5965  0.2934 -0.2840
  165SOPE   C2218516   6.218   6.178  10.345  0.2156  0.1093 -0.0706
  165SOPE   H2R18517   6.239   6.285  10.369  2.9813 -0.5052  0.4821
  165SOPE   H2S18518   6.108   6.166  10.336 -0.1281  1.3955  2.0754
  165SOPE    C318519   6.226   5.775  10.493 -0.0746  0.9122  0.4350
  165SOPE    HX18520   6.119   5.750  10.472 -0.5057  3.1940 -0.2350
  165SOPE    HY18521   6.267   5.683  10.540 -0.3909 -0.0547 -1.1191
  165SOPE   O3118522   6.297   5.798  10.366 -0.1970  0.1356  0.5416
  165SOPE   C3118523   6.430   5.799  10.380  0.3365 -0.0169  0.1954
  165SOPE   O3218524   6.497   5.786  10.478 -0.0984  0.2035 -0.3708
  165SOPE   C3218525   6.486   5.812  10.235 -0.3922  0.4831  0.3113
  165SOPE   H2X18526   6.421   5.888  10.185 -0.5500  1.3302  1.7842
  165SOPE   H2Y18527   6.467   5.709  10.198 -3.5164  0.7564  1.0057
  165SOPE   C2318528   6.296   6.144  10.216  0.5517  0.0366 -0.2039
  165SOPE   H3R18529   6.256   6.044  10.188 -2.3066  1.4437 -1.3706
  165SOPE   H3S18530   6.405   6.157  10.231  0.7026 -0.9319 -0.4229
  165SOPE   C2418531   6.254   6.234  10.103  0.2819 -0.0097  0.0549
  165SOPE   H4R18532   6.151   6.214  10.066  0.2622  1.3963 -0.6605
  165SOPE   H4S18533   6.246   6.343  10.121  0.1554  0.2943 -1.7559
  165SOPE   C2518534   6.343   6.217   9.979 -0.0058 -0.2449  0.1266
  165SOPE   H5R18535   6.437   6.273   9.999  0.0608 -0.7421  1.2059
  165SOPE   H5S18536   6.376   6.110   9.981  4.1348  0.9173  5.2663
  165SOPE   C2618537   6.293   6.248   9.844  0.3440  0.2693  0.0695
  165SOPE   H6R18538   6.233   6.341   9.841 -0.6256 -0.4051 -1.9082
  165SOPE   H6S18539   6.379   6.286   9.785 -1.1750  3.0307 -0.4425
  165SOPE   C2718540   6.219   6.129   9.779 -0.4227 -0.8840 -0.5719
  165SOPE   H7R18541   6.263   6.034   9.817  0.8401 -0.0416  0.0987
  165SOPE   H7S18542   6.126   6.128   9.839  0.9509 -4.0416  1.6274
  165SOPE   C2818543   6.200   6.137   9.625  0.0123 -0.2994  0.3549
  165SOPE   H8R18544   6.135   6.052   9.595 -0.8053  0.0720  1.0507
  165SOPE   H8S18545   6.141   6.226   9.593 -1.1132 -1.0568  0.2910
  165SOPE   C2918546   6.327   6.126   9.550 -0.3277  0.0529 -0.3603
  165SOPE   H9118547   6.403   6.060   9.595  1.5377  1.6082 -1.1385
  165SOPE  C21018548   6.362   6.200   9.439  0.0980 -0.4275  0.8062
  165SOPE  H10118549   6.460   6.185   9.392 -0.0038  1.5075 -0.0756
  165SOPE  C21118550   6.272   6.301   9.378 -0.4018  0.0455  0.4717
  165SOPE  H11R18551   6.271   6.389   9.446 -1.7144  0.9785 -0.7279
  165SOPE  H11S18552   6.168   6.262   9.374 -0.2891 -0.1508 -0.6338
  165SOPE  C21218553   6.319   6.367   9.248 -0.3421  0.0219 -0.1383
  165SOPE  H12R18554   6.413   6.425   9.264  0.1611 -0.3112 -1.8861
  165SOPE  H12S18555   6.245   6.440   9.207 -0.3111  0.5656  0.7526
  165SOPE  C21318556   6.350   6.275   9.126  0.0765  0.1387  0.4803
  165SOPE  H13R18557   6.260   6.216   9.098  0.0934  0.9280 -1.3493
  165SOPE  H13S18558   6.440   6.218   9.156  0.0600  0.3500  0.9366
  165SOPE  C21418559   6.368   6.364   9.002 -0.3035 -0.1964  0.4826
  165SOPE  H14R18560   6.429   6.455   9.020  1.2592 -1.3245  0.9566
  165SOPE  H14S18561   6.267   6.402   8.974  0.7554  0.8439 -2.1637
  165SOPE  C21518562   6.424   6.296   8.874 -0.6695 -0.8282 -0.3545
  165SOPE  H15R18563   6.384   6.192   8.875 -1.1898 -0.6469 -1.4247
  165SOPE  H15S18564   6.535   6.290   8.877 -0.6370  0.1783  0.6528
  165SOPE  C21618565   6.376   6.355   8.740 -0.3498 -0.1635  0.3625
  165SOPE  H16R18566   6.420   6.457   8.731  2.6400 -1.2946  1.4210
  165SOPE  H16S18567   6.266   6.364   8.738 -0.3596 -0.1239  1.1020
  165SOPE  C21718568   6.406   6.264   8.612 -0.5007  0.1513  0.5898
  165SOPE  H17R18569   6.372   6.295   8.511  2.1838  0.2696 -0.3204
  165SOPE  H17S18570   6.351   6.168   8.620 -0.4989  0.3824  4.7505
  165SOPE  C21818571   6.555   6.241   8.597 -0.4221  0.5744  0.4109
  165SOPE  H18R18572   6.586   6.189   8.691 -1.3675 -1.0417 -0.1562
  165SOPE  H18S18573   6.615   6.333   8.586 -0.0928  0.1454 -1.4196
  165SOPE  H18T18574   6.557   6.181   8.504 -2.4206  2.6192 -0.9773
  165SOPE   C3318575   6.634   5.848  10.223 -0.0380 -0.1949 -0.0120
  165SOPE   H3X18576   6.672   5.765  10.159  0.2269 -0.6086  0.6758
  165SOPE   H3Y18577   6.684   5.853  10.322 -1.6936  0.3628  0.8140
  165SOPE   C3418578   6.645   5.973  10.136  0.1328 -0.3833 -0.4094
  165SOPE   H4X18579   6.749   6.007  10.152 -0.7969  1.5935  1.8298
  165SOPE   H4Y18580   6.571   6.055  10.153 -1.1437 -1.5420 -0.2339
  165SOPE   C3518581   6.621   5.938   9.995 -0.0549  0.1537  0.2606
  165SOPE   H5X18582   6.518   5.896   9.987  0.5845 -1.6752  1.2154
  165SOPE   H5Y18583   6.696   5.859   9.972  1.6276  1.7100  0.3650
  165SOPE   C3618584   6.656   6.051   9.897 -0.0421 -0.3172 -0.3525
  165SOPE   H6X18585   6.761   6.088   9.902 -0.0805  0.1199 -2.6029
  165SOPE   H6Y18586   6.591   6.141   9.900 -2.0080 -1.7645  2.4183
  165SOPE   C3718587   6.657   5.998   9.749  0.2583 -0.2410  0.0928
  165SOPE   H7X18588   6.573   5.928   9.729  0.9252 -0.9821 -0.1551
  165SOPE   H7Y18589   6.754   5.944   9.741  0.9443  0.7972  1.2680
  165SOPE   C3818590   6.675   6.118   9.656  0.6857  0.0683  0.0898
  165SOPE   H8X18591   6.766   6.170   9.695  0.2682  1.3075 -0.5819
  165SOPE   H8Y18592   6.593   6.191   9.664 -1.2051 -2.2224  2.5101
  165SOPE   C3918593   6.701   6.080   9.511 -0.3236 -0.0310 -0.7930
  165SOPE   H9X18594   6.605   6.043   9.467 -0.9398  0.3788  0.1940
  165SOPE   H9Y18595   6.773   5.996   9.503  0.8394  0.3188  4.4140
  165SOPE  C31018596   6.752   6.192   9.428  0.0236  0.3916 -0.5377
  165SOPE  H10X18597   6.835   6.247   9.477 -0.3187  0.6328 -0.2224
  165SOPE  H10Y18598   6.665   6.262   9.424  0.7061  1.1947 -1.5218
  165SOPE  C31118599   6.788   6.158   9.286  0.5991 -0.6707  0.5419
  165SOPE  H11X18600   6.718   6.088   9.236  0.1138  0.6066 -0.6229
  165SOPE  H11Y18601   6.892   6.120   9.279  0.4936 -0.8008 -0.4148
  165SOPE  C31218602   6.772   6.279   9.187 -0.4255  0.8602  0.2252
  165SOPE  H12X18603   6.842   6.359   9.216 -0.6143  1.1604 -0.1497
  165SOPE  H12Y18604   6.669   6.321   9.193 -0.4397  1.1666 -1.6240
  165SOPE  C31318605   6.803   6.233   9.044 -0.1970  0.0548  0.3824
  165SOPE  H13X18606   6.730   6.161   9.001 -0.3611  1.5163 -1.8949
  165SOPE  H13Y18607   6.897   6.173   9.042 -0.9814 -1.1988  0.5351
  165SOPE  C31418608   6.820   6.347   8.947 -0.3056  0.1815 -0.0386
  165SOPE  H14X18609   6.882   6.423   9.000  2.3485 -1.0186 -1.2917
  165SOPE  H14Y18610   6.719   6.387   8.928 -0.4487 -0.2515 -0.2052
  165SOPE  C31518611   6.888   6.304   8.815  0.5227  0.3841 -0.5174
  165SOPE  H15X18612   6.851   6.203   8.788  0.8802  0.6919 -2.1902
  165SOPE  H15Y18613   6.997   6.295   8.837  0.3729  0.9993  0.5259
  165SOPE  C31618614   6.876   6.400   8.696  0.7174 -0.1761  0.5460
  165SOPE  H16X18615   6.936   6.492   8.710  0.4105 -0.0264  0.8929
  165SOPE  H16Y18616   6.767   6.420   8.686  0.2345 -2.6468  0.4114
  165SOPE  C31718617   6.913   6.344   8.557  0.1506  0.1319  0.1981
  165SOPE  H17X18618   6.919   6.420   8.477  0.1622 -0.5616 -0.4654
  165SOPE  H17Y18619   6.829   6.281   8.520 -0.3064  0.5236  0.5669
  165SOPE  C31818620   7.038   6.258   8.563 -0.2590  0.0484  0.7693
  165SOPE  H18X18621   7.024   6.163   8.618 -1.8982 -1.2315 -1.7757
  165SOPE  H18Y18622   7.125   6.310   8.609  1.2067 -0.7205 -1.0956
  165SOPE  H18Z18623   7.065   6.224   8.461  2.1360  2.8439  0.3909
  166SOPE     N18624   3.471   6.663  11.070  0.2972 -0.4539  0.1048
  166SOPE   HN118625   3.474   6.751  11.015 -0.2619 -1.0082 -0.8404
  166SOPE   HN218626   3.417   6.603  11.004 -1.6010  1.3357 -0.0336
  166SOPE   HN318627   3.407   6.671  11.151  0.7556  2.5334  0.2321
  166SOPE   C1218628   3.602   6.595  11.081 -0.2965  0.2734  0.0444
  166SOPE  H12A18629   3.583   6.493  11.123 -1.2319  0.2745 -0.3625
  166SOPE  H12B18630   3.668   6.654  11.148  1.6199 -2.4559  0.6369
  166SOPE   C1118631   3.675   6.582  10.946  0.3662  0.1447  0.0642
  166SOPE  H11A18632   3.759   6.511  10.957 -0.2923 -0.4750  1.2102
  166SOPE  H11B18633   3.711   6.678  10.903 -2.5665  0.4236 -1.9568
  166SOPE     P18634   3.645   6.476  10.713  0.2324  0.0556 -0.5078
  166SOPE   O1318635   3.541   6.396  10.637 -0.3777 -0.0882 -0.5493
  166SOPE   O1418636   3.772   6.403  10.747  0.0963 -0.7381 -0.0359
  166SOPE   O1218637   3.584   6.533  10.851 -0.0291 -0.2175 -0.0405
  166SOPE   O1118638   3.676   6.605  10.631  0.8517 -0.3681 -0.1060
  166SOPE    C118639   3.589   6.721  10.629  0.0187 -0.9806 -0.2100
  166SOPE    HA18640   3.639   6.806  10.578  0.2590 -2.2630 -2.2035
  166SOPE    HB18641   3.558   6.751  10.731 -1.8579  2.0677 -1.5851
  166SOPE    C218642   3.472   6.720  10.530  0.4012  0.4777  0.2475
  166SOPE    HS18643   3.410   6.636  10.570  0.0274  0.1775 -0.9564
  166SOPE   O2118644   3.520   6.684  10.400  0.2504 -0.0498  1.1392
  166SOPE   C2118645   3.425   6.633  10.333 -0.7167  0.6084  0.4426
  166SOPE   O2218646   3.314   6.599  10.372 -0.1173 -0.2671 -0.0019
  166SOPE   C2218647   3.478   6.622  10.195  0.0940  0.4519 -0.0627
  166SOPE   H2R18648   3.586   6.597  10.190 -0.4955 -2.4425  0.8893
  166SOPE   H2S18649   3.463   6.724  10.154  0.8671  0.0036 -1.4821
  166SOPE    C318650   3.395   6.851  10.553  0.0672  0.5143  0.4697
  166SOPE    HX18651   3.449   6.934  10.502 -0.9196  0.7634 -0.1833
  166SOPE    HY18652   3.390   6.877  10.661 -0.0394 -1.0671  0.8537
  166SOPE   O3118653   3.260   6.841  10.485  0.0519 -0.1280 -0.3191
  166SOPE   C3118654   3.172   6.798  10.572  0.4205 -0.0785  0.2555
  166SOPE   O3218655   3.187   6.760  10.688  0.4350  1.1390  0.6590
  166SOPE   C3218656   3.034   6.799  10.510 -0.1528  0.0897  0.2969
  166SOPE   H2X18657   2.961   6.769  10.588 -0.5090 -2.0662 -0.8071
  166SOPE   H2Y18658   3.037   6.717  10.434 -0.8528  0.0642  0.2944
  166SOPE   C2318659   3.412   6.507  10.116 -0.0899 -0.2183 -0.6146
  166SOPE   H3R18660   3.301   6.508  10.126 -0.1152 -0.2544 -0.8752
  166SOPE   H3S18661   3.453   6.417  10.166 -1.1225  0.7468  2.0739
  166SOPE   C2418662   3.446   6.495   9.968  1.1526 -0.8422  0.0023
  166SOPE   H4R18663   3.557   6.492   9.962  1.2794 -0.7490  1.9940
  166SOPE   H4S18664   3.414   6.401   9.918 -1.4557  0.4010 -0.7495
  166SOPE   C2518665   3.377   6.610   9.885  0.4531  1.0079 -0.4493
  166SOPE   H5R18666   3.268   6.618   9.909  0.1898  1.0849 -1.6308
  166SOPE   H5S18667   3.435   6.702   9.905 -0.1283  1.5789 -1.3522
  166SOPE   C2618668   3.377   6.588   9.737 -0.2113 -0.4854  1.2916
  166SOPE   H6R18669   3.375   6.480   9.712 -2.9978 -0.2706  0.3184
  166SOPE   H6S18670   3.286   6.625   9.685 -0.7391 -2.7783  0.5200
  166SOPE   C2718671   3.498   6.635   9.658 -0.0864 -0.4960  0.4407
  166SOPE   H7R18672   3.528   6.737   9.690  1.6813 -1.6676  2.6798
  166SOPE   H7S18673   3.582   6.571   9.693 -1.3186 -1.8690  0.9139
  166SOPE   C2818674   3.485   6.618   9.505  0.2600 -0.0186  0.4144
  166SOPE   H8R18675   3.588   6.631   9.467 -0.3362  2.7932 -0.3743
  166SOPE   H8S18676   3.450   6.515   9.483 -1.5485  1.0609 -2.0028
  166SOPE   C2918677   3.390   6.709   9.434 -0.7248 -0.2255 -0.6841
  166SOPE   H9118678   3.335   6.782   9.495 -0.5815 -0.4138 -0.3329
  166SOPE  C21018679   3.387   6.726   9.301  0.3478 -0.0334  0.4508
  166SOPE  H10118680   3.328   6.806   9.253  0.1448  0.5968  1.7278
  166SOPE  C21118681   3.473   6.660   9.190  0.2296  0.0259 -0.2816
  166SOPE  H11R18682   3.546   6.590   9.237 -0.8276  0.2910  1.8092
  166SOPE  H11S18683   3.528   6.730   9.124 -0.6015 -1.9414 -3.1562
  166SOPE  C21218684   3.385   6.583   9.093 -0.3410  0.9284 -0.1630
  166SOPE  H12R18685   3.308   6.647   9.046  0.0821  1.6077  0.0666
  166SOPE  H12S18686   3.329   6.509   9.154  0.9799  0.2408  0.2423
  166SOPE  C21318687   3.470   6.518   8.980 -0.0156  0.2556 -0.7568
  166SOPE  H13R18688   3.505   6.419   9.017  2.2686  0.7756 -1.4079
  166SOPE  H13S18689   3.553   6.591   8.964 -0.6281  1.4595  1.3502
  166SOPE  C21418690   3.396   6.498   8.851  0.4469  0.3633  0.7410
  166SOPE  H14R18691   3.464   6.468   8.768  0.5728 -1.5190  1.5076
  166SOPE  H14S18692   3.351   6.593   8.814  0.9102  0.7728  1.2218
  166SOPE  C21518693   3.284   6.390   8.861 -0.7912  0.5145  0.0752
  166SOPE  H15R18694   3.224   6.407   8.953 -2.0414 -0.4173 -0.5589
  166SOPE  H15S18695   3.335   6.292   8.875 -0.3054  0.7722  0.1482
  166SOPE  C21618696   3.189   6.386   8.740 -0.0757 -0.2012  0.9514
  166SOPE  H16R18697   3.256   6.368   8.653  1.1036  1.9707  1.3799
  166SOPE  H16S18698   3.142   6.485   8.725  0.5038  0.1427  1.3921
  166SOPE  C21718699   3.092   6.271   8.744 -0.0968  0.3026  0.1360
  166SOPE  H17R18700   2.993   6.322   8.755  0.5440  1.3894  0.9936
  166SOPE  H17S18701   3.121   6.208   8.831  0.0771 -0.7155 -0.6516
  166SOPE  C21818702   3.087   6.178   8.622 -0.2735  0.0854  0.0730
  166SOPE  H18R18703   3.063   6.238   8.531  2.2190  1.7151  0.4309
  166SOPE  H18S18704   3.016   6.096   8.644  0.7423 -0.5641  0.9414
  166SOPE  H18T18705   3.184   6.126   8.606  0.6482  1.1877  1.9585
  166SOPE   C3318706   2.985   6.928  10.453  0.3029 -0.3342 -0.1869
  166SOPE   H3X18707   3.015   7.010  10.522  1.5162 -2.1151  1.4404
  166SOPE   H3Y18708   2.875   6.919  10.466  0.2659  2.2930  1.8077
  166SOPE   C3418709   3.023   6.933  10.312  0.4121  0.0970  0.2119
  166SOPE   H4X18710   3.127   6.898  10.297  0.0745  0.6094 -3.7665
  166SOPE   H4Y18711   3.042   7.036  10.275  0.5902  0.7377  2.0175
  166SOPE   C3518712   2.926   6.867  10.205 -0.2940 -0.0732  0.3441
  166SOPE   H5X18713   2.862   6.952  10.171 -0.1683 -0.7293 -1.6294
  166SOPE   H5Y18714   2.857   6.796  10.254 -0.4257  0.8650  1.5546
  166SOPE   C3618715   3.011   6.803  10.095  0.4052 -0.0961  0.4480
  166SOPE   H6X18716   3.042   6.704  10.135  2.4592 -0.0350 -0.8972
  166SOPE   H6Y18717   3.104   6.863  10.078 -0.3823  0.3622 -2.5544
  166SOPE   C3718718   2.942   6.771   9.957 -0.1427 -0.0024 -0.1389
  166SOPE   H7X18719   2.855   6.840   9.950  0.1851  0.6010  1.5046
  166SOPE   H7Y18720   2.897   6.670   9.959  1.2482 -0.6593 -1.3883
  166SOPE   C3818721   3.026   6.774   9.831 -0.4678 -0.2319  0.2376
  166SOPE   H8X18722   3.097   6.689   9.830 -0.5628 -0.3059 -0.8498
  166SOPE   H8Y18723   3.075   6.874   9.821  0.9284 -0.9837 -0.6407
  166SOPE   C3918724   2.946   6.759   9.703  0.1170  0.6740 -0.0132
  166SOPE   H9X18725   2.906   6.860   9.678 -0.3765  0.4290 -0.2317
  166SOPE   H9Y18726   2.855   6.695   9.713  1.4004 -1.1617  0.1509
  166SOPE  C31018727   3.025   6.706   9.581 -0.7784  0.4698 -0.2084
  166SOPE  H10X18728   3.061   6.603   9.604  0.6097  1.0542  0.3219
  166SOPE  H10Y18729   3.117   6.767   9.566  0.8053 -1.7475  0.2863
  166SOPE  C31118730   2.953   6.716   9.448 -0.0280  0.4798  0.0595
  166SOPE  H11X18731   2.963   6.822   9.420  1.8623  0.6373  1.2199
  166SOPE  H11Y18732   2.847   6.687   9.464 -0.0427  1.5343  2.0359
  166SOPE  C31218733   2.999   6.622   9.334  0.0053 -0.2934 -0.0589
  166SOPE  H12X18734   2.972   6.516   9.350 -0.0784 -0.1828  0.5570
  166SOPE  H12Y18735   3.110   6.622   9.331 -0.0039  0.0658 -0.5020
  166SOPE  C31318736   2.939   6.661   9.195 -0.3658  0.0948  0.5925
  166SOPE  H13X18737   2.925   6.771   9.188  1.2059  0.0745 -4.8427
  166SOPE  H13Y18738   2.836   6.619   9.195 -0.8398  1.2212 -0.8083
  166SOPE  C31418739   3.016   6.608   9.070 -0.2548 -0.2322 -0.3072
  166SOPE  H14X18740   3.055   6.508   9.098 -0.2836 -0.4056 -0.8710
  166SOPE  H14Y18741   3.101   6.677   9.051 -0.4385  0.3723  1.0232
  166SOPE  C31518742   2.920   6.596   8.949 -0.9404 -0.0617  0.3351
  166SOPE  H15X18743   2.971   6.598   8.850 -2.1712 -0.8814 -0.3474
  166SOPE  H15Y18744   2.862   6.690   8.945  0.9101  1.0269 -1.6452
  166SOPE  C31618745   2.846   6.466   8.953 -0.2829 -0.1748 -0.3035
  166SOPE  H16X18746   2.788   6.466   9.047  0.7798 -1.8018  0.3739
  166SOPE  H16Y18747   2.921   6.384   8.942 -1.6739 -1.6571  1.0583
  166SOPE  C31718748   2.731   6.458   8.848  0.0294 -0.4481  0.0815
  166SOPE  H17X18749   2.690   6.356   8.833 -0.5408 -0.2086 -0.0153
  166SOPE  H17Y18750   2.778   6.488   8.751  0.0552 -0.2558  0.1525
  166SOPE  C31818751   2.615   6.560   8.879 -0.1684  0.4027 -0.7755
  166SOPE  H18X18752   2.547   6.568   8.792 -0.3051  2.2309 -0.5357
  166SOPE  H18Y18753   2.655   6.657   8.918  1.1267 -0.6671  0.5907
  166SOPE  H18Z18754   2.553   6.515   8.959 -0.7728 -1.7622 -2.4310
  167SOPE     N18755   4.308   5.189   6.294 -0.4661  0.7087 -0.1772
  167SOPE   HN118756   4.290   5.289   6.316 -1.0730  0.5584  0.0196
  167SOPE   HN218757   4.341   5.184   6.196 -1.3297  2.8620 -0.5991
  167SOPE   HN318758   4.219   5.139   6.315 -0.0428  0.8139  2.0245
  167SOPE   C1218759   4.415   5.143   6.390 -0.1609 -0.2156 -0.0698
  167SOPE  H12A18760   4.389   5.180   6.492 -2.6374 -1.2066 -0.3079
  167SOPE  H12B18761   4.514   5.181   6.358 -1.1451  2.5019 -0.0497
  167SOPE   C1118762   4.404   4.990   6.385  0.1610  0.0753  0.4377
  167SOPE  H11A18763   4.301   4.946   6.385 -0.6030  1.8356  0.1070
  167SOPE  H11B18764   4.440   4.959   6.485  1.1289 -2.3074 -0.6088
  167SOPE     P18765   4.475   4.782   6.220 -0.1744 -0.0855  0.1592
  167SOPE   O1318766   4.544   4.779   6.085  0.5784  0.2206  0.5438
  167SOPE   O1418767   4.338   4.726   6.234 -0.1156 -0.4314  0.0389
  167SOPE   O1218768   4.472   4.932   6.275  0.4951  0.0184 -0.4016
  167SOPE   O1118769   4.573   4.695   6.312  0.7242 -0.0181 -0.1599
  167SOPE    C118770   4.697   4.759   6.349 -0.5311  0.3838  0.4307
  167SOPE    HA18771   4.681   4.869   6.354  0.9960  0.5458  2.2088
  167SOPE    HB18772   4.776   4.740   6.273 -2.3542  3.0660 -2.2561
  167SOPE    C218773   4.754   4.709   6.478  0.0606 -0.0480 -0.1668
  167SOPE    HS18774   4.842   4.769   6.508 -1.1318  1.7732 -0.2864
  167SOPE   O2118775   4.788   4.566   6.464 -0.1703  0.9197  0.4600
  167SOPE   C2118776   4.891   4.538   6.534 -0.1383  0.3141  0.0308
  167SOPE   O2218777   4.956   4.613   6.604 -0.3541  0.2681 -0.8416
  167SOPE   C2218778   4.922   4.386   6.506  0.5170  0.3922  0.7193
  167SOPE   H2R18779   4.964   4.381   6.403 -0.3420  3.1074  0.2165
  167SOPE   H2S18780   4.826   4.330   6.501  0.9331 -0.2950  0.3168
  167SOPE    C318781   4.652   4.729   6.598  0.1316 -0.4465  0.1451
  167SOPE    HX18782   4.562   4.665   6.591 -0.2476  0.2960 -2.0541
  167SOPE    HY18783   4.606   4.827   6.575 -0.7389 -0.6178  1.1236
  167SOPE   O3118784   4.710   4.709   6.724  0.3129 -0.2235 -0.4040
  167SOPE   C3118785   4.754   4.823   6.784 -0.4477  0.1778 -0.3204
  167SOPE   O3218786   4.762   4.933   6.734 -1.1052  0.4318  0.0169
  167SOPE   C3218787   4.803   4.790   6.924  1.1279  0.7983  0.1106
  167SOPE   H2X18788   4.856   4.877   6.969  0.6591  1.4533 -0.5898
  167SOPE   H2Y18789   4.879   4.710   6.917  0.6819  0.1631  2.2443
  167SOPE   C2318790   5.024   4.322   6.604  0.0417  0.8790  0.7616
  167SOPE   H3R18791   4.971   4.310   6.701  0.7979  0.1647  1.0932
  167SOPE   H3S18792   5.115   4.386   6.607  0.7893 -0.2135  2.6112
  167SOPE   C2418793   5.073   4.176   6.564 -0.4102 -0.0544 -0.1838
  167SOPE   H4R18794   5.102   4.172   6.457 -2.4724  0.1042 -0.7728
  167SOPE   H4S18795   5.167   4.152   6.618  0.0580 -1.6244 -1.6755
  167SOPE   C2518796   4.967   4.074   6.579  0.5309 -0.4573 -0.3026
  167SOPE   H5R18797   4.941   4.075   6.687  0.9849 -2.7722 -0.1447
  167SOPE   H5S18798   4.885   4.113   6.514 -0.1307  0.0935  0.8449
  167SOPE   C2618799   4.993   3.942   6.512 -0.2031  0.8675  0.0632
  167SOPE   H6R18800   5.028   3.960   6.408 -0.7412  3.0394  0.2312
  167SOPE   H6S18801   5.068   3.887   6.572 -0.2137 -0.5579 -1.2112
  167SOPE   C2718802   4.878   3.841   6.509  0.6718 -1.0531 -0.5679
  167SOPE   H7R18803   4.791   3.895   6.466  0.3746 -1.1907 -0.1358
  167SOPE   H7S18804   4.912   3.761   6.440  2.5663 -1.2291  0.5266
  167SOPE   C2818805   4.824   3.792   6.646 -0.9517 -0.3952 -0.4533
  167SOPE   H8R18806   4.893   3.730   6.707  0.0892 -0.4195 -1.6181
  167SOPE   H8S18807   4.791   3.879   6.708  0.2154 -0.8926  0.8931
  167SOPE   C2918808   4.702   3.706   6.610 -0.2374  0.8368  0.2192
  167SOPE   H9118809   4.710   3.647   6.518 -0.3809 -0.6878  1.1684
  167SOPE  C21018810   4.582   3.716   6.672 -0.2846 -0.3190  1.3197
  167SOPE  H10118811   4.491   3.664   6.638  0.2050 -0.5567  0.3706
  167SOPE  C21118812   4.548   3.798   6.794 -0.3381  0.1391  0.1108
  167SOPE  H11R18813   4.641   3.831   6.845  0.0217 -1.2581  0.3736
  167SOPE  H11S18814   4.501   3.743   6.879 -0.1949  1.1465  0.8459
  167SOPE  C21218815   4.464   3.923   6.763 -0.0251  0.7083 -0.4471
  167SOPE  H12R18816   4.525   3.992   6.701  0.0830 -0.8238 -2.0792
  167SOPE  H12S18817   4.450   3.978   6.858  1.3759 -1.6235  1.1375
  167SOPE  C21318818   4.322   3.890   6.707  0.1663 -0.0083 -0.3137
  167SOPE  H13R18819   4.278   3.808   6.768  0.8609 -0.8197 -0.9004
  167SOPE  H13S18820   4.349   3.859   6.603  1.0210  1.0790 -0.4200
  167SOPE  C21418821   4.226   4.007   6.708 -0.4279  0.4755  0.2574
  167SOPE  H14R18822   4.128   3.980   6.665 -0.7485  1.6256  0.2463
  167SOPE  H14S18823   4.276   4.088   6.651  1.3266 -0.2038  0.7930
  167SOPE  C21518824   4.193   4.058   6.849  0.4781  0.4330 -0.1369
  167SOPE  H15R18825   4.277   4.112   6.899 -0.1324 -0.7174  2.2146
  167SOPE  H15S18826   4.157   3.966   6.901  1.0173 -1.3464 -2.7960
  167SOPE  C21618827   4.080   4.166   6.859 -0.4981  0.5359  0.1026
  167SOPE  H16R18828   3.982   4.118   6.835 -0.2328 -1.5326  2.9872
  167SOPE  H16S18829   4.115   4.245   6.788  0.2596  0.5789  0.5254
  167SOPE  C21718830   4.066   4.239   6.994 -0.8027 -0.3958  0.3907
  167SOPE  H17R18831   3.972   4.297   6.985 -0.8775 -0.5796 -0.0365
  167SOPE  H17S18832   4.162   4.290   7.015  0.1761 -1.3211 -1.7485
  167SOPE  C21818833   4.052   4.142   7.108  0.4132  0.0029  0.0454
  167SOPE  H18R18834   4.014   4.196   7.198 -0.3274  3.0165 -2.0027
  167SOPE  H18S18835   4.138   4.080   7.141 -0.2087 -2.0824 -2.0873
  167SOPE  H18T18836   3.965   4.079   7.079  1.2208 -1.0368 -0.1608
  167SOPE   C3318837   4.692   4.734   7.016 -0.1825  1.1808 -0.4536
  167SOPE   H3X18838   4.738   4.688   7.106  1.1278  1.0736 -1.1790
  167SOPE   H3Y18839   4.640   4.649   6.968 -0.8514  1.5370 -0.3813
  167SOPE   C3418840   4.575   4.840   7.050 -0.0001 -0.1687 -0.2838
  167SOPE   H4X18841   4.520   4.863   6.956 -1.6704  2.0793  1.1866
  167SOPE   H4Y18842   4.614   4.939   7.081 -0.9135  0.6539 -1.7516
  167SOPE   C3518843   4.470   4.780   7.148  0.3278  0.4259  0.3887
  167SOPE   H5X18844   4.533   4.749   7.234  2.2536 -0.5156 -1.3168
  167SOPE   H5Y18845   4.438   4.683   7.105  1.7105 -1.7960  4.1252
  167SOPE   C3618846   4.344   4.872   7.172  0.5813 -0.4521 -0.1855
  167SOPE   H6X18847   4.281   4.872   7.081 -2.2811 -0.5011  1.7506
  167SOPE   H6Y18848   4.392   4.967   7.204 -1.5437  0.1301  1.3386
  167SOPE   C3718849   4.270   4.835   7.297  0.2275  1.2692 -0.1384
  167SOPE   H7X18850   4.332   4.837   7.389  0.0675 -1.9941  0.0717
  167SOPE   H7Y18851   4.225   4.734   7.287 -0.6848  1.8061 -1.6541
  167SOPE   C3818852   4.154   4.928   7.326  0.2969  0.3835  0.2446
  167SOPE   H8X18853   4.097   4.944   7.232 -2.3390 -1.1426  1.5145
  167SOPE   H8Y18854   4.188   5.021   7.377  0.4122 -0.3209  1.4820
  167SOPE   C3918855   4.062   4.858   7.430 -0.6725 -0.4649 -0.4524
  167SOPE   H9X18856   4.040   4.750   7.418 -1.3484 -0.2043 -1.5632
  167SOPE   H9Y18857   3.970   4.920   7.433 -0.8199 -0.7555  1.9651
  167SOPE  C31018858   4.119   4.873   7.576 -0.0320  0.0792 -0.8953
  167SOPE  H10X18859   4.134   4.980   7.599 -0.5057  0.2215 -1.2379
  167SOPE  H10Y18860   4.220   4.828   7.585 -0.5740 -0.6553  1.8876
  167SOPE  C31118861   4.008   4.818   7.677 -1.4704 -0.3142 -0.1319
  167SOPE  H11X18862   3.913   4.845   7.626 -1.2068  0.3551 -0.2674
  167SOPE  H11Y18863   4.017   4.869   7.775 -0.7893  0.9751 -0.8602
  167SOPE  C31218864   4.024   4.660   7.696 -0.1222 -0.0815  0.1920
  167SOPE  H12X18865   4.132   4.632   7.702 -0.0707  0.4064  1.7313
  167SOPE  H12Y18866   3.991   4.625   7.595 -0.0556 -1.4969  0.6506
  167SOPE  C31318867   3.941   4.599   7.809  0.9456  0.1072 -0.9627
  167SOPE  H13X18868   3.916   4.494   7.782  0.8386  0.0229 -0.5353
  167SOPE  H13Y18869   3.841   4.644   7.820  0.3840 -1.3541  0.0291
  167SOPE  C31418870   4.010   4.617   7.953 -0.5988  0.2139 -0.5213
  167SOPE  H14X18871   4.009   4.727   7.962 -0.1932  0.1453  0.3820
  167SOPE  H14Y18872   4.114   4.580   7.946 -0.3001  0.8955  0.3121
  167SOPE  C31518873   3.934   4.553   8.072  0.3978 -0.1072  0.9422
  167SOPE  H15X18874   3.937   4.443   8.057  2.3759  0.2488 -1.5879
  167SOPE  H15Y18875   3.827   4.578   8.057  0.8227  0.8868 -0.5965
  167SOPE  C31618876   3.982   4.580   8.216  0.0935 -0.1215  0.3374
  167SOPE  H16X18877   3.950   4.497   8.283  4.0195 -2.1417 -0.1611
  167SOPE  H16Y18878   3.934   4.673   8.253 -0.5397 -0.2236 -0.2267
  167SOPE  C31718879   4.145   4.579   8.225  1.0164  0.3787  0.1530
  167SOPE  H17X18880   4.181   4.659   8.157 -0.8735 -0.0601 -1.4026
  167SOPE  H17Y18881   4.180   4.481   8.186  1.4495  0.9565 -0.9223
  167SOPE  C31818882   4.193   4.609   8.366 -0.5729  0.2632  0.4193
  167SOPE  H18X18883   4.289   4.665   8.369 -0.8311  0.7842 -0.5869
  167SOPE  H18Y18884   4.191   4.519   8.431 -1.5655  0.4223  0.6226
  167SOPE  H18Z18885   4.132   4.685   8.419  0.6932  0.4574  1.6065
  168SOPE     N18886   3.892   1.711   6.507  0.0737 -1.5207  0.1910
  168SOPE   HN118887   3.837   1.788   6.550  1.6507 -0.2562 -0.0074
  168SOPE   HN218888   3.969   1.753   6.451 -0.1916  1.8043  2.1948
  168SOPE   HN318889   3.833   1.644   6.453 -3.1274 -0.0230  1.7192
  168SOPE   C1218890   3.947   1.653   6.636  0.1994 -0.1045 -0.0176
  168SOPE  H12A18891   3.857   1.612   6.685  0.3341  2.6679  2.6671
  168SOPE  H12B18892   3.984   1.738   6.697  1.6955 -1.2701  0.7168
  168SOPE   C1118893   4.056   1.544   6.615 -0.2853  0.1889  0.3450
  168SOPE  H11A18894   4.008   1.448   6.590  1.7694 -0.8337  0.1704
  168SOPE  H11B18895   4.112   1.506   6.704 -1.2220 -1.0559  0.4155
  168SOPE     P18896   4.305   1.542   6.519  0.3107  0.2447 -0.6022
  168SOPE   O1318897   4.347   1.519   6.380  0.3644  0.1888  0.3069
  168SOPE   O1418898   4.313   1.423   6.611 -0.1317 -0.4932 -0.8751
  168SOPE   O1218899   4.147   1.572   6.506  0.6251 -0.1429  0.1780
  168SOPE   O1118900   4.373   1.672   6.595  0.1917  0.4965  0.0716
  168SOPE    C118901   4.294   1.792   6.624  0.1125 -0.0323  0.2932
  168SOPE    HA18902   4.240   1.777   6.720  2.0569  0.8750  1.5674
  168SOPE    HB18903   4.229   1.810   6.536 -0.4994 -0.4442  0.6641
  168SOPE    C218904   4.379   1.917   6.645  0.0184  0.0412  0.2000
  168SOPE    HS18905   4.460   1.908   6.569  0.1562  1.4724  0.1711
  168SOPE   O2118906   4.433   1.919   6.774  0.5045 -0.3939  0.3368
  168SOPE   C2118907   4.557   1.952   6.792 -0.1019  0.0894  0.0108
  168SOPE   O2218908   4.633   2.000   6.707  0.3046 -0.3883 -0.4276
  168SOPE   C2218909   4.596   1.920   6.931 -0.1485 -0.2192 -0.1714
  168SOPE   H2R18910   4.652   2.008   6.968 -1.2710 -0.3599  1.9441
  168SOPE   H2S18911   4.653   1.825   6.930 -0.2560 -0.2843 -1.2227
  168SOPE    C318912   4.306   2.052   6.626  0.0465 -0.4022  0.0356
  168SOPE    HX18913   4.259   2.050   6.526  0.9834  0.4855 -0.4250
  168SOPE    HY18914   4.378   2.136   6.629  0.1712 -0.5445  1.6584
  168SOPE   O3118915   4.202   2.073   6.724  0.8555  0.1888 -0.2066
  168SOPE   C3118916   4.084   2.013   6.709 -0.1869  0.3481  0.0030
  168SOPE   O3218917   4.055   1.953   6.610  0.4058  0.0267  0.3206
  168SOPE   C3218918   3.988   2.048   6.820 -0.8383  0.1802  0.2022
  168SOPE   H2X18919   3.894   1.990   6.807 -1.1898  0.7094  0.3620
  168SOPE   H2Y18920   3.950   2.151   6.802 -1.6567  0.0820  1.2991
  168SOPE   C2318921   4.481   1.881   7.022  0.1995  0.1832 -0.5231
  168SOPE   H3R18922   4.417   1.800   6.981  1.2564 -1.3008  0.6781
  168SOPE   H3S18923   4.410   1.966   7.023  0.2200  0.1948  1.2480
  168SOPE   C2418924   4.528   1.852   7.171  0.2557  0.0310 -0.4284
  168SOPE   H4R18925   4.593   1.763   7.160  1.2518  0.8097 -0.9520
  168SOPE   H4S18926   4.589   1.938   7.206  0.5167 -0.4661  0.3750
  168SOPE   C2518927   4.410   1.850   7.267  0.3881  0.2216 -0.7165
  168SOPE   H5R18928   4.363   1.951   7.262 -1.5032 -0.6235 -0.5963
  168SOPE   H5S18929   4.328   1.778   7.247 -1.6205  2.8823 -2.4588
  168SOPE   C2618930   4.454   1.847   7.412 -0.0699  0.4525  1.0626
  168SOPE   H6R18931   4.480   1.742   7.436 -1.4049  0.4820  2.7528
  168SOPE   H6S18932   4.531   1.925   7.426 -2.0988  2.6959  0.1538
  168SOPE   C2718933   4.349   1.862   7.522 -0.1126  0.0482 -0.1738
  168SOPE   H7R18934   4.284   1.947   7.493  2.4734  1.4740 -1.8999
  168SOPE   H7S18935   4.286   1.770   7.515 -0.3567  0.2303 -0.3810
  168SOPE   C2818936   4.398   1.891   7.666 -0.1223  0.8087  0.0507
  168SOPE   H8R18937   4.457   1.804   7.701  0.8906  0.5701 -2.2269
  168SOPE   H8S18938   4.455   1.986   7.658  0.1186  0.6952  0.4264
  168SOPE   C2918939   4.264   1.916   7.742  0.6376  0.5453 -0.1064
  168SOPE   H9118940   4.183   1.971   7.691  1.3663  2.0209  0.2926
  168SOPE  C21018941   4.240   1.886   7.870  0.1283  0.6959  1.2146
  168SOPE  H10118942   4.138   1.896   7.909 -0.0092  0.0390  1.0290
  168SOPE  C21118943   4.337   1.819   7.969  0.9670 -1.0567  0.8479
  168SOPE  H11R18944   4.424   1.776   7.914  0.4554  0.0093 -0.8039
  168SOPE  H11S18945   4.288   1.736   8.024  0.6552  1.7483  4.9955
  168SOPE  C21218946   4.376   1.917   8.081  0.3394 -0.6513 -0.1553
  168SOPE  H12R18947   4.282   1.956   8.127  0.0065 -1.4538 -0.1509
  168SOPE  H12S18948   4.422   2.000   8.023 -1.9893  0.3921 -0.5958
  168SOPE  C21318949   4.475   1.855   8.181  0.0357 -0.3569  0.0904
  168SOPE  H13R18950   4.555   1.808   8.121  1.5881 -0.2277  1.9908
  168SOPE  H13S18951   4.429   1.780   8.249 -1.9866 -0.2411 -1.0905
  168SOPE  C21418952   4.527   1.968   8.270 -1.1169 -0.6328 -0.4108
  168SOPE  H14R18953   4.437   2.026   8.298 -1.7595 -0.2820 -3.1137
  168SOPE  H14S18954   4.600   2.025   8.208  0.7903 -0.3585  2.0168
  168SOPE  C21518955   4.619   1.925   8.384 -0.4147 -0.1818 -0.7443
  168SOPE  H15R18956   4.697   1.856   8.345  0.3982  1.0917 -1.3746
  168SOPE  H15S18957   4.554   1.858   8.445 -1.1822  1.7431  0.5906
  168SOPE  C21618958   4.672   2.036   8.475  0.0814  0.6440 -0.6490
  168SOPE  H16R18959   4.583   2.097   8.505  1.0178  0.1721  3.4675
  168SOPE  H16S18960   4.742   2.095   8.412  0.1449  0.3588 -0.8429
  168SOPE  C21718961   4.724   1.987   8.613 -0.3624 -0.4576  0.0316
  168SOPE  H17R18962   4.802   1.909   8.600  0.2900 -0.3432  2.8223
  168SOPE  H17S18963   4.640   1.947   8.673 -1.3944  1.4104 -0.1323
  168SOPE  C21818964   4.790   2.104   8.700 -0.5454 -0.0670  0.3015
  168SOPE  H18R18965   4.896   2.124   8.674  0.0352 -1.5794  1.4070
  168SOPE  H18S18966   4.800   2.072   8.806  0.4225 -0.7261  0.0069
  168SOPE  H18T18967   4.727   2.195   8.685  1.1497  0.8986 -1.1507
  168SOPE   C3318968   4.051   2.034   6.957  0.2178  0.2712 -0.0215
  168SOPE   H3X18969   4.143   2.096   6.964 -0.5684  1.3708  0.8155
  168SOPE   H3Y18970   4.091   1.932   6.977  0.3703  0.3042 -0.1595
  168SOPE   C3418971   3.966   2.079   7.065  0.6640  0.1953  0.0869
  168SOPE   H4X18972   3.877   2.013   7.078  1.3061 -0.2485  2.4789
  168SOPE   H4Y18973   3.928   2.181   7.041 -0.5579  0.0022  1.1367
  168SOPE   C3518974   4.029   2.076   7.201 -0.4386 -0.0643  0.3255
  168SOPE   H5X18975   4.129   2.125   7.193 -0.2287 -0.4185  0.6840
  168SOPE   H5Y18976   4.039   1.971   7.238  1.6449  0.8073  2.3963
  168SOPE   C3618977   3.942   2.157   7.301 -0.0932 -0.3841  0.3493
  168SOPE   H6X18978   3.850   2.098   7.324  0.5172 -0.9386  1.4155
  168SOPE   H6Y18979   3.909   2.250   7.252  0.0994  0.3553  1.5872
  168SOPE   C3718980   4.018   2.169   7.433  0.4569 -0.4346 -0.1940
  168SOPE   H7X18981   4.093   2.248   7.411 -0.4991  0.9853  1.4667
  168SOPE   H7Y18982   4.079   2.079   7.454  2.4973  0.9262 -0.2104
  168SOPE   C3818983   3.937   2.208   7.556  0.4899 -0.1400  0.2663
  168SOPE   H8X18984   3.870   2.124   7.584 -0.5005  0.9693  1.2721
  168SOPE   H8Y18985   3.875   2.292   7.518  1.6566  1.1162  1.0891
  168SOPE   C3918986   4.032   2.243   7.675  0.6053  0.5056  0.5037
  168SOPE   H9X18987   4.112   2.314   7.646  0.9790  0.0110  0.3215
  168SOPE   H9Y18988   4.054   2.147   7.728  1.0645  0.1537 -0.3237
  168SOPE  C31018989   3.954   2.337   7.773 -0.5100 -0.5109  0.0964
  168SOPE  H10X18990   3.859   2.299   7.818  0.2678 -1.5543  0.8971
  168SOPE  H10Y18991   3.929   2.436   7.729  3.0096  0.3616 -0.0538
  168SOPE  C31118992   4.039   2.362   7.894  0.0384 -0.2389 -0.3986
  168SOPE  H11X18993   4.140   2.401   7.871 -1.4374  2.8849 -2.0604
  168SOPE  H11Y18994   4.047   2.261   7.939 -2.1737 -0.3410 -0.1513
  168SOPE  C31218995   3.970   2.460   7.997 -1.5812 -0.0236 -0.6759
  168SOPE  H12X18996   3.871   2.427   8.035 -0.7362 -1.2812  0.4564
  168SOPE  H12Y18997   3.953   2.558   7.946  1.3374  0.8498 -0.0699
  168SOPE  C31318998   4.046   2.477   8.129  0.2128  0.1461 -1.3087
  168SOPE  H13X18999   4.153   2.478   8.101  0.3065  0.0592 -0.9478
  168SOPE  H13Y19000   4.029   2.381   8.181  0.7958  0.1762 -1.0660
  168SOPE  C31419001   3.994   2.598   8.219  0.0503 -0.6624  0.0688
  168SOPE  H14X19002   3.884   2.594   8.234 -0.1146 -0.5326 -1.0763
  168SOPE  H14Y19003   4.008   2.695   8.168  0.0910  0.1264  1.5499
  168SOPE  C31519004   4.047   2.613   8.366  0.5245  0.1008 -0.6675
  168SOPE  H15X19005   4.015   2.522   8.422  1.3678 -0.2167 -0.6994
  168SOPE  H15Y19006   3.989   2.694   8.414 -1.3718 -0.5136 -1.8853
  168SOPE  C31619007   4.199   2.618   8.373 -0.2680 -0.5262  0.6424
  168SOPE  H16X19008   4.232   2.710   8.320  1.6970 -0.4137  2.0203
  168SOPE  H16Y19009   4.241   2.525   8.329 -0.3368 -0.6125  0.7605
  168SOPE  C31719010   4.251   2.651   8.512 -0.0013 -0.1070  0.0792
  168SOPE  H17X19011   4.360   2.665   8.502 -0.3799  1.5692 -2.2405
  168SOPE  H17Y19012   4.240   2.570   8.587 -0.3642  0.0463  0.1934
  168SOPE  C31819013   4.200   2.785   8.565  0.2816 -0.5681  0.5235
  168SOPE  H18X19014   4.240   2.808   8.666  0.2668 -1.2178  0.6823
  168SOPE  H18Y19015   4.090   2.784   8.574  0.1350  0.5970 -0.8371
  168SOPE  H18Z19016   4.221   2.872   8.499  1.0611 -1.7949 -0.8796
  169SOPE     N19017   6.746   3.567   6.008  0.1550 -0.9712 -0.2116
  169SOPE   HN119018   6.661   3.571   6.067  0.5382  2.9069  0.2298
  169SOPE   HN219019   6.781   3.663   5.988  0.6948 -1.1022  0.0739
  169SOPE   HN319020   6.718   3.515   5.923  0.5613 -0.6608 -0.5390
  169SOPE   C1219021   6.856   3.485   6.062 -0.0372 -0.1067 -0.6849
  169SOPE  H12A19022   6.946   3.481   5.997  0.3052 -0.3509 -0.2060
  169SOPE  H12B19023   6.822   3.381   6.084 -2.2505  1.1379  1.9766
  169SOPE   C1119024   6.909   3.521   6.199 -0.2576  0.0902  0.6490
  169SOPE  H11A19025   6.821   3.540   6.265  0.6235  2.7169  1.1057
  169SOPE  H11B19026   6.960   3.619   6.189 -2.8278  1.5788  1.6830
  169SOPE     P19027   6.952   3.333   6.363 -0.4909  0.5360 -0.0064
  169SOPE   O1319028   7.068   3.248   6.399  0.8673  0.1719  0.6618
  169SOPE   O1419029   6.841   3.255   6.302 -0.3067  0.2053 -0.3527
  169SOPE   O1219030   7.000   3.430   6.253  0.2710 -0.1289 -0.1912
  169SOPE   O1119031   6.897   3.425   6.478  0.8276  0.2870 -0.0345
  169SOPE    C119032   6.982   3.521   6.547 -0.3662  0.1399  0.2447
  169SOPE    HA19033   6.934   3.620   6.532  0.9113  0.7228 -0.0777
  169SOPE    HB19034   7.081   3.536   6.499  0.8060 -2.1336  1.8378
  169SOPE    C219035   6.991   3.485   6.696  0.3985 -0.9155 -0.1936
  169SOPE    HS19036   7.047   3.565   6.749 -3.5390 -0.5127  3.6504
  169SOPE   O2119037   7.061   3.359   6.722 -0.2789 -0.4209  0.4170
  169SOPE   C2119038   7.193   3.368   6.706  0.1040  0.5891  0.4086
  169SOPE   O2219039   7.255   3.466   6.675  0.9299 -0.5736  0.1071
  169SOPE   C2219040   7.261   3.233   6.736 -0.0859 -0.0520  0.2144
  169SOPE   H2R19041   7.335   3.231   6.653  1.8710  1.9706  1.8493
  169SOPE   H2S19042   7.185   3.152   6.736  0.3545 -0.4626  0.8264
  169SOPE    C319043   6.847   3.488   6.757 -0.1293  0.4119 -1.0141
  169SOPE    HX19044   6.791   3.406   6.707 -0.9011 -0.1664  0.7633
  169SOPE    HY19045   6.807   3.588   6.728  2.3127  2.1236  1.2879
  169SOPE   O3119046   6.845   3.475   6.902  0.1417  0.0970 -0.4574
  169SOPE   C3119047   6.735   3.414   6.959 -0.0981 -0.3716 -0.5776
  169SOPE   O3219048   6.632   3.384   6.894  0.3575 -0.3379 -0.3003
  169SOPE   C3219049   6.747   3.411   7.117  0.8045 -0.5237  0.2361
  169SOPE   H2X19050   6.740   3.517   7.148 -0.0108  0.1188 -2.0325
  169SOPE   H2Y19051   6.846   3.373   7.149  1.6900  1.4189 -0.1406
  169SOPE   C2319052   7.334   3.230   6.869  0.1327 -0.1604  0.0527
  169SOPE   H3R19053   7.394   3.324   6.877  1.4205 -0.9249 -0.4729
  169SOPE   H3S19054   7.408   3.148   6.872  0.2227 -0.0186  1.8138
  169SOPE   C2419055   7.251   3.235   6.996  0.3246 -0.0227  0.5500
  169SOPE   H4R19056   7.177   3.316   6.979 -0.1762 -1.1349 -3.0599
  169SOPE   H4S19057   7.197   3.137   7.000 -0.9360  0.6351  0.0433
  169SOPE   C2519058   7.323   3.266   7.120  0.3086 -0.1820 -0.6783
  169SOPE   H5R19059   7.425   3.221   7.126 -0.2062 -1.0935  1.5470
  169SOPE   H5S19060   7.332   3.377   7.116 -0.8986 -0.0256  0.8053
  169SOPE   C2619061   7.246   3.208   7.237  1.5006  0.5557 -0.3962
  169SOPE   H6R19062   7.140   3.241   7.239  1.4032  0.1935  0.8733
  169SOPE   H6S19063   7.233   3.098   7.223  0.8203  0.6762 -0.7349
  169SOPE   C2719064   7.307   3.237   7.377  0.3150  0.4551 -0.2397
  169SOPE   H7R19065   7.411   3.199   7.377  0.0402 -0.4080 -2.3050
  169SOPE   H7S19066   7.329   3.345   7.388  1.5482  0.4332 -2.2507
  169SOPE   C2819067   7.230   3.188   7.503  0.3146  0.4347  0.4390
  169SOPE   H8R19068   7.224   3.078   7.488  2.7961  0.2641  0.5126
  169SOPE   H8S19069   7.299   3.213   7.587  2.0464 -1.0273 -0.5141
  169SOPE   C2919070   7.099   3.259   7.523  0.6016  0.0326  0.3839
  169SOPE   H9119071   7.042   3.286   7.433  0.7330 -0.3183  0.1947
  169SOPE  C21019072   7.047   3.281   7.642  0.1191  0.4776 -0.3460
  169SOPE  H10119073   6.947   3.326   7.652 -0.0627 -0.1995  1.0422
  169SOPE  C21119074   7.111   3.233   7.769  1.1346  0.6429 -0.1228
  169SOPE  H11R19075   7.183   3.310   7.805  1.6096  0.0357  0.2452
  169SOPE  H11S19076   7.180   3.150   7.741  2.2234  1.6544 -0.4733
  169SOPE  C21219077   7.003   3.201   7.875  0.4142 -0.1979 -0.4850
  169SOPE  H12R19078   6.947   3.113   7.837 -1.0460  1.0902 -1.3877
  169SOPE  H12S19079   6.926   3.281   7.880  0.9963  0.2461  3.0463
  169SOPE  C21319080   7.081   3.170   8.002  0.5420 -0.3999  0.1018
  169SOPE  H13R19081   7.158   3.247   8.023 -1.0398  1.1189  0.4131
  169SOPE  H13S19082   7.139   3.076   7.992  1.0791 -0.1420  0.8034
  169SOPE  C21419083   6.989   3.147   8.121  0.1513 -0.1071  0.2142
  169SOPE  H14R19084   6.931   3.053   8.110  0.8485 -0.4530 -0.6583
  169SOPE  H14S19085   6.923   3.235   8.136  0.7639  0.1935  1.2015
  169SOPE  C21519086   7.067   3.143   8.251  0.2310 -0.3690 -0.3119
  169SOPE  H15R19087   6.992   3.104   8.323 -1.5506 -1.1535 -2.5310
  169SOPE  H15S19088   7.113   3.240   8.281 -2.2084  1.2974 -1.8091
  169SOPE  C21619089   7.182   3.036   8.263  0.2133 -0.1161 -0.1930
  169SOPE  H16R19090   7.270   3.072   8.205  0.8246 -0.2480  0.6460
  169SOPE  H16S19091   7.140   2.946   8.214 -2.7915  0.8298  0.5435
  169SOPE  C21719092   7.234   2.992   8.404 -0.7144  0.2761  0.4737
  169SOPE  H17R19093   7.324   2.929   8.386  0.2659  1.3347  1.6276
  169SOPE  H17S19094   7.156   2.931   8.455 -1.4285  0.1995 -0.6832
  169SOPE  C21819095   7.273   3.111   8.490  0.4049 -0.1603 -0.2260
  169SOPE  H18R19096   7.174   3.156   8.514  1.5335  2.6225 -0.5123
  169SOPE  H18S19097   7.334   3.174   8.422 -0.4326 -1.0784 -1.8364
  169SOPE  H18T19098   7.329   3.091   8.584 -0.1033  0.8799  0.3085
  169SOPE   C3319099   6.636   3.324   7.171  0.0934  0.0380  0.3908
  169SOPE   H3X19100   6.639   3.220   7.132  0.3313 -0.3423  1.4075
  169SOPE   H3Y19101   6.538   3.370   7.147 -0.4821 -1.6150 -0.4410
  169SOPE   C3419102   6.647   3.297   7.321  0.0033  0.0212 -0.0283
  169SOPE   H4X19103   6.737   3.234   7.337 -0.1734  0.2969  2.1958
  169SOPE   H4Y19104   6.565   3.231   7.354 -0.2178 -0.1462 -0.9160
  169SOPE   C3519105   6.670   3.419   7.415  0.3160 -0.3693  0.0135
  169SOPE   H5X19106   6.589   3.493   7.400  1.9028  0.8308 -2.8258
  169SOPE   H5Y19107   6.771   3.461   7.394  0.3750 -0.0073  1.0000
  169SOPE   C3619108   6.665   3.378   7.564  0.1453 -0.1211 -0.2010
  169SOPE   H6X19109   6.747   3.307   7.587  0.5150 -0.5738 -2.7460
  169SOPE   H6Y19110   6.569   3.325   7.577  0.5392 -1.1058 -1.2231
  169SOPE   C3719111   6.672   3.490   7.667 -0.0752  0.6643  0.3476
  169SOPE   H7X19112   6.592   3.565   7.649  1.1767  1.7403 -0.8791
  169SOPE   H7Y19113   6.772   3.538   7.659  0.0041  0.1280 -2.3278
  169SOPE   C3819114   6.671   3.434   7.808  0.4949 -0.5854  0.1063
  169SOPE   H8X19115   6.562   3.422   7.828  0.4833 -1.0723 -0.2542
  169SOPE   H8Y19116   6.728   3.340   7.822 -0.7648 -1.0149  2.9828
  169SOPE   C3919117   6.721   3.536   7.915  0.3076 -0.0665 -0.6602
  169SOPE   H9X19118   6.672   3.631   7.883 -0.2120  0.3274  1.2463
  169SOPE   H9Y19119   6.831   3.552   7.905  0.3664  0.0761  0.1854
  169SOPE  C31019120   6.676   3.493   8.051 -0.2446 -0.0089 -0.2967
  169SOPE  H10X19121   6.742   3.417   8.098  0.4456  0.4229 -0.5672
  169SOPE  H10Y19122   6.571   3.456   8.046 -0.9202  1.9948 -2.0271
  169SOPE  C31119123   6.673   3.608   8.158 -0.0076 -0.1183 -0.1406
  169SOPE  H11X19124   6.619   3.579   8.250  0.9573  0.1421  0.5176
  169SOPE  H11Y19125   6.608   3.684   8.110 -0.6002 -0.1792  0.5664
  169SOPE  C31219126   6.816   3.669   8.187  0.4946 -0.6207 -0.3538
  169SOPE  H12X19127   6.802   3.765   8.240  0.2557 -0.3321 -0.9355
  169SOPE  H12Y19128   6.864   3.688   8.089  0.9007 -1.8258 -0.4001
  169SOPE  C31319129   6.914   3.578   8.270  0.0120 -0.4336 -0.4847
  169SOPE  H13X19130   6.965   3.501   8.207 -0.3330  0.8266 -2.3550
  169SOPE  H13Y19131   6.843   3.531   8.342 -1.7653 -2.3104 -3.3133
  169SOPE  C31419132   7.014   3.660   8.347  0.4700 -1.0246 -0.1688
  169SOPE  H14X19133   7.048   3.597   8.432  0.6901  0.9296  1.2309
  169SOPE  H14Y19134   6.966   3.754   8.382  3.2225  0.5571 -0.4302
  169SOPE  C31519135   7.136   3.700   8.274  0.1325  0.0644 -0.3297
  169SOPE  H15X19136   7.092   3.759   8.191 -0.6742 -0.7656 -0.4984
  169SOPE  H15Y19137   7.177   3.610   8.224 -0.5201 -0.9030  0.8742
  169SOPE  C31619138   7.253   3.779   8.343  0.3680 -0.6785  0.0919
  169SOPE  H16X19139   7.325   3.769   8.258  1.1410  0.9816  0.5297
  169SOPE  H16Y19140   7.275   3.724   8.437  1.1591 -2.2022 -0.9624
  169SOPE  C31719141   7.221   3.929   8.376 -0.9143  0.0952  0.3470
  169SOPE  H17X19142   7.147   3.969   8.303 -0.5010  0.1669 -0.0352
  169SOPE  H17Y19143   7.317   3.985   8.375 -0.4583 -0.6684  0.7426
  169SOPE  C31819144   7.162   3.960   8.516 -0.3723  1.4740 -0.0642
  169SOPE  H18X19145   7.242   3.953   8.592 -0.9069 -0.4349  0.3469
  169SOPE  H18Y19146   7.080   3.889   8.542  1.0637 -1.1010 -2.2348
  169SOPE  H18Z19147   7.115   4.061   8.516  0.5960  1.9381  1.6835
  170SOPE     N19148   6.724   1.906   6.193 -0.6206 -0.0005 -0.2846
  170SOPE   HN119149   6.683   1.857   6.275 -1.2053  1.8102  0.5408
  170SOPE   HN219150   6.824   1.928   6.212 -1.2203  2.4705  0.2584
  170SOPE   HN319151   6.675   1.995   6.169  0.1627  0.9353  1.4502
  170SOPE   C1219152   6.727   1.802   6.086  0.4071  0.0638  0.0277
  170SOPE  H12A19153   6.733   1.850   5.986 -1.6362  0.8169  0.2434
  170SOPE  H12B19154   6.632   1.744   6.087  0.5440 -0.1723 -0.6257
  170SOPE   C1119155   6.843   1.702   6.109 -0.1801  0.4133 -0.7222
  170SOPE  H11A19156   6.941   1.754   6.109  0.2830 -0.4392 -0.1059
  170SOPE  H11B19157   6.849   1.632   6.023 -0.6520 -0.1718 -0.2795
  170SOPE     P19158   6.805   1.482   6.241  0.2180 -0.0247 -0.2993
  170SOPE   O1319159   6.915   1.416   6.164 -0.4600  0.4438 -0.1988
  170SOPE   O1419160   6.672   1.443   6.189 -0.2890  0.3486  0.3158
  170SOPE   O1219161   6.823   1.634   6.235 -0.4263 -0.0950  0.4689
  170SOPE   O1119162   6.822   1.438   6.394  0.7594  0.2447  0.3572
  170SOPE    C119163   6.808   1.524   6.514 -0.8049  0.0238 -0.0948
  170SOPE    HA19164   6.793   1.463   6.605  0.7268  0.8169  0.7052
  170SOPE    HB19165   6.718   1.589   6.507 -2.2511 -1.8492  0.5573
  170SOPE    C219166   6.936   1.616   6.537 -0.8952 -0.3793 -0.8022
  170SOPE    HS19167   6.986   1.642   6.442  0.1218 -1.0709 -0.4595
  170SOPE   O2119168   7.023   1.537   6.627 -0.2786  0.1821 -0.2271
  170SOPE   C2119169   7.098   1.450   6.562  0.2037  0.6429 -0.0804
  170SOPE   O2219170   7.100   1.435   6.441  0.0819 -0.9703 -0.2652
  170SOPE   C2219171   7.194   1.378   6.657 -0.1538 -0.4993  0.6365
  170SOPE   H2R19172   7.277   1.451   6.670 -0.3362 -0.1813  0.0624
  170SOPE   H2S19173   7.241   1.294   6.601 -2.7753 -1.5027 -0.1251
  170SOPE    C319174   6.891   1.741   6.617 -0.4628  0.5247 -0.0367
  170SOPE    HX19175   6.824   1.804   6.555  0.1707  0.6316 -0.6192
  170SOPE    HY19176   6.981   1.804   6.635 -0.4991  0.3027  0.9529
  170SOPE   O3119177   6.817   1.715   6.738 -0.1737 -0.1083 -0.2140
  170SOPE   C3119178   6.894   1.718   6.855 -0.3196  0.4370 -0.7279
  170SOPE   O3219179   7.008   1.761   6.859 -0.2639 -0.6455  0.1359
  170SOPE   C3219180   6.808   1.681   6.977 -0.4149 -0.2116 -0.2417
  170SOPE   H2X19181   6.781   1.573   6.968  2.0074 -0.9973  1.3284
  170SOPE   H2Y19182   6.715   1.742   6.973  0.4333  0.9868 -2.1561
  170SOPE   C2319183   7.136   1.356   6.796  0.2784  0.5362 -0.6133
  170SOPE   H3R19184   7.112   1.453   6.845 -0.0727  0.3554 -0.4294
  170SOPE   H3S19185   7.215   1.305   6.855 -0.8471 -1.5701 -0.8664
  170SOPE   C2419186   7.013   1.258   6.795 -0.2290  0.1862  0.5395
  170SOPE   H4R19187   6.929   1.317   6.753  0.2162  0.3662 -0.1068
  170SOPE   H4S19188   7.023   1.173   6.724  0.0346  0.4701  0.2354
  170SOPE   C2519189   6.988   1.187   6.935  0.2441  0.0014 -0.0988
  170SOPE   H5R19190   6.899   1.122   6.918 -0.0777  0.3532  0.2229
  170SOPE   H5S19191   7.072   1.127   6.975 -0.0759 -1.1891 -1.2058
  170SOPE   C2619192   6.950   1.290   7.043 -0.1216 -0.3272  0.4922
  170SOPE   H6R19193   7.048   1.335   7.069  0.4067 -0.2604 -1.5484
  170SOPE   H6S19194   6.876   1.364   7.008  0.3907  0.6413  1.4241
  170SOPE   C2719195   6.876   1.215   7.158  0.3335 -0.7367  0.4988
  170SOPE   H7R19196   6.778   1.183   7.116  0.0378  1.8051 -0.8503
  170SOPE   H7S19197   6.935   1.124   7.183  2.2352 -0.3323 -2.1938
  170SOPE   C2819198   6.855   1.308   7.281 -0.2742  0.3325  0.8507
  170SOPE   H8R19199   6.832   1.414   7.256 -1.1411 -0.1767 -0.5772
  170SOPE   H8S19200   6.772   1.268   7.343  0.0926  1.3201  1.9969
  170SOPE   C2919201   6.973   1.305   7.378  0.1554  0.4986  0.6251
  170SOPE   H9119202   7.062   1.344   7.325  0.6745  1.0131  1.8753
  170SOPE  C21019203   6.978   1.269   7.506  0.0214 -0.1705  0.4536
  170SOPE  H10119204   7.072   1.281   7.562  0.6442  0.1556 -0.6360
  170SOPE  C21119205   6.859   1.234   7.590  0.0527 -0.5375  0.3812
  170SOPE  H11R19206   6.871   1.145   7.654 -1.8240  0.0463  1.5743
  170SOPE  H11S19207   6.766   1.211   7.534 -0.3945 -0.7447  1.2066
  170SOPE  C21219208   6.831   1.345   7.683  0.3849 -0.4802  1.1666
  170SOPE  H12R19209   6.745   1.303   7.738  0.5412 -0.5655  1.3499
  170SOPE  H12S19210   6.801   1.441   7.635 -0.3157 -0.6747  1.2124
  170SOPE  C21319211   6.946   1.383   7.778  0.0597  0.2273  0.2561
  170SOPE  H13R19212   6.981   1.473   7.724  0.4773 -0.4583 -0.6290
  170SOPE  H13S19213   7.026   1.306   7.791  0.4080  1.1147  3.6885
  170SOPE  C21419214   6.896   1.431   7.915  0.5642  0.0268  0.5744
  170SOPE  H14R19215   6.856   1.347   7.976 -1.9009  0.8112  0.0670
  170SOPE  H14S19216   6.814   1.504   7.900 -0.5631 -1.0901  1.2209
  170SOPE  C21519217   7.000   1.506   8.002 -0.2245  0.3329 -0.2872
  170SOPE  H15R19218   7.082   1.439   8.035 -0.3851  0.7030  0.8821
  170SOPE  H15S19219   6.952   1.543   8.095 -3.3610 -0.2800 -1.5780
  170SOPE  C21619220   7.049   1.632   7.937 -0.0965 -0.2478  0.1621
  170SOPE  H16R19221   6.965   1.693   7.898  0.4604  1.3467  1.3875
  170SOPE  H16S19222   7.111   1.601   7.850 -0.6561 -0.4421 -0.1655
  170SOPE  C21719223   7.130   1.710   8.043  0.3844 -0.0986  0.2402
  170SOPE  H17R19224   7.196   1.774   7.980 -0.3897  0.9835  0.5200
  170SOPE  H17S19225   7.191   1.637   8.099 -0.7505  0.3680  2.1184
  170SOPE  C21819226   7.057   1.802   8.139 -0.1036  0.3812 -0.2038
  170SOPE  H18R19227   6.969   1.748   8.180  0.2772 -1.0647 -1.2583
  170SOPE  H18S19228   7.021   1.889   8.082  0.5034  0.1230 -0.9915
  170SOPE  H18T19229   7.129   1.837   8.216 -2.1620  3.7126  0.2960
  170SOPE   C3319230   6.879   1.702   7.108  1.0068  0.3595  0.6983
  170SOPE   H3X19231   6.988   1.687   7.101  1.2473  1.4098  2.0378
  170SOPE   H3Y19232   6.833   1.623   7.172 -1.3540  0.9461 -0.1925
  170SOPE   C3419233   6.841   1.843   7.154  0.7800  0.3051  0.3892
  170SOPE   H4X19234   6.731   1.852   7.166  0.6200 -0.8958 -0.1261
  170SOPE   H4Y19235   6.880   1.913   7.078  0.0261 -1.3897 -1.5962
  170SOPE   C3519236   6.921   1.879   7.285 -0.1039  0.6760  0.4142
  170SOPE   H5X19237   6.882   1.976   7.320  0.9545  0.5922  1.8720
  170SOPE   H5Y19238   7.031   1.889   7.266 -0.4906 -0.4888 -2.8375
  170SOPE   C3619239   6.905   1.779   7.394 -0.2173 -0.2101 -0.3750
  170SOPE   H6X19240   6.816   1.714   7.377  0.6510 -1.1613 -1.3649
  170SOPE   H6Y19241   6.894   1.831   7.491  0.0751  1.7586 -1.3720
  170SOPE   C3719242   7.027   1.687   7.408 -0.2474 -0.1771 -0.1553
  170SOPE   H7X19243   7.065   1.643   7.314  0.2082  2.1731 -1.1234
  170SOPE   H7Y19244   6.997   1.597   7.466  0.4169  1.1014  2.2417
  170SOPE   C3819245   7.137   1.758   7.489 -0.5624  0.2487  0.1909
  170SOPE   H8X19246   7.088   1.767   7.588 -0.6140 -2.1916  0.3955
  170SOPE   H8Y19247   7.171   1.846   7.430  1.5395 -1.5134 -1.3213
  170SOPE   C3919248   7.263   1.666   7.503  0.3633 -0.0804 -0.2306
  170SOPE   H9X19249   7.308   1.680   7.402 -1.1676  1.6980 -0.7032
  170SOPE   H9Y19250   7.236   1.561   7.524 -1.4886  0.5180  0.4687
  170SOPE  C31019251   7.357   1.732   7.606  0.1477 -0.2542 -0.4893
  170SOPE  H10X19252   7.307   1.721   7.704  0.2949 -2.4123 -0.6263
  170SOPE  H10Y19253   7.384   1.833   7.568 -2.0388  0.4146 -0.3171
  170SOPE  C31119254   7.490   1.657   7.633 -0.2589  0.6453 -0.5252
  170SOPE  H11X19255   7.552   1.655   7.540  0.1575  0.9419 -0.2556
  170SOPE  H11Y19256   7.453   1.554   7.653  1.0672 -0.0955 -1.7598
  170SOPE  C31219257   7.573   1.693   7.758  0.8088 -0.6300  0.0946
  170SOPE  H12X19258   7.594   1.802   7.763  0.4398 -0.6204  2.0948
  170SOPE  H12Y19259   7.663   1.630   7.745  1.5007  0.4237 -0.2334
  170SOPE  C31319260   7.488   1.660   7.884 -0.5406  0.0423 -1.0384
  170SOPE  H13X19261   7.433   1.565   7.872  1.1225 -1.1497  0.3900
  170SOPE  H13Y19262   7.416   1.742   7.904 -0.7063 -0.8027  2.1576
  170SOPE  C31419263   7.575   1.658   8.013  0.8673  0.0949  0.2057
  170SOPE  H14X19264   7.642   1.747   8.017  1.1911 -0.0290 -1.7925
  170SOPE  H14Y19265   7.637   1.567   8.000  1.7529  0.6900  0.2268
  170SOPE  C31519266   7.508   1.629   8.141 -0.0846 -0.4645  0.1876
  170SOPE  H15X19267   7.459   1.531   8.128 -0.2816 -0.3388 -0.0126
  170SOPE  H15Y19268   7.431   1.709   8.148  0.8774  0.5951 -0.9548
  170SOPE  C31619269   7.610   1.631   8.264  0.6727 -0.3061 -0.6363
  170SOPE  H16X19270   7.642   1.737   8.278  1.5741 -0.0127 -4.4398
  170SOPE  H16Y19271   7.690   1.557   8.242  0.0981 -1.1471  0.0725
  170SOPE  C31719272   7.534   1.574   8.385 -0.6883 -0.2367 -0.0880
  170SOPE  H17X19273   7.606   1.566   8.470 -0.2424 -3.0269 -0.6687
  170SOPE  H17Y19274   7.508   1.468   8.361 -1.4332 -1.2553  4.7219
  170SOPE  C31819275   7.423   1.651   8.438 -0.3513 -0.0124  0.2449
  170SOPE  H18X19276   7.438   1.760   8.421 -1.0718  0.2391  1.1896
  170SOPE  H18Y19277   7.399   1.632   8.545  0.7217 -1.1390  0.2929
  170SOPE  H18Z19278   7.331   1.626   8.382 -0.1532 -0.5667  0.1670
  171SOPE     N19279   1.762   5.044   6.368 -0.3751 -0.9494 -0.0644
  171SOPE   HN119280   1.708   5.058   6.280 -0.1130 -0.7389 -0.1952
  171SOPE   HN219281   1.862   5.063   6.345 -0.4664  2.1215  1.7459
  171SOPE   HN319282   1.753   4.947   6.403  0.3617 -1.0340 -0.1044
  171SOPE   C1219283   1.706   5.142   6.467  0.0562 -0.0455 -0.5846
  171SOPE  H12A19284   1.680   5.237   6.416 -1.1614  0.4678  0.9673
  171SOPE  H12B19285   1.782   5.148   6.548 -1.9442 -2.3438  1.5524
  171SOPE   C1119286   1.577   5.090   6.545 -0.2545  0.6912 -0.3877
  171SOPE  H11A19287   1.536   5.177   6.600  1.0455  1.2407 -0.2647
  171SOPE  H11B19288   1.613   5.019   6.622 -1.5642  1.0935  0.6087
  171SOPE     P19289   1.407   4.899   6.520 -0.2649 -0.0252 -0.3477
  171SOPE   O1319290   1.509   4.802   6.560  0.3927 -0.2475  0.2532
  171SOPE   O1419291   1.317   4.854   6.407 -0.1310 -0.0332  0.5965
  171SOPE   O1219292   1.471   5.035   6.467 -0.3377 -0.3334  0.3664
  171SOPE   O1119293   1.315   4.940   6.643 -0.0403 -0.1636 -0.2788
  171SOPE    C119294   1.218   4.853   6.696 -0.3029 -0.3202  0.3210
  171SOPE    HA19295   1.225   4.746   6.666  0.3653 -0.3906  0.7203
  171SOPE    HB19296   1.118   4.882   6.656 -0.1092  1.8167  1.3509
  171SOPE    C219297   1.225   4.839   6.853 -0.6172  0.4580 -0.1098
  171SOPE    HS19298   1.138   4.781   6.889 -0.4452 -0.4196 -1.0823
  171SOPE   O2119299   1.209   4.966   6.910  0.1548  0.1912 -0.8053
  171SOPE   C2119300   1.092   5.026   6.903 -0.5505 -0.6720  1.1297
  171SOPE   O2219301   0.991   4.973   6.864 -0.2530  0.5373 -0.3631
  171SOPE   C2219302   1.104   5.171   6.951 -0.8742 -0.3708 -0.0611
  171SOPE   H2R19303   1.001   5.212   6.956 -1.0959 -1.0569  1.3875
  171SOPE   H2S19304   1.170   5.228   6.883 -0.2418 -0.7250  0.2510
  171SOPE    C319305   1.350   4.769   6.914 -0.4452 -0.3662  0.3070
  171SOPE    HX19306   1.422   4.852   6.927 -0.0563 -0.6974  0.2928
  171SOPE    HY19307   1.380   4.696   6.835 -0.2305 -0.9268  0.9034
  171SOPE   O3119308   1.321   4.716   7.043 -0.2927 -0.0200  0.1768
  171SOPE   C3119309   1.305   4.584   7.047  0.2071 -0.4063  0.1541
  171SOPE   O3219310   1.299   4.499   6.959 -0.3867 -0.3412  0.7587
  171SOPE   C3219311   1.263   4.549   7.186  0.4042  0.0323 -0.3731
  171SOPE   H2X19312   1.330   4.600   7.260 -0.2573  0.1568  0.1478
  171SOPE   H2Y19313   1.251   4.440   7.201  0.4333  0.3237  1.9946
  171SOPE   C2319314   1.181   5.189   7.089 -0.3746  0.3925 -0.0972
  171SOPE   H3R19315   1.219   5.293   7.097  2.2722 -0.4897 -0.8628
  171SOPE   H3S19316   1.268   5.124   7.109  0.6583  1.3951 -1.2100
  171SOPE   C2419317   1.086   5.162   7.206  0.5470  0.7497 -0.1415
  171SOPE   H4R19318   1.006   5.236   7.226  1.2928  1.5800 -0.2265
  171SOPE   H4S19319   1.032   5.068   7.181 -0.1765  1.1918 -0.2718
  171SOPE   C2519320   1.165   5.144   7.337  0.0035  0.0958 -0.0452
  171SOPE   H5R19321   1.225   5.051   7.329  2.2912  1.5796 -0.6521
  171SOPE   H5S19322   1.230   5.232   7.355  0.4500 -0.3144  0.3594
  171SOPE   C2619323   1.078   5.133   7.459  0.4411 -0.7984  0.4976
  171SOPE   H6R19324   1.033   5.233   7.478  1.2531 -0.8600  2.8787
  171SOPE   H6S19325   0.999   5.057   7.440 -1.0353  0.7387  0.3011
  171SOPE   C2719326   1.144   5.098   7.586  0.1543  0.2667  0.6771
  171SOPE   H7R19327   1.148   4.988   7.596  0.0956  0.5381  4.1722
  171SOPE   H7S19328   1.250   5.131   7.582  0.9766 -2.2857  0.8146
  171SOPE   C2819329   1.067   5.153   7.708  0.4847  0.1929 -0.4544
  171SOPE   H8R19330   1.025   5.254   7.688 -1.9802 -0.6158  0.5228
  171SOPE   H8S19331   0.969   5.105   7.726 -0.3545  1.8768 -0.4390
  171SOPE   C2919332   1.156   5.138   7.836 -0.1020 -0.1979  1.0205
  171SOPE   H9119333   1.266   5.142   7.822  0.0777  1.2927  2.6186
  171SOPE  C21019334   1.107   5.121   7.965 -0.2033 -0.2660  0.2940
  171SOPE  H10119335   1.184   5.113   8.043 -0.1530  1.0075  0.3978
  171SOPE  C21119336   0.966   5.112   8.017  0.6030 -0.1046 -0.0625
  171SOPE  H11R19337   0.892   5.125   7.935  1.8917  1.1477 -1.0562
  171SOPE  H11S19338   0.968   5.187   8.099  0.6717  1.8194 -1.7816
  171SOPE  C21219339   0.939   4.978   8.083 -0.1278  0.3390 -0.2185
  171SOPE  H12R19340   1.034   4.924   8.101 -0.2800  0.1702  0.0895
  171SOPE  H12S19341   0.884   4.921   8.005  2.2254  0.6528 -2.1504
  171SOPE  C21319342   0.848   4.991   8.206 -0.1542  0.1606 -0.1676
  171SOPE  H13R19343   0.746   5.020   8.174 -1.1411 -0.8811  1.9708
  171SOPE  H13S19344   0.882   5.083   8.258  1.1488  1.0271 -2.4590
  171SOPE  C21419345   0.850   4.872   8.304  0.0698 -1.0717  0.2012
  171SOPE  H14R19346   0.793   4.908   8.392 -0.0791  2.0617 -1.1125
  171SOPE  H14S19347   0.956   4.855   8.329 -0.0715 -1.3846  0.5924
  171SOPE  C21519348   0.803   4.738   8.245  0.1593  0.4336 -0.4322
  171SOPE  H15R19349   0.877   4.684   8.181 -0.7512 -0.5051 -0.7162
  171SOPE  H15S19350   0.721   4.769   8.176 -0.3616  1.4974  0.6420
  171SOPE  C21619351   0.741   4.646   8.353  0.0508  0.3070 -0.4131
  171SOPE  H16R19352   0.665   4.707   8.407 -0.4356  0.5594 -1.3631
  171SOPE  H16S19353   0.818   4.618   8.427  1.1154  0.9338 -1.2736
  171SOPE  C21719354   0.680   4.516   8.293 -0.3216 -0.3181 -0.0560
  171SOPE  H17R19355   0.756   4.436   8.286  0.0763  0.0675 -0.1488
  171SOPE  H17S19356   0.647   4.533   8.188  0.1229  1.3222  0.0634
  171SOPE  C21819357   0.561   4.459   8.376 -0.2661  0.0351  0.6037
  171SOPE  H18R19358   0.527   4.362   8.335 -0.2519  0.0224  0.6225
  171SOPE  H18S19359   0.477   4.531   8.363 -0.6685 -0.7285 -1.0332
  171SOPE  H18T19360   0.576   4.441   8.485  1.6229  1.8811  0.6694
  171SOPE   C3319361   1.111   4.600   7.204 -0.4577  0.2533  0.1714
  171SOPE   H3X19362   1.050   4.548   7.127 -1.7056  0.1310  1.2290
  171SOPE   H3Y19363   1.114   4.705   7.169  2.8844  0.3146  0.4273
  171SOPE   C3419364   1.044   4.576   7.346 -0.2602  0.1207  0.9319
  171SOPE   H4X19365   1.045   4.466   7.354 -0.0611 -0.2705 -3.3790
  171SOPE   H4Y19366   0.939   4.612   7.341  0.2571  1.4358 -1.4156
  171SOPE   C3519367   1.124   4.655   7.454 -0.2678 -0.4859 -0.3971
  171SOPE   H5X19368   1.130   4.761   7.422  3.1045 -0.6216 -0.3879
  171SOPE   H5Y19369   1.229   4.620   7.463  0.2540  0.7373 -1.5336
  171SOPE   C3619370   1.059   4.642   7.590  0.0315 -0.2525  0.0881
  171SOPE   H6X19371   1.048   4.532   7.598  1.3347 -0.3691  0.3722
  171SOPE   H6Y19372   0.962   4.697   7.595 -0.0422 -0.3129 -0.7200
  171SOPE   C3719373   1.143   4.693   7.699  0.2281 -0.4032  0.0443
  171SOPE   H7X19374   1.144   4.804   7.698  1.0067 -0.3671  1.9064
  171SOPE   H7Y19375   1.250   4.666   7.688  0.0102 -0.3637 -2.2862
  171SOPE   C3819376   1.090   4.645   7.839  0.6649 -0.5035  0.5136
  171SOPE   H8X19377   1.077   4.535   7.825 -0.1944 -0.0193 -2.8166
  171SOPE   H8Y19378   1.000   4.705   7.862  1.1873  1.2315 -1.8201
  171SOPE   C3919379   1.208   4.674   7.937  0.2964 -0.0600 -0.4586
  171SOPE   H9X19380   1.195   4.781   7.963  0.0751  0.2866 -1.9771
  171SOPE   H9Y19381   1.307   4.664   7.887  0.2398 -0.3623 -0.5105
  171SOPE  C31019382   1.228   4.573   8.059  0.6154 -0.6859  0.8277
  171SOPE  H10X19383   1.246   4.471   8.021 -1.3819 -0.8427  0.2344
  171SOPE  H10Y19384   1.127   4.564   8.106 -0.2660  0.2798 -0.8460
  171SOPE  C31119385   1.320   4.629   8.170  0.4730 -0.5396 -0.8820
  171SOPE  H11X19386   1.424   4.647   8.136 -0.0154  1.4537 -1.3689
  171SOPE  H11Y19387   1.315   4.545   8.243 -0.1890 -0.8233 -1.2474
  171SOPE  C31219388   1.267   4.754   8.240 -0.7884  0.6867  0.7728
  171SOPE  H12X19389   1.162   4.729   8.265 -0.4875 -0.3673  0.9990
  171SOPE  H12Y19390   1.276   4.841   8.171  2.8214 -0.9788 -0.9669
  171SOPE  C31319391   1.337   4.781   8.372 -0.6865 -0.4463  0.2443
  171SOPE  H13X19392   1.443   4.813   8.368 -0.4113 -1.0573  2.0482
  171SOPE  H13Y19393   1.351   4.688   8.432  0.4711 -0.0154  0.6524
  171SOPE  C31419394   1.247   4.879   8.453 -0.1118 -0.4172  0.3657
  171SOPE  H14X19395   1.148   4.835   8.479 -0.0434  2.2450  5.7774
  171SOPE  H14Y19396   1.229   4.971   8.394 -1.9152 -0.0287  1.5031
  171SOPE  C31519397   1.295   4.907   8.601  0.2975 -0.1040 -0.5197
  171SOPE  H15X19398   1.405   4.901   8.606  0.3606 -0.2905 -1.9522
  171SOPE  H15Y19399   1.252   4.830   8.669  0.1744  1.1690  0.8637
  171SOPE  C31619400   1.240   5.040   8.650 -0.8538  0.9572 -0.1303
  171SOPE  H16X19401   1.247   5.036   8.761 -0.2824  1.0987 -0.1558
  171SOPE  H16Y19402   1.133   5.040   8.620 -0.5791  1.2957 -1.1316
  171SOPE  C31719403   1.328   5.161   8.611 -0.7454 -0.4022 -0.4426
  171SOPE  H17X19404   1.261   5.250   8.622  2.0941  1.8062 -0.6289
  171SOPE  H17Y19405   1.358   5.156   8.505  0.9055 -0.0488 -0.0028
  171SOPE  C31819406   1.451   5.181   8.698 -0.6516 -0.5323  0.1851
  171SOPE  H18X19407   1.483   5.287   8.688  0.8164 -0.9644  0.2210
  171SOPE  H18Y19408   1.536   5.113   8.679  0.2387  0.4001  0.8273
  171SOPE  H18Z19409   1.411   5.177   8.801 -0.7094  2.0352  0.2829
  172SOPE     N19410   1.984   0.129   6.366  0.2806  0.3827 -0.2252
  172SOPE   HN119411   2.056   0.203   6.365 -1.4278  2.0910 -0.0641
  172SOPE   HN219412   2.008   0.054   6.297 -1.7964 -2.4314  1.9696
  172SOPE   HN319413   1.893   0.169   6.333  1.8573  2.6956 -1.9221
  172SOPE   C1219414   1.972   0.074   6.507 -0.3677  0.0155 -0.5270
  172SOPE  H12A19415   1.876   0.025   6.534 -1.0072  1.4190 -0.2109
  172SOPE  H12B19416   1.997   0.160   6.572  1.8373 -1.0421  0.0819
  172SOPE   C1119417   2.089  -0.029   6.544  0.8522 -0.1896 -0.8551
  172SOPE  H11A19418   2.088  -0.122   6.483  0.6567 -2.3028  2.2480
  172SOPE  H11B19419   2.059  -0.053   6.648  0.4919  1.0109 -0.6739
  172SOPE     P19420   2.299   0.104   6.635  0.4197 -0.3174  0.3851
  172SOPE   O1319421   2.300   0.248   6.608  0.4874  0.1760  0.0418
  172SOPE   O1419422   2.433   0.046   6.627 -0.6615  0.3255 -0.8828
  172SOPE   O1219423   2.216   0.033   6.522 -0.2732  0.3222  0.0198
  172SOPE   O1119424   2.214   0.075   6.770  0.0157 -0.3514 -0.2621
  172SOPE    C119425   2.139   0.174   6.841  0.3591  0.3986  0.2062
  172SOPE    HA19426   2.059   0.221   6.780  0.0356  3.1183  2.5957
  172SOPE    HB19427   2.201   0.252   6.891  1.3988  1.1540 -2.1927
  172SOPE    C219428   2.059   0.101   6.946  1.0538  0.3855 -0.3736
  172SOPE    HS19429   1.979   0.040   6.898  0.1842  0.5711  0.8157
  172SOPE   O2119430   1.996   0.190   7.031 -0.2440 -0.0886 -0.1745
  172SOPE   C2119431   1.864   0.218   7.016 -0.3792 -0.8248  0.1762
  172SOPE   O2219432   1.794   0.172   6.933 -0.2431 -0.1031  0.1535
  172SOPE   C2219433   1.818   0.312   7.126  0.3331  0.8698 -0.4278
  172SOPE   H2R19434   1.745   0.251   7.183  0.5348  0.6649 -0.3895
  172SOPE   H2S19435   1.765   0.394   7.073 -0.5220  0.9086  0.4580
  172SOPE    C319436   2.151   0.005   7.028  0.2174 -0.0695  0.2660
  172SOPE    HX19437   2.237   0.061   7.070 -0.9918  1.3636  0.8929
  172SOPE    HY19438   2.189  -0.070   6.956 -0.9724 -0.9203  0.5122
  172SOPE   O3119439   2.086  -0.063   7.145 -0.9198  0.0315  0.5367
  172SOPE   C3119440   2.017  -0.173   7.114 -0.3491 -0.1312  0.1491
  172SOPE   O3219441   2.026  -0.228   7.006 -0.4912 -0.0606 -0.3252
  172SOPE   C3219442   1.943  -0.236   7.241 -0.2320 -0.1773 -0.4939
  172SOPE   H2X19443   1.985  -0.337   7.261 -1.0428 -0.6089 -0.9375
  172SOPE   H2Y19444   1.834  -0.244   7.219 -0.3536 -2.4584  0.7137
  172SOPE   C2319445   1.920   0.366   7.227  0.1820  0.2750  0.2665
  172SOPE   H3R19446   1.992   0.432   7.174 -1.1134 -0.8781 -3.0519
  172SOPE   H3S19447   1.977   0.279   7.267 -2.6667 -2.3353 -1.1749
  172SOPE   C2419448   1.868   0.450   7.346  0.0711 -0.4319  0.6455
  172SOPE   H4R19449   1.808   0.530   7.299 -1.3458 -1.7776  0.1010
  172SOPE   H4S19450   1.797   0.381   7.398  0.0868 -1.8982 -1.2374
  172SOPE   C2519451   1.978   0.497   7.442  0.0004 -0.3789 -0.1517
  172SOPE   H5R19452   2.056   0.421   7.460  1.1966  0.7767 -0.4120
  172SOPE   H5S19453   2.032   0.584   7.400 -1.5176 -0.3808 -2.2138
  172SOPE   C2619454   1.915   0.536   7.576  0.0387  0.1019 -0.7285
  172SOPE   H6R19455   1.837   0.611   7.552  0.5999  1.0468  0.3456
  172SOPE   H6S19456   1.849   0.456   7.615  0.8831 -0.7394 -1.0088
  172SOPE   C2719457   2.006   0.584   7.684  0.3540 -0.1824 -0.4901
  172SOPE   H7R19458   2.066   0.493   7.706 -0.5110 -1.1737 -2.1556
  172SOPE   H7S19459   2.063   0.674   7.653 -1.1778  0.6969 -0.8352
  172SOPE   C2819460   1.943   0.615   7.825 -0.7028  0.0176  0.5929
  172SOPE   H8R19461   1.904   0.524   7.876 -1.1645 -0.7064 -1.0045
  172SOPE   H8S19462   2.028   0.641   7.891 -0.0747  2.1601 -1.0101
  172SOPE   C2919463   1.840   0.726   7.836  0.6678  0.1728  0.3190
  172SOPE   H9119464   1.891   0.823   7.824 -0.5008  1.0653  2.3601
  172SOPE  C21019465   1.706   0.731   7.862 -0.4128 -0.1085 -0.0643
  172SOPE  H10119466   1.663   0.832   7.872  1.9785  0.8749  0.8577
  172SOPE  C21119467   1.621   0.608   7.865 -0.1080  0.4390  0.0510
  172SOPE  H11R19468   1.673   0.535   7.930 -0.6244  0.7380  0.8021
  172SOPE  H11S19469   1.612   0.572   7.760  2.2043 -1.1895  0.3848
  172SOPE  C21219470   1.468   0.622   7.923 -0.3297  0.6432 -0.1536
  172SOPE  H12R19471   1.434   0.517   7.930  0.7771  0.2801 -0.1119
  172SOPE  H12S19472   1.407   0.679   7.850 -0.3966 -0.7124 -1.1683
  172SOPE  C21319473   1.458   0.676   8.060  0.3721  0.5372 -0.7562
  172SOPE  H13R19474   1.351   0.672   8.092  0.9194 -0.9417  0.9751
  172SOPE  H13S19475   1.484   0.783   8.051  1.2919  0.1429 -3.1786
  172SOPE  C21419476   1.551   0.602   8.170 -0.3676 -1.4620  0.0943
  172SOPE  H14R19477   1.653   0.631   8.136 -1.0623  1.0203 -0.0279
  172SOPE  H14S19478   1.539   0.492   8.167 -1.9230 -1.2951 -0.1303
  172SOPE  C21519479   1.556   0.675   8.306 -0.9548 -0.5767  0.8776
  172SOPE  H15R19480   1.585   0.780   8.285  0.1858 -0.4765  2.8407
  172SOPE  H15S19481   1.640   0.623   8.358 -0.9581 -1.6889 -0.2121
  172SOPE  C21619482   1.426   0.653   8.389 -0.5745  0.5581 -0.1628
  172SOPE  H16R19483   1.408   0.544   8.396 -0.2247  0.6106  2.0405
  172SOPE  H16S19484   1.340   0.703   8.339 -1.5169 -0.4304  0.4402
  172SOPE  C21719485   1.440   0.710   8.532  0.2955  0.1670 -0.3498
  172SOPE  H17R19486   1.340   0.714   8.581  1.2081  1.4372  1.4901
  172SOPE  H17S19487   1.469   0.813   8.505  0.8797 -0.8261 -3.6951
  172SOPE  C21819488   1.543   0.647   8.626  0.2007 -0.0503  0.4394
  172SOPE  H18R19489   1.648   0.654   8.592  1.1339 -4.4284  2.0893
  172SOPE  H18S19490   1.525   0.538   8.634 -0.1412 -0.1470 -1.4916
  172SOPE  H18T19491   1.548   0.695   8.726 -0.3206  0.7554  0.0860
  172SOPE   C3319492   1.972  -0.147   7.373 -0.2034 -0.1325  0.0985
  172SOPE   H3X19493   1.931  -0.044   7.366  0.6276  0.1219 -1.1062
  172SOPE   H3Y19494   2.081  -0.142   7.393 -0.0815 -0.0992 -0.5752
  172SOPE   C3419495   1.910  -0.213   7.493  0.4469 -0.4383  0.0231
  172SOPE   H4X19496   1.953  -0.313   7.509  2.4177  0.5277  0.9120
  172SOPE   H4Y19497   1.804  -0.241   7.475  0.7025 -1.5949  0.3279
  172SOPE   C3519498   1.913  -0.126   7.628 -0.2722  0.1748 -0.1665
  172SOPE   H5X19499   1.899  -0.022   7.591  1.7663  0.9512  1.1363
  172SOPE   H5Y19500   2.012  -0.132   7.677 -1.0660 -0.9794  1.3457
  172SOPE   C3619501   1.811  -0.167   7.733 -0.0900 -0.6288  0.6546
  172SOPE   H6X19502   1.811  -0.277   7.750 -1.4483 -1.0690 -2.0082
  172SOPE   H6Y19503   1.707  -0.144   7.703 -0.3263  0.5198  2.3147
  172SOPE   C3719504   1.834  -0.098   7.864 -0.2584 -0.2115  0.1224
  172SOPE   H7X19505   1.823   0.010   7.840 -2.0691  0.0340  1.8610
  172SOPE   H7Y19506   1.936  -0.119   7.903  0.6285  0.3658 -1.8232
  172SOPE   C3819507   1.735  -0.128   7.972  0.0948  0.4919  0.0491
  172SOPE   H8X19508   1.726  -0.236   7.997 -2.2586  0.6367  0.0140
  172SOPE   H8Y19509   1.635  -0.082   7.953  0.6087  0.6659 -2.2469
  172SOPE   C3919510   1.772  -0.069   8.107  0.1085 -0.2555 -0.1753
  172SOPE   H9X19511   1.883  -0.064   8.114  0.2149  1.7888 -2.5180
  172SOPE   H9Y19512   1.741  -0.138   8.189  1.6271 -2.3915 -1.3501
  172SOPE  C31019513   1.712   0.076   8.140  0.3123  0.1663 -0.4902
  172SOPE  H10X19514   1.606   0.082   8.108  0.4182  0.7727 -0.7411
  172SOPE  H10Y19515   1.780   0.147   8.087 -0.5311 -0.2298 -2.1182
  172SOPE  C31119516   1.725   0.098   8.289  0.2212 -0.0087  0.1140
  172SOPE  H11X19517   1.833   0.116   8.308  0.0731  0.2582  0.6937
  172SOPE  H11Y19518   1.687   0.003   8.334 -2.2132  1.8029  1.9896
  172SOPE  C31219519   1.643   0.219   8.341  0.1449  1.0356 -0.1537
  172SOPE  H12X19520   1.536   0.214   8.312  0.4733  1.5109 -1.5198
  172SOPE  H12Y19521   1.682   0.311   8.293  1.6389  1.3173  1.5577
  172SOPE  C31319522   1.649   0.240   8.496  1.2383 -0.3298  0.0404
  172SOPE  H13X19523   1.611   0.343   8.511 -0.9597 -0.8677 -1.5627
  172SOPE  H13Y19524   1.756   0.249   8.524  1.1147  1.2559  0.0501
  172SOPE  C31419525   1.578   0.133   8.572 -0.4072 -0.8236  0.0822
  172SOPE  H14X19526   1.647   0.045   8.571  1.3533  0.5408 -0.8836
  172SOPE  H14Y19527   1.485   0.100   8.521 -0.6266 -0.4500  0.2345
  172SOPE  C31519528   1.526   0.172   8.715 -0.0740 -0.4692  0.2158
  172SOPE  H15X19529   1.482   0.086   8.768  0.5172 -0.5025  0.6525
  172SOPE  H15Y19530   1.446   0.241   8.679 -0.8139 -1.4967 -0.1403
  172SOPE  C31619531   1.639   0.233   8.797  0.2980  0.2892 -0.0676
  172SOPE  H16X19532   1.610   0.272   8.897 -1.1624  2.0859 -1.1689
  172SOPE  H16Y19533   1.663   0.332   8.753 -1.6607  0.4911 -0.7248
  172SOPE  C31719534   1.764   0.155   8.809 -0.5382  0.8092  0.4478
  172SOPE  H17X19535   1.801   0.111   8.713  0.4185  0.1175  1.1251
  172SOPE  H17Y19536   1.738   0.062   8.865 -0.4775 -0.8236 -2.1063
  172SOPE  C31819537   1.880   0.230   8.862 -0.7233 -0.3999  0.2375
  172SOPE  H18X19538   1.901   0.323   8.804 -0.4900 -0.7871 -0.3022
  172SOPE  H18Y19539   1.972   0.169   8.852 -1.2912 -0.6165 -4.7845
  172SOPE  H18Z19540   1.861   0.259   8.968 -1.7878 -0.7268  0.1467
  173SAPI   C1219541   3.201   4.661  10.632 -0.8731  0.1149 -0.2199
  173SAPI    H219542   3.171   4.591  10.551  0.8348  1.7023 -2.2673
  173SAPI    O219543   3.329   4.617  10.683  0.0543  0.1915 -0.2711
  173SAPI   HO219544   3.321   4.533  10.728 -1.4620  0.8399  0.7334
  173SAPI   C1319545   3.198   4.790  10.554 -0.0257  0.3435 -0.2349
  173SAPI    H319546   3.091   4.800  10.525 -0.2309  3.1540  1.2817
  173SAPI    O319547   3.261   4.782  10.431  0.2782  0.1604 -0.2513
  173SAPI   HO319548   3.344   4.734  10.437 -1.3118 -2.5313  1.1904
  173SAPI   C1419549   3.244   4.912  10.638  0.1631 -0.5483  0.3128
  173SAPI    H419550   3.351   4.892  10.659  0.0016 -1.8450 -0.0286
  173SAPI    O419551   3.245   5.035  10.556 -0.0118 -0.2034 -0.0802
  173SAPI   HO419552   3.333   5.050  10.519 -0.9142  2.1034 -1.3315
  173SAPI   C1519553   3.157   4.925  10.759 -0.0329  0.2667 -0.0496
  173SAPI    H519554   3.054   4.958  10.733  0.0624  1.3739  0.9493
  173SAPI    O519555   3.213   5.029  10.849  0.5311  0.2142  0.6682
  173SAPI   HO519556   3.138   5.076  10.887  0.4030 -0.0139  0.6960
  173SAPI   C1619557   3.149   4.796  10.835 -0.5147  0.1252 -0.2453
  173SAPI    H619558   3.242   4.764  10.886 -0.3730 -0.7583 -1.0508
  173SAPI    O619559   3.059   4.807  10.941 -0.3295 -0.4348  0.2444
  173SAPI   HO619560   3.045   4.718  10.975 -0.5338 -0.0511  1.1749
  173SAPI   C1119561   3.102   4.682  10.742  0.1454 -0.0775 -0.2310
  173SAPI    H119562   3.006   4.717  10.699  0.0973 -0.5102 -0.4889
  173SAPI     P19563   2.953   4.470  10.798  0.1602 -0.0661  0.1662
  173SAPI   O1319564   2.838   4.556  10.830 -0.1247  0.3187  0.0454
  173SAPI   O1419565   2.965   4.343  10.874 -0.0206  0.2828 -0.8982
  173SAPI   O1219566   3.086   4.565  10.816 -0.0222  0.1964 -0.7516
  173SAPI   O1119567   2.947   4.442  10.641 -0.1418 -0.5945 -0.3222
  173SAPI    C119568   3.038   4.350  10.581 -0.0256  0.3950 -0.2429
  173SAPI    HA19569   3.140   4.392  10.566 -0.0620  0.0313 -1.6141
  173SAPI    HB19570   3.053   4.262  10.646 -1.8270  1.5843  1.8303
  173SAPI    C219571   2.980   4.285  10.454  0.2469 -0.3677 -0.1442
  173SAPI    HS19572   3.048   4.210  10.407 -0.6997 -0.7162 -0.9943
  173SAPI   O2119573   2.947   4.380  10.355 -0.5123 -0.7641  0.1464
  173SAPI   C2119574   3.054   4.436  10.301 -0.0447  0.2741 -1.2564
  173SAPI   O2219575   3.169   4.413  10.327  0.3447  0.0831 -0.2462
  173SAPI   C2219576   3.015   4.551  10.210 -0.1146 -0.1249 -0.6303
  173SAPI   H2R19577   2.905   4.570  10.202 -0.5088 -0.2512  3.6351
  173SAPI   H2S19578   3.055   4.640  10.263 -3.8780  0.4396  1.4254
  173SAPI    C319579   2.858   4.208  10.500 -0.4769 -0.2783  0.9467
  173SAPI    HX19580   2.769   4.272  10.517 -0.6207  0.1920 -1.4190
  173SAPI    HY19581   2.875   4.156  10.597  1.1688  0.4792  1.0782
  173SAPI   O3119582   2.821   4.104  10.405 -0.0985 -0.0128 -0.4285
  173SAPI   C3119583   2.742   4.137  10.307 -0.2158  0.9569 -0.1121
  173SAPI   O3219584   2.699   4.247  10.276  0.3902  0.2663  0.5440
  173SAPI   C3219585   2.698   4.005  10.236  0.3277  0.3277 -0.4298
  173SAPI   H2X19586   2.623   3.959  10.305 -1.6346  0.3868 -2.4637
  173SAPI   H2Y19587   2.785   3.944  10.205 -0.8379 -0.7719 -1.5896
  173SAPI   C2319588   3.079   4.544  10.069  0.1327  0.2288 -0.0100
  173SAPI   H3R19589   3.190   4.536  10.074  0.0333 -1.1825  0.0648
  173SAPI   H3S19590   3.051   4.639  10.018  1.2627  2.4071  3.2644
  173SAPI   C2419591   3.020   4.434   9.971  0.6200  0.5047 -0.3651
  173SAPI   H4R19592   3.031   4.337  10.023  1.8694  0.0672 -1.4181
  173SAPI   H4S19593   3.085   4.433   9.881 -0.5244  1.9476 -1.2289
  173SAPI   C2519594   2.876   4.454   9.938  0.7064 -0.2220  0.3406
  173SAPI   H5R19595   2.795   4.440  10.012  0.9199 -0.6707  0.4917
  173SAPI   C2619596   2.824   4.509   9.827 -0.4684 -0.2541  0.4894
  173SAPI   H6R19597   2.715   4.509   9.818 -0.4536 -2.4578  0.0565
  173SAPI   C2719598   2.893   4.563   9.708 -0.1766  0.0662  0.5786
  173SAPI   H7R19599   2.964   4.637   9.751  2.0323 -2.3751  1.2401
  173SAPI   H7S19600   2.815   4.618   9.651  0.1772 -1.3999 -1.3889
  173SAPI   C2819601   2.956   4.458   9.618 -0.0186 -0.0180 -0.0238
  173SAPI   H8R19602   3.001   4.371   9.670  2.4021  1.1799 -0.0709
  173SAPI   C2919603   2.968   4.460   9.478  0.6107 -0.2535 -0.4179
  173SAPI   H9R19604   3.016   4.376   9.426  2.5160  0.3304  0.3737
  173SAPI  C21019605   2.927   4.570   9.392 -0.0796 -0.6686 -0.0821
  173SAPI  H10R19606   2.981   4.567   9.294  0.3397  0.0301  0.1187
  173SAPI  H10S19607   2.974   4.660   9.436 -1.2302 -0.3491  0.4966
  173SAPI  C21119608   2.778   4.598   9.371  0.1586 -0.6626  0.3431
  173SAPI  H11R19609   2.715   4.592   9.461 -0.0356 -1.8756  0.1386
  173SAPI  C21219610   2.713   4.631   9.249  0.1188  0.8487 -0.0423
  173SAPI  H12R19611   2.605   4.652   9.255  0.4506  2.9444 -0.8964
  173SAPI  C21319612   2.775   4.641   9.114 -0.4685 -0.7039  0.2327
  173SAPI  H13R19613   2.743   4.552   9.055 -0.3433 -0.6568  0.0965
  173SAPI  H13S19614   2.885   4.635   9.124 -0.6319 -1.9196  1.4774
  173SAPI  C21419615   2.744   4.772   9.038  0.3050  0.2338 -0.1465
  173SAPI  H14R19616   2.723   4.869   9.084  1.3291  0.3757  0.0310
  173SAPI  C21519617   2.762   4.774   8.899  0.6480  0.0536 -0.3897
  173SAPI  H15R19618   2.746   4.866   8.842  1.7771 -1.0636 -2.5862
  173SAPI  C21619619   2.812   4.659   8.814  0.2310 -0.3401  0.6089
  173SAPI  H16R19620   2.768   4.656   8.712 -1.2254 -2.7551  1.2637
  173SAPI  H16S19621   2.780   4.556   8.840  1.6968 -1.2648 -1.0964
  173SAPI  C21719622   2.966   4.673   8.805  0.3221 -0.1546 -0.4069
  173SAPI  H17R19623   2.996   4.665   8.911  2.4584  0.3886 -0.9614
  173SAPI  H17S19624   2.994   4.770   8.758 -0.9756 -0.5859 -2.1547
  173SAPI  C21819625   3.036   4.561   8.724 -0.1885  0.5954 -0.1538
  173SAPI  H18R19626   2.985   4.467   8.753 -0.7171  0.4783 -1.4494
  173SAPI  H18S19627   3.146   4.556   8.740 -0.2542  0.9134  0.4128
  173SAPI  C21919628   3.009   4.580   8.572  1.0580  0.3944  0.0166
  173SAPI  H19R19629   3.016   4.688   8.545  1.2173  0.0946 -1.1689
  173SAPI  H19S19630   2.912   4.538   8.540  1.4346 -0.8620  0.5112
  173SAPI  C22019631   3.117   4.508   8.488  0.3744  0.1692  0.7513
  173SAPI  H20R19632   3.219   4.536   8.522 -0.2591  2.5598  0.7669
  173SAPI  H20S19633   3.114   4.521   8.377 -1.0520 -1.6088  0.5549
  173SAPI  H20T19634   3.108   4.401   8.516  2.2981 -0.3022 -0.3556
  173SAPI   C3319635   2.607   4.029  10.116 -0.1955 -0.6322  0.6232
  173SAPI   H3X19636   2.538   4.110  10.149 -1.5758 -1.6999  0.3941
  173SAPI   H3Y19637   2.534   3.950  10.090  0.2747 -0.6062 -0.8457
  173SAPI   C3419638   2.681   4.091   9.999  0.6459 -0.1335 -0.0750
  173SAPI   H4X19639   2.784   4.050   9.997  0.3680 -0.8485  0.1488
  173SAPI   H4Y19640   2.677   4.201  10.012 -0.3134 -0.3953  2.0389
  173SAPI   C3519641   2.630   4.066   9.853 -0.0395 -0.1711  0.1235
  173SAPI   H5X19642   2.533   4.120   9.846  0.4521  0.5438 -1.2784
  173SAPI   H5Y19643   2.617   3.961   9.820  1.0984 -0.4155  0.4346
  173SAPI   C3619644   2.725   4.125   9.747 -0.9842 -0.2346  0.3587
  173SAPI   H6X19645   2.830   4.110   9.778 -0.8687  0.8063  0.4780
  173SAPI   H6Y19646   2.701   4.233   9.743  0.2766  0.0314 -0.1017
  173SAPI   C3719647   2.684   4.069   9.611 -0.6510 -0.1764  1.0542
  173SAPI   H7X19648   2.584   4.107   9.582  0.1865  0.5707 -0.9465
  173SAPI   H7Y19649   2.677   3.958   9.621 -0.4456 -0.5005 -1.8656
  173SAPI   C3819650   2.781   4.096   9.500 -0.2108 -0.2986 -0.0629
  173SAPI   H8X19651   2.877   4.108   9.554  0.1741 -0.7684 -0.6244
  173SAPI   H8Y19652   2.766   4.190   9.443  1.4945 -1.3694 -2.3930
  173SAPI   C3919653   2.787   3.977   9.402  0.4196  0.4620  0.1812
  173SAPI   H9X19654   2.691   3.958   9.349 -0.7403  1.3265  1.9308
  173SAPI   H9Y19655   2.795   3.884   9.462 -2.1584  0.3032  0.3361
  173SAPI  C31019656   2.915   3.983   9.312  0.4346  0.6123  0.6326
  173SAPI  H10X19657   2.903   3.910   9.229  1.3439  1.4572 -0.2580
  173SAPI  H10Y19658   3.001   3.941   9.370  0.3245 -1.0015 -0.3431
  173SAPI  C31119659   2.957   4.122   9.264 -0.4111 -0.4774 -0.0359
  173SAPI  H11X19660   3.065   4.104   9.244 -1.3380 -3.5558 -2.7269
  173SAPI  H11Y19661   2.975   4.198   9.343 -0.4206  0.2570 -0.7253
  173SAPI  C31219662   2.891   4.180   9.140 -0.3788 -0.8373  0.3234
  173SAPI  H12X19663   2.782   4.167   9.159 -0.7600  1.9155  0.1290
  173SAPI  H12Y19664   2.919   4.110   9.058 -2.0635 -2.4753  1.1061
  173SAPI  C31319665   2.934   4.322   9.101 -0.0292  0.4104  0.2021
  173SAPI  H13X19666   2.898   4.376   9.190 -1.2064  1.0221 -0.6305
  173SAPI  H13Y19667   2.878   4.347   9.008 -0.2388 -0.9292 -0.0581
  173SAPI  C31419668   3.085   4.352   9.089 -0.0019  0.5352 -0.1066
  173SAPI  H14X19669   3.134   4.324   9.185 -2.3194  1.4777  1.3979
  173SAPI  H14Y19670   3.099   4.462   9.094  0.6388  0.4921 -0.9083
  173SAPI  C31519671   3.157   4.297   8.970  0.3035  0.2724  0.0912
  173SAPI  H15X19672   3.098   4.326   8.880 -1.9931 -1.4560  1.0187
  173SAPI  H15Y19673   3.147   4.188   8.986 -0.4252 -0.0217 -2.2201
  173SAPI  C31619674   3.294   4.349   8.960 -1.0537  0.6355  0.2632
  173SAPI  H16X19675   3.349   4.309   9.048 -0.7367 -0.8388 -0.5887
  173SAPI  H16Y19676   3.297   4.460   8.959 -0.6086  0.6205 -0.6598
  173SAPI  C31719677   3.356   4.305   8.818 -0.9582 -0.3587 -0.2881
  173SAPI  H17X19678   3.300   4.361   8.740  0.8540 -0.4657 -1.6866
  173SAPI  H17Y19679   3.345   4.196   8.796  1.9480 -0.8771  0.6900
  173SAPI  C31819680   3.507   4.346   8.813  0.8061  0.3353  0.0837
  173SAPI  H18X19681   3.516   4.451   8.849  1.7930 -0.3046  1.7984
  173SAPI  H18Y19682   3.541   4.325   8.710  0.3785  0.3798 -0.0684
  173SAPI  H18Z19683   3.558   4.277   8.884 -0.2235  0.3877  0.9015
  174SAPI   C1219684   0.311   5.914  10.829 -0.0779  0.0645 -0.2756
  174SAPI    H219685   0.370   5.825  10.857  0.5554 -1.2995 -5.4592
  174SAPI    O219686   0.195   5.924  10.912  0.1142  0.2070 -0.4418
  174SAPI   HO219687   0.142   5.850  10.884  0.6295 -0.2923 -0.1005
  174SAPI   C1319688   0.407   6.034  10.842  0.4911 -0.0321  0.6960
  174SAPI    H319689   0.496   6.023  10.776 -0.1800 -0.9469 -0.0871
  174SAPI    O319690   0.459   6.048  10.978  0.1226 -0.4410  0.7902
  174SAPI   HO319691   0.517   5.973  10.987 -1.5445 -2.1768 -2.0874
  174SAPI   C1419692   0.339   6.163  10.792 -0.1645  0.3482  0.3657
  174SAPI    H419693   0.250   6.190  10.853 -0.8375 -0.2858 -0.3123
  174SAPI    O419694   0.429   6.273  10.787  0.3631 -0.2038 -0.5348
  174SAPI   HO419695   0.383   6.349  10.823  3.2649  1.0804  0.6514
  174SAPI   C1519696   0.282   6.155  10.652  1.2138  0.2269  0.4824
  174SAPI    H519697   0.370   6.148  10.584  0.6302  1.8182 -0.4596
  174SAPI    O519698   0.215   6.276  10.612 -0.1075 -0.3223  0.1269
  174SAPI   HO519699   0.267   6.308  10.538 -0.1214 -0.1235  0.2011
  174SAPI   C1619700   0.197   6.025  10.641 -0.0215 -0.3115  0.2263
  174SAPI    H619701   0.109   6.042  10.707 -0.9228  1.1098 -1.3023
  174SAPI    O619702   0.138   6.007  10.516  0.1055  0.2552  0.3287
  174SAPI   HO619703   0.087   5.926  10.522  0.0838  0.3598  1.6178
  174SAPI   C1119704   0.276   5.906  10.683  0.3872  0.3807 -0.0707
  174SAPI    H119705   0.362   5.904  10.613 -1.0129  2.6148 -1.9400
  174SAPI     P19706   0.264   5.636  10.651 -0.2773  0.0059 -0.0307
  174SAPI   O1319707   0.187   5.536  10.727  0.2601  0.1775 -0.5955
  174SAPI   O1419708   0.411   5.645  10.677 -0.2867  0.4663  0.5302
  174SAPI   O1219709   0.198   5.785  10.670 -0.5617 -0.2551  0.2056
  174SAPI   O1119710   0.237   5.611  10.498 -0.2808 -0.1566 -0.3948
  174SAPI    C119711   0.102   5.608  10.451 -1.1748  0.1755 -0.1274
  174SAPI    HA19712   0.025   5.622  10.530 -2.5431 -1.7420 -1.0798
  174SAPI    HB19713   0.087   5.688  10.375 -1.4317 -0.3371 -0.6184
  174SAPI    C219714   0.064   5.468  10.384 -0.3938  0.2192 -0.5690
  174SAPI    HS19715   0.076   5.404  10.474  0.5259 -0.0241 -0.8615
  174SAPI   O2119716   0.169   5.433  10.283  0.3248 -0.0284  0.3523
  174SAPI   C2119717   0.183   5.308  10.281  0.1592  0.6995  0.1904
  174SAPI   O2219718   0.116   5.222  10.339  0.1580  0.0096  0.1292
  174SAPI   C2219719   0.280   5.280  10.164 -0.9531  0.2229  0.1979
  174SAPI   H2R19720   0.253   5.347  10.080 -0.6566 -2.9294 -2.5074
  174SAPI   H2S19721   0.383   5.298  10.200 -0.8749 -0.9151  0.5723
  174SAPI    C319722  -0.072   5.458  10.316  0.1097 -0.3094  0.8861
  174SAPI    HX19723  -0.148   5.506  10.382  0.1672  0.7676  0.1704
  174SAPI    HY19724  -0.090   5.348  10.311 -1.1298 -0.1671  1.9326
  174SAPI   O3119725  -0.074   5.516  10.182 -0.2412  0.1967  0.2229
  174SAPI   C3119726  -0.144   5.453  10.092  0.0874  0.0196 -0.7801
  174SAPI   O3219727  -0.215   5.357  10.115 -0.0359 -0.3676  0.0471
  174SAPI   C3219728  -0.117   5.513   9.950 -0.2701  0.3528 -1.0438
  174SAPI   H2X19729  -0.142   5.621   9.947 -0.7515  0.3023  0.4578
  174SAPI   H2Y19730  -0.182   5.457   9.880 -0.4590 -0.9303  0.1217
  174SAPI   C2319731   0.276   5.125  10.118 -0.2273  0.2123  0.2863
  174SAPI   H3R19732   0.303   5.063  10.205 -3.2281 -0.0598  1.0850
  174SAPI   H3S19733   0.357   5.111  10.043 -0.5446 -1.1065  0.1725
  174SAPI   C2419734   0.143   5.069  10.058 -0.2127  0.2385  0.7190
  174SAPI   H4R19735   0.104   5.135   9.977  2.4461  0.9718 -0.0066
  174SAPI   H4S19736   0.072   5.073  10.143  2.4197 -2.0890  3.1268
  174SAPI   C2519737   0.147   4.928  10.018 -0.4830 -0.0575 -0.2157
  174SAPI   H5R19738   0.177   4.850  10.089 -0.2503  0.4035  0.1964
  174SAPI   C2619739   0.126   4.872   9.897  0.7530  0.5765 -0.1482
  174SAPI   H6R19740   0.141   4.764   9.883  1.7740  1.1573 -3.9787
  174SAPI   C2719741   0.107   4.944   9.771  0.1130  0.6280  0.3779
  174SAPI   H7R19742   0.033   5.026   9.781  1.0501  1.8301 -1.9555
  174SAPI   H7S19743   0.059   4.882   9.692  1.7724  1.5298 -1.3996
  174SAPI   C2819744   0.224   5.006   9.698  0.1341 -0.6265  0.2192
  174SAPI   H8R19745   0.282   5.074   9.763  2.8465  0.0231 -2.7413
  174SAPI   C2919746   0.257   4.988   9.568  0.3246 -0.4801 -0.0112
  174SAPI   H9R19747   0.342   5.044   9.529  0.9490  0.9589  3.2160
  174SAPI  C21019748   0.173   4.910   9.465  0.4167 -0.0257 -0.9075
  174SAPI  H10R19749   0.064   4.933   9.463  0.5511  0.7645  0.4179
  174SAPI  H10S19750   0.184   4.807   9.503  0.1282  0.1015 -0.4784
  174SAPI  C21119751   0.222   4.899   9.327  0.1552  0.0644  0.1678
  174SAPI  H11R19752   0.275   4.805   9.309  1.5159  0.3469  2.5949
  174SAPI  C21219753   0.220   4.992   9.230 -0.0920 -0.5152 -0.2011
  174SAPI  H12R19754   0.264   4.966   9.132 -0.3779 -0.3670 -0.3709
  174SAPI  C21319755   0.151   5.135   9.241  0.1375 -0.3497  0.0103
  174SAPI  H13R19756   0.226   5.216   9.256  1.2878 -0.5243 -4.0471
  174SAPI  H13S19757   0.085   5.135   9.330  1.4812  0.7542  1.0425
  174SAPI  C21419758   0.060   5.154   9.126 -1.1361  0.5014  0.0471
  174SAPI  H14R19759  -0.030   5.092   9.140 -0.7913 -0.4920 -2.0164
  174SAPI  C21519760   0.080   5.219   9.009 -0.2114  0.2477 -0.0950
  174SAPI  H15R19761  -0.007   5.235   8.944 -1.2591  1.1599  1.4887
  174SAPI  C21619762   0.198   5.302   8.971  0.0489 -0.3656 -0.0933
  174SAPI  H16R19763   0.279   5.237   8.932  2.0119  1.3233  1.1175
  174SAPI  H16S19764   0.239   5.360   9.057 -0.8128 -0.9259  0.7097
  174SAPI  C21719765   0.151   5.389   8.858  0.0496  0.5774 -0.3546
  174SAPI  H17R19766   0.224   5.470   8.837  0.5793 -0.3045 -2.0235
  174SAPI  H17S19767   0.060   5.449   8.881 -0.0042  0.8249 -1.1777
  174SAPI  C21819768   0.124   5.309   8.730  0.0964 -0.1339  0.2433
  174SAPI  H18R19769   0.019   5.311   8.693  0.2695 -0.0648 -0.2467
  174SAPI  H18S19770   0.162   5.205   8.739  2.6162  0.8232  1.0560
  174SAPI  C21919771   0.196   5.367   8.601 -0.4947 -0.3213  0.0535
  174SAPI  H19R19772   0.155   5.467   8.576  1.6281 -0.2940 -3.7384
  174SAPI  H19S19773   0.164   5.304   8.515 -1.0837  1.4867 -1.0697
  174SAPI  C22019774   0.349   5.360   8.611  0.2212  0.3462 -0.4796
  174SAPI  H20R19775   0.385   5.419   8.524  2.6326 -0.7858 -0.2699
  174SAPI  H20S19776   0.386   5.256   8.605 -1.4573 -0.3479  0.6664
  174SAPI  H20T19777   0.402   5.414   8.692 -1.1821  1.3394 -0.2064
  174SAPI   C3319778   0.027   5.488   9.904  0.0555  0.1491 -0.2044
  174SAPI   H3X19779   0.030   5.383   9.870 -1.7567  0.0373 -0.1056
  174SAPI   H3Y19780   0.103   5.503   9.983 -0.3818  0.7378  0.1139
  174SAPI   C3419781   0.065   5.585   9.791 -0.5757 -0.0159  0.4166
  174SAPI   H4X19782   0.102   5.680   9.835 -3.2858  0.9212  0.7253
  174SAPI   H4Y19783  -0.023   5.587   9.725 -0.5240 -0.1255  0.3422
  174SAPI   C3519784   0.177   5.526   9.697 -0.3479  0.1505  0.1736
  174SAPI   H5X19785   0.170   5.416   9.698  0.1299  0.0601 -2.5873
  174SAPI   H5Y19786   0.279   5.552   9.735  0.0999  0.9728 -1.5222
  174SAPI   C3619787   0.155   5.570   9.554  0.1295  0.0124  0.2619
  174SAPI   H6X19788   0.180   5.678   9.557 -0.4528  0.3064 -3.1370
  174SAPI   H6Y19789   0.053   5.558   9.512  0.5242  2.9516 -1.6970
  174SAPI   C3719790   0.252   5.502   9.458 -0.2430 -0.2365  0.1887
  174SAPI   H7X19791   0.265   5.393   9.478 -1.5900  0.0746  2.9848
  174SAPI   H7Y19792   0.354   5.546   9.465  0.0569 -0.7399 -0.8309
  174SAPI   C3819793   0.203   5.519   9.317 -0.3776 -0.3805 -0.3055
  174SAPI   H8X19794   0.106   5.464   9.309 -1.7111  1.9882 -1.0593
  174SAPI   H8Y19795   0.282   5.485   9.247 -0.5101  1.0425 -1.1677
  174SAPI   C3919796   0.177   5.663   9.280  0.9203 -0.0623 -0.1563
  174SAPI   H9X19797   0.273   5.717   9.265  0.2902  0.9446 -0.6220
  174SAPI   H9Y19798   0.110   5.717   9.351  2.3126  1.1442  0.2659
  174SAPI  C31019799   0.091   5.666   9.145 -1.0387 -0.8642  0.6130
  174SAPI  H10X19800   0.007   5.597   9.168 -1.5750  0.0297  1.3698
  174SAPI  H10Y19801   0.146   5.622   9.059 -0.2401  2.5268 -0.6953
  174SAPI  C31119802   0.037   5.803   9.118 -0.5767  0.5615  0.2223
  174SAPI  H11X19803   0.108   5.854   9.049 -1.3445  1.5307  0.1354
  174SAPI  H11Y19804   0.030   5.844   9.221 -0.2258  0.8481  0.1322
  174SAPI  C31219805  -0.101   5.816   9.053  0.4232  0.4830 -1.0050
  174SAPI  H12X19806  -0.138   5.921   9.063 -1.9073 -0.3199 -0.8590
  174SAPI  H12Y19807  -0.169   5.744   9.104 -1.0830  2.2299 -0.4731
  174SAPI  C31319808  -0.084   5.771   8.911  1.0520 -0.0036 -0.5225
  174SAPI  H13X19809  -0.057   5.663   8.916 -1.1133 -0.6901 -2.5734
  174SAPI  H13Y19810   0.002   5.823   8.863  1.2774 -1.2279 -1.4788
  174SAPI  C31419811  -0.211   5.778   8.814 -0.0741 -0.1818 -0.5843
  174SAPI  H14X19812  -0.229   5.887   8.803  2.1169  0.4597  1.6853
  174SAPI  H14Y19813  -0.299   5.727   8.857 -1.0523  2.8182  1.0989
  174SAPI  C31519814  -0.185   5.719   8.672 -0.7005  0.7652 -0.6470
  174SAPI  H15X19815  -0.276   5.704   8.610 -0.7776  1.4429 -0.6957
  174SAPI  H15Y19816  -0.138   5.618   8.676 -0.9445  0.7096  1.0136
  174SAPI  C31619817  -0.085   5.810   8.595  0.5825 -0.6169  0.4414
  174SAPI  H16X19818  -0.039   5.877   8.671  1.1152 -2.1792  1.5075
  174SAPI  H16Y19819  -0.137   5.883   8.529  3.7888  1.7621  0.4421
  174SAPI  C31719820   0.018   5.738   8.502 -0.5584 -0.8025  0.3053
  174SAPI  H17X19821   0.089   5.695   8.576  1.0492  1.7113  0.2656
  174SAPI  H17Y19822   0.077   5.810   8.442 -0.0046 -0.3711  1.3588
  174SAPI  C31819823  -0.033   5.634   8.402  0.0678  0.7658  0.8420
  174SAPI  H18X19824  -0.095   5.675   8.319  2.1458  0.3008 -0.9864
  174SAPI  H18Y19825  -0.093   5.553   8.448  1.2704 -0.1836  0.7387
  174SAPI  H18Z19826   0.058   5.582   8.366  0.0103  0.1881  1.5115
  175SAPI   C1219827   2.044   4.366   5.978 -0.0176 -0.2321 -0.4440
  175SAPI    H219828   2.123   4.289   5.989  0.0082 -0.0924  0.4058
  175SAPI    O219829   2.079   4.481   6.054 -0.4008 -0.1056  0.1301
  175SAPI   HO219830   2.096   4.455   6.145 -2.0031 -0.1407  0.4191
  175SAPI   C1319831   2.051   4.398   5.833 -0.2868  0.4935 -0.0644
  175SAPI    H319832   2.043   4.295   5.792  0.5472  0.5160 -0.2776
  175SAPI    O319833   2.185   4.453   5.800 -0.2777  0.8113 -0.5643
  175SAPI   HO319834   2.219   4.488   5.882  2.5276  0.1690 -1.4231
  175SAPI   C1419835   1.947   4.499   5.800  0.8319 -0.5656 -0.4979
  175SAPI    H419836   1.962   4.597   5.850 -3.2328  0.8933 -1.8874
  175SAPI    O419837   1.944   4.534   5.663  0.3801 -0.0193  0.3341
  175SAPI   HO419838   2.035   4.524   5.635  1.2574 -0.1745  3.1376
  175SAPI   C1519839   1.814   4.450   5.854 -1.5490  1.1999  0.6386
  175SAPI    H519840   1.802   4.358   5.794  0.6944  2.0531 -1.2238
  175SAPI    O519841   1.706   4.541   5.809  0.4515 -0.4259 -0.3461
  175SAPI   HO519842   1.695   4.605   5.880 -0.4526 -0.2388 -0.6515
  175SAPI   C1619843   1.814   4.411   6.000 -0.4891  0.0305 -0.5455
  175SAPI    H619844   1.821   4.500   6.066 -2.3896 -0.5597  0.4992
  175SAPI    O619845   1.686   4.355   6.038 -0.1402 -0.4160  0.2690
  175SAPI   HO619846   1.715   4.273   6.079 -1.6138 -2.0637 -1.8843
  175SAPI   C1119847   1.918   4.308   6.024  0.5817 -0.5051  0.3090
  175SAPI    H119848   1.889   4.222   5.960 -1.4311  1.5377 -1.6245
  175SAPI     P19849   1.994   4.131   6.203  0.2336 -0.1176 -0.0441
  175SAPI   O1319850   2.104   4.149   6.301  1.2384 -0.7225 -0.2908
  175SAPI   O1419851   2.034   4.062   6.080 -0.1820 -0.0146 -0.3048
  175SAPI   O1219852   1.924   4.274   6.163 -0.6723 -0.3259 -0.0020
  175SAPI   O1119853   1.887   4.039   6.280 -0.1274  0.4962  0.3093
  175SAPI    C119854   1.818   4.110   6.386  0.1921 -0.1409 -0.2262
  175SAPI    HA19855   1.829   4.220   6.389 -2.0623  0.1167 -0.5157
  175SAPI    HB19856   1.710   4.089   6.371  0.3849 -0.5198 -1.1080
  175SAPI    C219857   1.859   4.063   6.534 -0.1834 -0.3182 -0.6082
  175SAPI    HS19858   1.779   4.111   6.595  0.5811 -0.8773  0.8556
  175SAPI   O2119859   1.990   4.111   6.582 -0.0688 -0.3044  0.2609
  175SAPI   C2119860   2.025   4.236   6.589 -0.4390 -0.7136 -0.1685
  175SAPI   O2219861   1.947   4.330   6.575 -0.4854 -0.3075 -0.0491
  175SAPI   C2219862   2.168   4.258   6.634 -0.3599 -0.4031 -0.0507
  175SAPI   H2R19863   2.231   4.235   6.546  0.0280  0.7420 -0.0763
  175SAPI   H2S19864   2.168   4.366   6.663 -3.3937  0.3295 -2.5140
  175SAPI    C319865   1.859   3.916   6.561 -0.0074 -0.4455  0.3631
  175SAPI    HX19866   1.888   3.850   6.476 -1.1025 -1.3553  0.6685
  175SAPI    HY19867   1.754   3.879   6.565  0.2023 -1.0396  0.5076
  175SAPI   O3119868   1.918   3.870   6.687  0.3620  0.8177 -0.0650
  175SAPI   C3119869   2.046   3.825   6.672 -0.3849  0.5966  0.2294
  175SAPI   O3219870   2.110   3.823   6.571 -0.4437 -0.4266  0.0061
  175SAPI   C3219871   2.089   3.778   6.809  0.4176 -0.3284  0.9282
  175SAPI   H2X19872   2.029   3.687   6.830 -2.0478  0.9377 -0.3837
  175SAPI   H2Y19873   2.060   3.861   6.876 -0.4447  2.0103 -2.1899
  175SAPI   C2319874   2.220   4.161   6.748 -0.4510  0.5010  0.1083
  175SAPI   H3R19875   2.330   4.168   6.762 -0.1495 -0.0201 -1.8408
  175SAPI   H3S19876   2.188   4.058   6.723  1.0675  0.1479 -0.4474
  175SAPI   C2419877   2.144   4.195   6.878 -0.4022 -0.3719 -0.2940
  175SAPI   H4R19878   2.155   4.106   6.945  1.7070 -0.6062 -0.9341
  175SAPI   H4S19879   2.037   4.225   6.874 -0.7118 -1.5057 -0.6795
  175SAPI   C2519880   2.202   4.329   6.930  0.4694  0.1791  0.0353
  175SAPI   H5R19881   2.217   4.414   6.863 -3.1037 -0.5968 -1.8592
  175SAPI   C2619882   2.217   4.358   7.060 -0.6553  0.4680 -0.2570
  175SAPI   H6R19883   2.270   4.449   7.090  0.7775  0.8077 -3.5115
  175SAPI   C2719884   2.185   4.253   7.167 -0.0673 -0.6704 -0.4980
  175SAPI   H7R19885   2.121   4.170   7.130 -1.0916  0.0271 -0.3307
  175SAPI   H7S19886   2.120   4.306   7.240  0.4053  0.8368 -1.1538
  175SAPI   C2819887   2.315   4.202   7.214  0.3731  1.0400 -0.0251
  175SAPI   H8R19888   2.383   4.164   7.136 -0.2889 -1.4930  0.5855
  175SAPI   C2919889   2.342   4.182   7.347  0.4561 -0.3441 -0.5924
  175SAPI   H9R19890   2.437   4.134   7.376 -0.3470 -2.0764 -0.7840
  175SAPI  C21019891   2.258   4.227   7.466 -0.8895  0.2565 -0.1184
  175SAPI  H10R19892   2.227   4.130   7.512  0.6649 -1.9061 -3.4163
  175SAPI  H10S19893   2.164   4.283   7.446 -0.5196  0.0315 -2.6786
  175SAPI  C21119894   2.339   4.310   7.568 -0.0438 -0.4114  0.0120
  175SAPI  H11R19895   2.363   4.402   7.512 -2.4010  0.9532  1.1534
  175SAPI  C21219896   2.381   4.294   7.695 -0.0631 -0.5555 -0.5719
  175SAPI  H12R19897   2.434   4.378   7.743 -0.4380  0.2691 -1.5930
  175SAPI  C21319898   2.359   4.167   7.767 -1.0188 -0.0535  0.7858
  175SAPI  H13R19899   2.457   4.117   7.770 -2.1537 -2.2847  1.4018
  175SAPI  H13S19900   2.297   4.098   7.707  1.9291 -1.0747 -1.1931
  175SAPI  C21419901   2.298   4.192   7.899  0.3938  0.7065  0.3743
  175SAPI  H14R19902   2.196   4.234   7.894 -0.0129 -0.3072 -0.0073
  175SAPI  C21519903   2.340   4.146   8.016  0.5468  0.3985 -0.2569
  175SAPI  H15R19904   2.285   4.186   8.103  0.1612 -1.7699  0.5346
  175SAPI  C21619905   2.469   4.069   8.050  0.0112  0.5174 -0.1625
  175SAPI  H16R19906   2.562   4.118   8.014  1.9004 -2.9076 -0.2009
  175SAPI  H16S19907   2.461   3.971   7.999  0.7769 -1.4126  3.2477
  175SAPI  C21719908   2.494   4.017   8.205  0.3565 -0.3895  0.0280
  175SAPI  H17R19909   2.396   3.965   8.215  0.9891 -1.3254  1.4904
  175SAPI  H17S19910   2.507   4.104   8.273 -2.4128  1.9289 -2.2583
  175SAPI  C21819911   2.606   3.912   8.230  0.1809  0.3020 -0.3911
  175SAPI  H18R19912   2.701   3.959   8.196  0.2215  1.0365  0.7462
  175SAPI  H18S19913   2.582   3.816   8.178 -1.2701 -1.0368  2.6128
  175SAPI  C21919914   2.632   3.882   8.373  0.9808  0.0573 -0.5664
  175SAPI  H19R19915   2.655   3.773   8.373 -0.5896 -0.3173  1.5502
  175SAPI  H19S19916   2.536   3.897   8.427  0.4814 -1.0719 -1.1246
  175SAPI  C22019917   2.743   3.965   8.441 -0.1436  0.2162 -1.1102
  175SAPI  H20R19918   2.846   3.955   8.400  1.2740 -1.1372  2.5885
  175SAPI  H20S19919   2.736   3.944   8.550 -2.8976 -0.6728 -1.4085
  175SAPI  H20T19920   2.700   4.067   8.434  0.5394  0.5531 -0.2960
  175SAPI   C3319921   2.241   3.739   6.825  0.0207 -0.3656 -0.5831
  175SAPI   H3X19922   2.305   3.809   6.767  3.1380 -1.6066  1.2171
  175SAPI   H3Y19923   2.259   3.635   6.790 -0.9656 -1.5838  2.3606
  175SAPI   C3419924   2.281   3.757   6.978  0.0530 -0.3910 -0.6843
  175SAPI   H4X19925   2.275   3.865   7.003  2.1952 -0.2976 -0.4715
  175SAPI   H4Y19926   2.389   3.732   6.981  0.3163  0.8191  0.3674
  175SAPI   C3519927   2.204   3.662   7.076  0.0053  0.2608 -0.5220
  175SAPI   H5X19928   2.229   3.566   7.028 -0.8784 -1.0625  1.5781
  175SAPI   H5Y19929   2.094   3.677   7.073 -0.2732 -1.1507  1.5606
  175SAPI   C3619930   2.259   3.662   7.220  0.6944 -0.5230  0.0846
  175SAPI   H6X19931   2.246   3.765   7.261  0.2863 -0.4030 -0.3472
  175SAPI   H6Y19932   2.367   3.639   7.209  0.5043 -1.6924  0.6425
  175SAPI   C3719933   2.198   3.549   7.297 -0.4780 -0.7310  0.8389
  175SAPI   H7X19934   2.225   3.450   7.253  1.3647  0.0895  0.0682
  175SAPI   H7Y19935   2.089   3.568   7.288  0.0419  1.6751 -1.2665
  175SAPI   C3819936   2.241   3.562   7.444  0.4449  0.5312  0.4304
  175SAPI   H8X19937   2.193   3.652   7.489 -0.1338  0.3629  0.1569
  175SAPI   H8Y19938   2.351   3.567   7.438  0.3740  1.8599  0.0157
  175SAPI   C3919939   2.199   3.433   7.521 -0.9439 -0.8514 -0.7668
  175SAPI   H9X19940   2.260   3.354   7.473 -0.5878  0.2985 -2.2707
  175SAPI   H9Y19941   2.090   3.424   7.504 -0.9742 -0.7005 -0.6456
  175SAPI  C31019942   2.225   3.442   7.670  0.3696 -0.0022  0.0954
  175SAPI  H10X19943   2.173   3.352   7.707  0.8185 -0.7513 -1.0732
  175SAPI  H10Y19944   2.176   3.532   7.713 -1.0518 -0.3207 -0.8317
  175SAPI  C31119945   2.372   3.418   7.708 -0.5092  0.2528  0.1167
  175SAPI  H11X19946   2.427   3.509   7.677 -0.0787 -0.8306 -2.3570
  175SAPI  H11Y19947   2.406   3.328   7.653 -2.1672  0.2740 -0.9411
  175SAPI  C31219948   2.399   3.396   7.858  0.1037 -0.3232  0.5484
  175SAPI  H12X19949   2.364   3.480   7.922 -1.8384  0.5715 -1.5959
  175SAPI  H12Y19950   2.509   3.391   7.877  0.7457 -0.5764 -2.8689
  175SAPI  C31319951   2.327   3.274   7.914  0.6795 -0.1824 -0.0222
  175SAPI  H13X19952   2.379   3.181   7.883 -0.5790 -1.0868  0.5040
  175SAPI  H13Y19953   2.219   3.269   7.889  0.3746  2.1995  0.7233
  175SAPI  C31419954   2.346   3.251   8.073 -0.0507  0.4659  0.4086
  175SAPI  H14X19955   2.308   3.149   8.096 -0.9525  1.3400  2.9501
  175SAPI  H14Y19956   2.289   3.316   8.143  0.8173  2.1689 -0.4208
  175SAPI  C31519957   2.493   3.251   8.119 -0.3656  0.2670 -0.2249
  175SAPI  H15X19958   2.531   3.353   8.099 -0.3727  0.5275  1.0633
  175SAPI  H15Y19959   2.550   3.174   8.063  0.9238  2.5412 -2.0831
  175SAPI  C31619960   2.497   3.229   8.276  0.3313  0.4179  0.5900
  175SAPI  H16X19961   2.493   3.119   8.289 -1.4291  0.0553 -2.5793
  175SAPI  H16Y19962   2.408   3.275   8.324 -0.0637 -1.6125  1.8531
  175SAPI  C31719963   2.628   3.282   8.336  0.4778  0.7044 -1.0436
  175SAPI  H17X19964   2.596   3.372   8.393 -1.3349 -0.6934  0.1841
  175SAPI  H17Y19965   2.703   3.312   8.258 -0.6742  2.7553 -1.3926
  175SAPI  C31819966   2.693   3.183   8.424 -0.4315 -0.5543  0.4068
  175SAPI  H18X19967   2.792   3.214   8.465 -0.6678 -0.7975  1.1822
  175SAPI  H18Y19968   2.719   3.090   8.369  0.8967 -0.9886  1.7220
  175SAPI  H18Z19969   2.625   3.156   8.509 -0.3601 -0.9529  0.3393
  176SAPI   C1219970   1.303   1.998   6.513  0.7111 -0.1420 -0.0643
  176SAPI    H219971   1.346   2.042   6.606 -0.1621  0.8461 -0.1201
  176SAPI    O219972   1.200   1.908   6.555  0.4210 -0.1412  0.3582
  176SAPI   HO219973   1.245   1.829   6.586  0.4233 -1.2511 -2.3409
  176SAPI   C1319974   1.252   2.108   6.421 -0.0787  0.2123 -0.4176
  176SAPI    H319975   1.339   2.169   6.388 -0.7599  1.1669 -0.4407
  176SAPI    O319976   1.170   2.205   6.485 -0.3456  0.0142 -0.4773
  176SAPI   HO319977   1.082   2.172   6.503 -0.6281  2.2477  2.6562
  176SAPI   C1419978   1.197   2.036   6.298  0.1946  0.2259  0.2952
  176SAPI    H419979   1.109   1.972   6.321  0.9267 -0.6839  0.6183
  176SAPI    O419980   1.150   2.128   6.205 -0.1800 -0.3805  0.2603
  176SAPI   HO419981   1.056   2.120   6.222 -0.6811  1.4092 -1.4783
  176SAPI   C1519982   1.299   1.950   6.229 -0.7603 -0.2211  0.1120
  176SAPI    H519983   1.383   2.016   6.199 -0.7157 -0.3294 -0.0054
  176SAPI    O519984   1.242   1.883   6.114  0.8915 -0.1293  0.6810
  176SAPI   HO519985   1.255   1.934   6.033  1.3480  2.2174  2.1687
  176SAPI   C1619986   1.358   1.840   6.320  0.7657 -0.1598 -0.1506
  176SAPI    H619987   1.276   1.767   6.336  0.5374 -0.1660 -1.3606
  176SAPI    O619988   1.467   1.761   6.264  0.3034  0.2350  0.4649
  176SAPI   HO619989   1.521   1.738   6.340  0.6411  0.7345  0.3784
  176SAPI   C1119990   1.412   1.910   6.451  0.3706  0.8399 -0.7651
  176SAPI    H119991   1.492   1.984   6.427 -0.5777  2.0787 -0.1281
  176SAPI     P19992   1.583   1.842   6.643 -0.0404 -0.2766  0.2050
  176SAPI   O1319993   1.680   1.923   6.564 -0.0696 -0.0624 -0.4870
  176SAPI   O1419994   1.636   1.711   6.690 -0.0842  0.7416  0.7692
  176SAPI   O1219995   1.458   1.812   6.540 -0.1995 -0.4589 -0.4959
  176SAPI   O1119996   1.511   1.920   6.756 -0.0212 -0.0905 -0.9167
  176SAPI    C119997   1.424   1.835   6.838 -0.3590 -0.4864 -0.8779
  176SAPI    HA19998   1.335   1.810   6.775  1.1353 -2.1466 -2.3855
  176SAPI    HB19999   1.474   1.743   6.875  1.5134  1.3669  1.2522
  176SAPI    C220000   1.374   1.929   6.952 -0.2963 -0.2735 -0.0972
  176SAPI    HS20001   1.318   1.868   7.025  0.1617 -2.1986 -1.3315
  176SAPI   O2120002   1.294   2.038   6.898 -0.2728 -0.0491  0.4587
  176SAPI   C2120003   1.166   2.002   6.874  0.2441  0.5798 -0.1958
  176SAPI   O2220004   1.108   1.898   6.901  0.2509 -0.2935 -0.0060
  176SAPI   C2220005   1.101   2.130   6.820 -0.1633  0.2751  0.0182
  176SAPI   H2R20006   1.075   2.206   6.898 -2.1132 -1.9871  1.6756
  176SAPI   H2S20007   1.166   2.172   6.741 -1.9465 -0.1875 -1.7481
  176SAPI    C320008   1.492   1.982   7.038 -0.5805  0.3338  0.1976
  176SAPI    HX20009   1.524   2.077   6.990 -0.4602  0.6999  1.0001
  176SAPI    HY20010   1.576   1.909   7.028  2.2547  3.7519 -2.1420
  176SAPI   O3120011   1.449   1.996   7.177  0.2519 -0.1138 -0.7107
  176SAPI   C3120012   1.457   2.123   7.230 -0.0731 -0.3882  0.5374
  176SAPI   O3220013   1.468   2.226   7.165  0.5834  0.1541  0.0093
  176SAPI   C3220014   1.444   2.111   7.380 -0.3380 -0.2675  0.2079
  176SAPI   H2X20015   1.518   2.034   7.410 -0.3331  0.2355  1.5106
  176SAPI   H2Y20016   1.341   2.072   7.393  0.3443 -2.1852  0.1462
  176SAPI   C2320017   0.966   2.114   6.744 -0.5373 -0.5985  0.9293
  176SAPI   H3R20018   0.964   2.018   6.688 -0.7773 -0.4071  0.6080
  176SAPI   H3S20019   0.948   2.192   6.667  1.5686 -1.3756 -0.3876
  176SAPI   C2420020   0.837   2.116   6.823  0.3155 -0.6219  0.0616
  176SAPI   H4R20021   0.851   2.035   6.897 -3.5726  0.1481  1.7508
  176SAPI   H4S20022   0.755   2.075   6.760 -1.1985  1.6504  0.4816
  176SAPI   C2520023   0.797   2.237   6.896 -0.4713 -0.5784 -0.0785
  176SAPI   H5R20024   0.746   2.313   6.835 -2.3027 -1.0367  0.8581
  176SAPI   C2620025   0.831   2.260   7.025  0.5004 -0.2814 -0.3446
  176SAPI   H6R20026   0.800   2.349   7.081 -0.4785  1.5062 -3.5936
  176SAPI   C2720027   0.900   2.162   7.118 -0.4378 -0.1409 -0.1567
  176SAPI   H7R20028   0.998   2.199   7.153 -0.2153 -1.5891  0.8079
  176SAPI   H7S20029   0.931   2.068   7.069  0.3426 -1.4099  2.6784
  176SAPI   C2820030   0.810   2.100   7.220 -0.0582  0.8655 -0.1039
  176SAPI   H8R20031   0.739   2.032   7.173  0.7449  0.5267 -0.8344
  176SAPI   C2920032   0.813   2.123   7.352 -0.3954  0.9274 -0.0652
  176SAPI   H9R20033   0.738   2.081   7.420 -0.5899  0.7054 -0.4180
  176SAPI  C21020034   0.913   2.223   7.417  0.5794  0.5256 -0.0579
  176SAPI  H10R20035   1.014   2.194   7.380  0.3796  0.0840 -0.2665
  176SAPI  H10S20036   0.909   2.195   7.525 -0.3337  0.2741 -0.1485
  176SAPI  C21120037   0.888   2.367   7.380  0.5488  0.1127  0.4649
  176SAPI  H11R20038   0.928   2.398   7.282  3.4824  0.2894  1.6977
  176SAPI  C21220039   0.828   2.467   7.452  0.2018  0.0651  0.5030
  176SAPI  H12R20040   0.810   2.561   7.398  1.4709  0.2865  0.4486
  176SAPI  C21320041   0.782   2.470   7.591  0.3369 -0.5684  0.1278
  176SAPI  H13R20042   0.816   2.376   7.639  0.5386  0.1515  1.4246
  176SAPI  H13S20043   0.670   2.468   7.590  0.2746  1.2920  1.3678
  176SAPI  C21420044   0.817   2.579   7.682 -0.0268 -0.0479 -0.4520
  176SAPI  H14R20045   0.823   2.681   7.641 -1.0786  0.9325  1.7373
  176SAPI  C21520046   0.869   2.562   7.806 -0.0975  0.1070  0.6133
  176SAPI  H15R20047   0.894   2.650   7.868 -0.1765  0.6057 -0.0619
  176SAPI  C21620048   0.878   2.433   7.881 -0.2245 -0.1183 -0.6778
  176SAPI  H16R20049   0.790   2.378   7.842 -1.7147  0.7538  1.3384
  176SAPI  H16S20050   0.847   2.447   7.987  0.0154  1.9093 -0.8632
  176SAPI  C21720051   1.007   2.354   7.867 -0.6232  0.0939  0.2476
  176SAPI  H17R20052   1.056   2.349   7.767  0.3901 -1.2093  0.7949
  176SAPI  H17S20053   0.986   2.250   7.898 -1.1347 -0.0351 -0.5138
  176SAPI  C21820054   1.108   2.400   7.969 -0.3910  0.3729  0.3597
  176SAPI  H18R20055   1.135   2.508   7.967 -3.4388  1.1955  0.2997
  176SAPI  H18S20056   1.198   2.344   7.936 -1.5453  0.1464 -2.5879
  176SAPI  C21920057   1.077   2.357   8.119  0.0023  0.3491  0.1918
  176SAPI  H19R20058   1.010   2.269   8.109 -1.1138  1.1638  0.3072
  176SAPI  H19S20059   1.031   2.445   8.169  1.6693  1.1665  0.3058
  176SAPI  C22020060   1.203   2.318   8.191  0.9004  0.0737  0.2856
  176SAPI  H20R20061   1.263   2.408   8.217  1.7582 -0.1170 -1.0011
  176SAPI  H20S20062   1.261   2.257   8.119 -0.3787  0.2428 -0.9038
  176SAPI  H20T20063   1.198   2.262   8.288  0.1148 -1.4030 -0.5860
  176SAPI   C3320064   1.474   2.230   7.462 -0.2996 -0.5110 -0.2960
  176SAPI   H3X20065   1.461   2.324   7.403  0.4256 -0.0967  0.1925
  176SAPI   H3Y20066   1.580   2.228   7.493  0.0352  2.2679 -1.0607
  176SAPI   C3420067   1.381   2.235   7.591 -0.3665 -0.3607  0.5734
  176SAPI   H4X20068   1.282   2.237   7.540 -0.4274 -1.7258  0.6075
  176SAPI   H4Y20069   1.404   2.327   7.649 -2.0737 -1.6113  3.3261
  176SAPI   C3520070   1.400   2.116   7.680 -0.5708 -0.2931  0.0289
  176SAPI   H5X20071   1.355   2.041   7.611  1.2986  0.3068 -1.8748
  176SAPI   H5Y20072   1.327   2.132   7.763 -2.2045  2.1895 -1.8436
  176SAPI   C3620073   1.539   2.086   7.739 -0.1630 -0.0397 -0.6061
  176SAPI   H6X20074   1.595   2.176   7.774 -0.5659 -0.5375  1.3615
  176SAPI   H6Y20075   1.599   2.030   7.664 -0.1135 -0.0872 -0.5302
  176SAPI   C3720076   1.527   1.979   7.852 -0.1282 -0.5425 -0.1007
  176SAPI   H7X20077   1.630   1.941   7.871 -0.1276  0.7775  2.7836
  176SAPI   H7Y20078   1.460   1.897   7.818 -2.2862  1.0697  0.1698
  176SAPI   C3820079   1.493   2.024   7.991 -0.0942 -0.1959  0.1965
  176SAPI   H8X20080   1.497   1.938   8.061 -1.7549  1.2924  2.1893
  176SAPI   H8Y20081   1.397   2.079   7.999 -0.8436 -1.0879 -2.1137
  176SAPI   C3920082   1.596   2.120   8.041 -0.4130  0.4306 -0.9614
  176SAPI   H9X20083   1.616   2.197   7.963 -0.9876  0.0866 -1.4573
  176SAPI   H9Y20084   1.694   2.075   8.067  0.5849  3.0930  0.0743
  176SAPI  C31020085   1.561   2.202   8.172 -0.6365  0.4414  0.7760
  176SAPI  H10X20086   1.529   2.129   8.249 -1.6522  1.1159  1.0206
  176SAPI  H10Y20087   1.475   2.265   8.140 -2.7720 -2.9284 -0.3278
  176SAPI  C31120088   1.671   2.285   8.231  0.4294  0.8484  0.5733
  176SAPI  H11X20089   1.715   2.352   8.154 -0.6213 -0.1367 -0.9094
  176SAPI  H11Y20090   1.752   2.220   8.271  2.3813  2.8904  0.0143
  176SAPI  C31220091   1.621   2.362   8.345  0.4159  0.5190  0.4763
  176SAPI  H12X20092   1.569   2.292   8.413  0.4595  0.6937  0.6892
  176SAPI  H12Y20093   1.558   2.447   8.310 -1.8901 -2.1436 -2.1829
  176SAPI  C31320094   1.743   2.413   8.436 -0.4695 -0.0504  0.3068
  176SAPI  H13X20095   1.794   2.491   8.376 -1.1129  1.3991  1.5952
  176SAPI  H13Y20096   1.813   2.328   8.445  0.4314  0.4659 -1.5155
  176SAPI  C31420097   1.705   2.474   8.568 -1.3173  0.3377 -0.0026
  176SAPI  H14X20098   1.652   2.392   8.619 -0.0127  0.6256  1.8745
  176SAPI  H14Y20099   1.646   2.567   8.553  0.6621  1.6275 -0.0159
  176SAPI  C31520100   1.829   2.491   8.670 -0.9214 -0.1605 -0.4662
  176SAPI  H15X20101   1.897   2.570   8.631 -1.2957 -0.1677 -1.1374
  176SAPI  H15Y20102   1.889   2.398   8.657  1.0629  0.7040  2.0222
  176SAPI  C31620103   1.794   2.509   8.814  0.6698 -0.5843  0.1369
  176SAPI  H16X20104   1.888   2.518   8.873  0.9462  1.3058 -0.5569
  176SAPI  H16Y20105   1.735   2.422   8.850  0.4652 -0.2685  0.5695
  176SAPI  C31720106   1.711   2.639   8.833 -0.4055 -0.2586  0.3318
  176SAPI  H17X20107   1.623   2.642   8.765 -1.2062 -1.6604  1.2876
  176SAPI  H17Y20108   1.782   2.723   8.821  0.5192 -1.2421 -1.1088
  176SAPI  C31820109   1.656   2.641   8.976 -0.0002  0.1168 -0.0088
  176SAPI  H18X20110   1.557   2.593   8.994 -0.3309 -0.3183 -2.7304
  176SAPI  H18Y20111   1.640   2.742   9.018 -0.6191  0.6101 -1.3819
  176SAPI  H18Z20112   1.731   2.597   9.045  1.9633  2.3675 -0.6779
  177SLPC     N20113   1.577   6.224  11.117  0.4478 -0.2807 -0.1255
  177SLPC   C1320114   1.447   6.198  11.190  0.5327 -0.1128  0.0538
  177SLPC  H13A20115   1.375   6.271  11.157 -0.1637 -0.4742  0.7543
  177SLPC  H13B20116   1.402   6.102  11.173  0.3621 -0.3417  1.6629
  177SLPC  H13C20117   1.453   6.234  11.292  1.9736  0.3463 -0.1808
  177SLPC   C1420118   1.617   6.366  11.150  0.4509  0.1379  0.5927
  177SLPC  H14A20119   1.531   6.430  11.135 -0.8872 -1.8018 -0.2818
  177SLPC  H14B20120   1.673   6.385  11.241 -0.8699  1.1583  1.2215
  177SLPC  H14C20121   1.691   6.392  11.076 -0.6025  0.3044 -0.4031
  177SLPC   C1520122   1.567   6.206  10.974 -0.3107 -1.0649 -0.0250
  177SLPC  H15A20123   1.507   6.283  10.925  0.2340 -0.0368  0.9062
  177SLPC  H15B20124   1.664   6.207  10.927  1.3123  0.4975  3.2464
  177SLPC  H15C20125   1.512   6.116  10.952 -0.6297 -0.9241  0.2002
  177SLPC   C1220126   1.682   6.134  11.175  0.2908  0.2406  0.4138
  177SLPC  H12A20127   1.682   6.130  11.283  0.3806 -2.8993  0.3564
  177SLPC  H12B20128   1.780   6.171  11.149 -0.0747  0.3535 -0.8329
  177SLPC   C1120129   1.695   5.987  11.126 -0.1017  0.1507 -0.4508
  177SLPC  H11A20130   1.791   5.954  11.170 -1.0111  0.1034  1.5797
  177SLPC  H11B20131   1.706   5.975  11.016  0.1560 -0.9320 -0.3074
  177SLPC     P20132   1.529   5.781  11.088  0.3404 -0.1292  0.2633
  177SLPC   O1320133   1.600   5.660  11.136  0.0086  0.3330  0.0297
  177SLPC   O1420134   1.384   5.789  11.105  0.3844  0.0956 -0.2470
  177SLPC   O1220135   1.596   5.899  11.169  0.2332  0.2523  0.2408
  177SLPC   O1120136   1.575   5.811  10.943  0.2911 -0.1729  0.0071
  177SLPC    C120137   1.476   5.867  10.855 -0.5141  0.2910 -0.4312
  177SLPC    HA20138   1.397   5.788  10.852  0.2606 -0.5160  0.1149
  177SLPC    HB20139   1.442   5.967  10.888  0.4295  1.0534 -1.7223
  177SLPC    C220140   1.539   5.882  10.722  0.8048 -0.7211  0.1093
  177SLPC    HS20141   1.593   5.788  10.694 -0.5722 -1.4321 -0.2066
  177SLPC   O2120142   1.619   5.995  10.729 -0.4837  0.4678 -0.6622
  177SLPC   C2120143   1.748   5.977  10.726  0.3847 -0.0070 -0.1222
  177SLPC   O2220144   1.802   5.869  10.720 -0.2196  0.6953 -0.3133
  177SLPC   C2220145   1.815   6.115  10.728 -0.1903 -0.0788 -0.6362
  177SLPC   H2R20146   1.741   6.197  10.721  1.0974  0.9747 -2.1869
  177SLPC   H2S20147   1.869   6.118  10.825  0.3306 -0.5912 -0.9071
  177SLPC    C320148   1.440   5.906  10.609 -0.4282 -0.3056 -0.0927
  177SLPC    HX20149   1.383   6.001  10.618  0.8623  0.3007  1.8664
  177SLPC    HY20150   1.357   5.831  10.612  1.0900 -2.1372 -2.1242
  177SLPC   O3120151   1.504   5.893  10.484  0.6271 -0.3272 -0.5609
  177SLPC   C3120152   1.482   5.982  10.393 -0.2429 -0.3401 -0.6029
  177SLPC   O3220153   1.419   6.085  10.404 -0.1364 -0.0660 -0.5354
  177SLPC   C3220154   1.528   5.924  10.259  0.4023 -0.1236  0.1738
  177SLPC   H2X20155   1.555   5.817  10.270  1.3937  0.0766 -0.2450
  177SLPC   H2Y20156   1.629   5.969  10.247 -0.8289  2.8270  0.4588
  177SLPC   C2320157   1.897   6.134  10.603 -0.0739  0.2580 -0.5730
  177SLPC   H3R20158   1.929   6.039  10.555 -0.1561  0.0687 -0.2449
  177SLPC   H3S20159   1.990   6.188  10.630 -1.1466  1.7395  0.2559
  177SLPC   C2420160   1.816   6.201  10.494 -1.1484 -0.6840 -0.2316
  177SLPC   H4R20161   1.774   6.294  10.539  0.7652  1.3437 -2.4905
  177SLPC   H4S20162   1.727   6.135  10.481 -1.5149  0.0079 -1.2818
  177SLPC   C2520163   1.891   6.233  10.372 -0.2936 -0.4903 -0.6362
  177SLPC   H5R20164   1.997   6.260  10.392 -0.6562 -0.2641  1.0825
  177SLPC   H5S20165   1.847   6.325  10.327 -1.7691 -0.5275  0.6959
  177SLPC   C2620166   1.902   6.124  10.273  0.4278  0.1412  0.2033
  177SLPC   H6R20167   1.808   6.106  10.217  0.6298  1.7027 -0.6788
  177SLPC   H6S20168   1.930   6.030  10.326 -2.6888 -1.2813 -0.5784
  177SLPC   C2720169   2.015   6.158  10.176 -0.0685 -0.1513  0.6578
  177SLPC   H7R20170   2.114   6.116  10.205  0.0992 -0.6672 -0.6451
  177SLPC   H7S20171   2.020   6.268  10.163 -1.1651 -0.2894 -0.9977
  177SLPC   C2820172   1.990   6.111  10.038 -0.9400 -0.9784  0.0181
  177SLPC   H8R20173   2.062   6.155   9.965 -1.4151  0.4179  0.3672
  177SLPC   H8S20174   1.896   6.157  10.001 -0.1352  1.9006  1.3537
  177SLPC   C2920175   1.987   5.962  10.029 -0.3571  0.4330 -0.6161
  177SLPC   H9R20176   2.046   5.902  10.100  0.9604  3.2721  0.7447
  177SLPC  C21020177   1.918   5.880   9.949  0.6874 -0.2281  0.4983
  177SLPC  H10R20178   1.941   5.773   9.959  0.8871 -0.5337 -2.7366
  177SLPC  C21120179   1.820   5.933   9.841  0.4788  0.3971  0.5646
  177SLPC  H11R20180   1.754   6.011   9.884 -1.4423 -2.0452  2.2497
  177SLPC  H11S20181   1.869   5.970   9.749 -1.6911  0.5683 -0.5717
  177SLPC  C21220182   1.725   5.817   9.801  0.1331  0.4562  0.3594
  177SLPC  H12R20183   1.713   5.734   9.872 -0.0171 -0.1034 -0.3063
  177SLPC  C21320184   1.653   5.821   9.687 -0.3583  0.1953  0.3681
  177SLPC  H13R20185   1.577   5.742   9.677  0.2593 -0.2376 -1.0197
  177SLPC  C21420186   1.661   5.927   9.581 -0.0185 -0.2346 -0.4300
  177SLPC  H14R20187   1.706   6.025   9.607 -0.6131 -0.8269  3.0964
  177SLPC  H14S20188   1.561   5.962   9.546  0.0411 -2.6021 -3.2033
  177SLPC  C21520189   1.740   5.873   9.455  0.0754  0.5576 -0.4617
  177SLPC  H15R20190   1.675   5.796   9.408 -0.1508  0.0696  0.6531
  177SLPC  H15S20191   1.832   5.818   9.486 -0.3126 -0.8148 -1.6766
  177SLPC  C21620192   1.773   5.974   9.340  0.1944  0.4306  0.5208
  177SLPC  H16R20193   1.792   5.901   9.259 -2.7685  0.9024 -0.6710
  177SLPC  H16S20194   1.862   6.036   9.365 -0.1466  0.1185  2.6175
  177SLPC  C21720195   1.665   6.066   9.297 -0.0084 -0.0764 -0.4036
  177SLPC  H17R20196   1.630   6.137   9.375 -0.9553 -0.9960  0.0048
  177SLPC  H17S20197   1.580   6.003   9.262  1.2677 -2.4692  0.6940
  177SLPC  C21820198   1.712   6.140   9.171  0.5536  0.3812 -0.4529
  177SLPC  H18R20199   1.637   6.200   9.115 -1.0497  0.4362  1.6973
  177SLPC  H18S20200   1.733   6.054   9.103  1.0834 -0.0503  0.2546
  177SLPC  H18T20201   1.805   6.198   9.187 -1.0471  2.6016  1.0619
  177SLPC   C3320202   1.424   5.952  10.143 -0.7853 -0.5345 -0.1886
  177SLPC   H3X20203   1.325   5.972  10.189 -1.3966 -0.5578 -1.4817
  177SLPC   H3Y20204   1.431   5.864  10.076  1.3566  1.2523 -2.3975
  177SLPC   C3420205   1.455   6.072  10.042  0.3850 -0.6609 -0.0824
  177SLPC   H4X20206   1.559   6.055  10.007  1.2683 -0.9597  2.5719
  177SLPC   H4Y20207   1.473   6.169  10.093 -0.2231 -0.0594 -1.0056
  177SLPC   C3520208   1.335   6.096   9.944 -0.2734  0.2685  0.2357
  177SLPC   H5X20209   1.252   6.120  10.013 -1.1847  0.7266 -1.0121
  177SLPC   H5Y20210   1.315   6.005   9.884  0.9573  0.0944  0.0765
  177SLPC   C3620211   1.374   6.212   9.847 -0.2333  0.3176 -0.1474
  177SLPC   H6X20212   1.382   6.311   9.897  0.1763  0.0650  0.2959
  177SLPC   H6Y20213   1.283   6.227   9.784 -0.9554 -0.3841  0.7036
  177SLPC   C3720214   1.486   6.166   9.755  0.3681 -0.6373  0.0243
  177SLPC   H7X20215   1.475   6.065   9.711 -1.0335 -0.3412 -0.3509
  177SLPC   H7Y20216   1.579   6.161   9.814  0.6888  0.8583 -0.3286
  177SLPC   C3820217   1.514   6.268   9.639  0.7234 -0.2728 -0.6009
  177SLPC   H8X20218   1.615   6.246   9.597 -0.6134 -2.0078 -3.1124
  177SLPC   H8Y20219   1.502   6.367   9.688  0.7688 -0.8961  0.6913
  177SLPC   C3920220   1.402   6.263   9.528 -0.1326 -0.3602 -0.7834
  177SLPC   H9X20221   1.308   6.299   9.576 -1.2597 -1.0944 -2.4165
  177SLPC   H9Y20222   1.384   6.157   9.501 -2.0818 -0.2397 -0.0969
  177SLPC  C31020223   1.412   6.352   9.405  0.0566  0.0936 -0.1369
  177SLPC  H10X20224   1.519   6.348   9.375 -0.2646  0.9833 -1.4216
  177SLPC  H10Y20225   1.376   6.452   9.437  0.8015 -0.1539  1.5219
  177SLPC  C31120226   1.325   6.303   9.285 -0.2010 -0.4328  0.3796
  177SLPC  H11X20227   1.216   6.293   9.305  0.3144 -3.3779  2.0261
  177SLPC  H11Y20228   1.363   6.202   9.260  0.8975 -0.1743  0.9822
  177SLPC  C31220229   1.339   6.389   9.157 -0.1899 -0.0410 -0.2099
  177SLPC  H12X20230   1.445   6.381   9.125 -0.3646  0.4820 -0.9343
  177SLPC  H12Y20231   1.310   6.496   9.164 -1.9718 -0.3836 -2.0730
  177SLPC  C31320232   1.264   6.329   9.034 -0.3689 -0.4516  0.1123
  177SLPC  H13X20233   1.286   6.394   8.946 -0.6747  0.6776  0.8628
  177SLPC  H13Y20234   1.157   6.324   9.063  0.2259 -0.9854  2.2548
  177SLPC  C31420235   1.308   6.187   9.010 -0.5557  0.3112  0.7685
  177SLPC  H14X20236   1.268   6.117   9.087 -1.6689 -0.5549 -0.5566
  177SLPC  H14Y20237   1.418   6.184   9.005 -0.5885  0.5350 -0.3428
  177SLPC  C31520238   1.267   6.123   8.874  0.9189  0.2173  0.7029
  177SLPC  H15X20239   1.336   6.037   8.860 -0.9053 -0.8783 -1.9043
  177SLPC  H15Y20240   1.279   6.192   8.788  3.1529 -2.4422 -1.2198
  177SLPC  C31620241   1.130   6.043   8.875  0.2399 -0.0723 -0.1648
  177SLPC  H16X20242   1.124   5.977   8.963  2.6462 -2.0693 -1.4497
  177SLPC  H16Y20243   1.132   5.976   8.786  0.1579 -0.4699  0.1322
  177SLPC  C31720244   1.006   6.132   8.869  0.2124 -0.4470  0.2090
  177SLPC  H17X20245   1.024   6.197   8.780 -1.6513 -0.8452 -0.4637
  177SLPC  H17Y20246   0.992   6.193   8.960  0.3266  0.3436 -0.2980
  177SLPC  C31820247   0.880   6.045   8.821 -0.3653 -0.2052 -0.1634
  177SLPC  H18X20248   0.861   5.961   8.892  0.9597 -1.0071 -0.7409
  177SLPC  H18Y20249   0.893   5.995   8.723  0.7175 -1.6303  0.6944
  177SLPC  H18Z20250   0.793   6.112   8.807  0.3116  0.4603 -1.2074
  178SLPC     N20251   3.497   0.957  11.481  0.2670 -0.1568  0.1948
  178SLPC   C1320252   3.625   0.971  11.406 -0.2319 -0.4456  0.7121
  178SLPC  H13A20253   3.706   0.999  11.473 -1.6193  0.9499  1.8447
  178SLPC  H13B20254   3.661   0.883  11.356  1.9052  1.2531 -0.8340
  178SLPC  H13C20255   3.632   1.050  11.332 -0.9797 -0.6596  0.4168
  178SLPC   C1420256   3.475   1.072  11.569 -0.0762  0.2261 -0.5570
  178SLPC  H14A20257   3.469   1.162  11.509  1.4524  2.0780  1.9601
  178SLPC  H14B20258   3.378   1.070  11.617 -0.3517  2.0125 -0.9779
  178SLPC  H14C20259   3.556   1.083  11.639 -0.7442  0.0134  0.2502
  178SLPC   C1520260   3.506   0.841  11.568 -0.2760 -0.8554  0.3465
  178SLPC  H15A20261   3.533   0.752  11.514  1.0950 -0.0600 -0.3137
  178SLPC  H15B20262   3.582   0.848  11.645 -2.1004  0.4033  2.1070
  178SLPC  H15C20263   3.421   0.824  11.632 -1.6276  0.3010 -1.1219
  178SLPC   C1220264   3.387   0.933  11.383 -0.2028 -0.1774 -0.6081
  178SLPC  H12A20265   3.304   0.894  11.440  2.3497 -1.0260  2.6513
  178SLPC  H12B20266   3.404   0.844  11.324  0.2970 -1.0436  0.8232
  178SLPC   C1120267   3.354   1.044  11.284 -0.0090 -0.7436  0.3352
  178SLPC  H11A20268   3.337   1.133  11.349  1.7302 -1.0108  1.1898
  178SLPC  H11B20269   3.260   1.014  11.232  0.5036 -0.8696 -0.5216
  178SLPC     P20270   3.478   0.973  11.068 -0.3546 -0.1567 -0.0413
  178SLPC   O1320271   3.580   1.031  10.985  0.3410  0.2881 -0.1218
  178SLPC   O1420272   3.500   0.833  11.118 -0.0544 -0.1841 -0.3194
  178SLPC   O1220273   3.454   1.069  11.190 -0.0411  1.0824 -0.1058
  178SLPC   O1120274   3.335   0.959  10.994 -0.2601 -0.1988  0.0658
  178SLPC    C120275   3.287   1.072  10.922  0.2735 -0.8100 -0.7049
  178SLPC    HA20276   3.179   1.075  10.946  0.6691  1.9199  0.9148
  178SLPC    HB20277   3.333   1.167  10.959 -2.6641 -0.4300  2.1464
  178SLPC    C220278   3.309   1.055  10.765 -0.2010 -0.3994  0.5067
  178SLPC    HS20279   3.414   1.077  10.739 -1.0430  0.2671 -2.5725
  178SLPC   O2120280   3.215   1.132  10.691 -0.2861 -0.1195  0.2069
  178SLPC   C2120281   3.264   1.194  10.580  0.5573 -0.0105  0.0261
  178SLPC   O2220282   3.381   1.197  10.549  0.5565 -0.4868 -0.2349
  178SLPC   C2220283   3.142   1.259  10.510 -0.1582  0.3484 -0.0410
  178SLPC   H2R20284   3.069   1.183  10.473  0.0581 -0.1351  0.4989
  178SLPC   H2S20285   3.082   1.323  10.578  1.2935  2.2157 -0.5022
  178SLPC    C320286   3.293   0.915  10.713 -0.2831  0.2639 -0.3630
  178SLPC    HX20287   3.188   0.884  10.730  0.8650 -1.3947  4.6031
  178SLPC    HY20288   3.357   0.853  10.780 -1.6137 -1.1822 -0.4019
  178SLPC   O3120289   3.317   0.902  10.570  0.2335 -0.0713 -0.2610
  178SLPC   C3120290   3.447   0.911  10.533 -0.6774  0.9668 -0.4742
  178SLPC   O3220291   3.539   0.893  10.605  0.1682  0.4363  0.0394
  178SLPC   C3220292   3.455   0.951  10.382 -0.0419 -0.1935  0.0909
  178SLPC   H2X20293   3.488   1.057  10.382  0.5325 -0.2714 -4.0975
  178SLPC   H2Y20294   3.353   0.951  10.338 -0.3928  1.1951  0.8768
  178SLPC   C2320295   3.192   1.350  10.398 -0.5017 -0.5504  0.8771
  178SLPC   H3R20296   3.274   1.422  10.422  0.3310 -1.1077 -0.2011
  178SLPC   H3S20297   3.109   1.422  10.380  1.5516  2.1777  1.8918
  178SLPC   C2420298   3.226   1.273  10.264  0.1715 -0.1384 -1.2320
  178SLPC   H4R20299   3.134   1.224  10.227  0.2122 -1.4452  0.3464
  178SLPC   H4S20300   3.314   1.205  10.275  1.3736  1.9298  3.4501
  178SLPC   C2520301   3.251   1.386  10.161 -0.3978  0.6649 -0.1042
  178SLPC   H5R20302   3.347   1.428  10.198 -1.6158  2.4891  1.0354
  178SLPC   H5S20303   3.167   1.457  10.173  1.8309  3.3105  0.3344
  178SLPC   C2620304   3.255   1.331  10.016 -0.0925  0.1865 -0.3089
  178SLPC   H6R20305   3.150   1.320   9.981  0.5471 -2.6618 -1.4987
  178SLPC   H6S20306   3.290   1.226  10.014  1.5679  0.7365 -1.8975
  178SLPC   C2720307   3.333   1.430   9.925 -0.5994  0.4764  0.2784
  178SLPC   H7R20308   3.442   1.419   9.943 -0.3388  1.2573 -0.7889
  178SLPC   H7S20309   3.300   1.532   9.953 -0.9931  0.2006  0.8324
  178SLPC   C2820310   3.308   1.400   9.771  0.5895  0.5014  0.3088
  178SLPC   H8R20311   3.350   1.299   9.755 -0.5457  0.1733 -0.6815
  178SLPC   H8S20312   3.365   1.481   9.721 -1.1769  0.0183 -2.5753
  178SLPC   C2920313   3.166   1.393   9.731 -0.3419 -0.4713 -0.0899
  178SLPC   H9R20314   3.090   1.376   9.808  0.4609  2.4795  1.4591
  178SLPC  C21020315   3.107   1.382   9.609 -0.0774 -0.2672  0.8493
  178SLPC  H10R20316   3.000   1.404   9.597  0.3705  1.1472 -0.8061
  178SLPC  C21120317   3.187   1.372   9.480 -0.6105 -0.1481 -0.0767
  178SLPC  H11R20318   3.297   1.386   9.489 -0.5979  0.6401 -1.3366
  178SLPC  H11S20319   3.154   1.444   9.402 -0.4083 -1.4042 -1.3446
  178SLPC  C21220320   3.178   1.236   9.414 -0.7018 -0.1577  0.0955
  178SLPC  H12R20321   3.252   1.164   9.453  1.1246  0.9243 -1.2891
  178SLPC  C21320322   3.085   1.206   9.321 -0.3375 -0.5372 -0.1405
  178SLPC  H13R20323   3.073   1.100   9.294 -1.3139 -0.3578 -0.4291
  178SLPC  C21420324   2.985   1.293   9.267 -0.4389 -0.6049  0.8027
  178SLPC  H14R20325   3.012   1.399   9.282 -0.4389 -0.3668 -0.8278
  178SLPC  H14S20326   2.889   1.274   9.320 -0.7233  2.3110  1.4045
  178SLPC  C21520327   2.937   1.272   9.113  0.4804 -0.0509 -0.7294
  178SLPC  H15R20328   2.907   1.166   9.101  0.3726 -0.2211  0.9551
  178SLPC  H15S20329   3.017   1.293   9.039 -0.0299  1.4093 -0.8785
  178SLPC  C21620330   2.826   1.367   9.085  0.2543 -0.7957 -0.1528
  178SLPC  H16R20331   2.834   1.443   9.165 -1.1477 -0.3167 -0.4444
  178SLPC  H16S20332   2.730   1.314   9.105 -0.3561  0.0004 -0.9039
  178SLPC  C21720333   2.812   1.417   8.943  0.9699  0.1191  0.7588
  178SLPC  H17R20334   2.911   1.459   8.913  0.3930  1.7809  1.1390
  178SLPC  H17S20335   2.745   1.506   8.936  0.3079 -0.2641  2.1502
  178SLPC  C21820336   2.759   1.302   8.853  0.1152  0.0165  0.1357
  178SLPC  H18R20337   2.815   1.207   8.867 -2.7715 -1.5015  1.6875
  178SLPC  H18S20338   2.772   1.332   8.747  2.4995  0.3771  0.5000
  178SLPC  H18T20339   2.658   1.296   8.899  0.3011  1.0056  0.7060
  178SLPC   C3320340   3.545   0.858  10.302 -0.1626 -0.7620  0.7197
  178SLPC   H3X20341   3.540   0.762  10.356  1.2598 -1.5484 -0.5241
  178SLPC   H3Y20342   3.651   0.891  10.291 -0.2635 -0.3207  1.0338
  178SLPC   C3420343   3.500   0.825  10.154  0.0997 -0.4241  1.0208
  178SLPC   H4X20344   3.457   0.915  10.106 -1.3568 -0.4605  2.2135
  178SLPC   H4Y20345   3.430   0.740  10.165  0.8441 -1.1146  0.4848
  178SLPC   C3520346   3.616   0.782  10.064  0.0956 -0.6827 -0.0332
  178SLPC   H5X20347   3.643   0.677  10.088 -1.0145 -1.0354 -0.2711
  178SLPC   H5Y20348   3.702   0.852  10.067 -0.3471 -0.1068 -0.6341
  178SLPC   C3620349   3.571   0.771   9.922  0.7695 -0.1164  0.7451
  178SLPC   H6X20350   3.528   0.865   9.879  1.1099 -0.0862  0.4644
  178SLPC   H6Y20351   3.487   0.699   9.934  0.7163  0.0116  1.1529
  178SLPC   C3720352   3.679   0.719   9.817  0.2910  0.9719 -0.1081
  178SLPC   H7X20353   3.722   0.622   9.850 -1.0355  0.9388  1.6151
  178SLPC   H7Y20354   3.762   0.791   9.803  1.2909 -0.2107 -0.3773
  178SLPC   C3820355   3.634   0.709   9.676 -0.0193  0.4328  0.5631
  178SLPC   H8X20356   3.588   0.802   9.636 -0.8810  0.4020  1.4366
  178SLPC   H8Y20357   3.554   0.632   9.681  0.5051 -0.1399  0.1771
  178SLPC   C3920358   3.753   0.673   9.579  0.2286  0.0844 -0.7919
  178SLPC   H9X20359   3.799   0.578   9.613 -0.6945  0.1555  0.6763
  178SLPC   H9Y20360   3.828   0.754   9.588  0.3970 -0.1483 -0.0341
  178SLPC  C31020361   3.697   0.650   9.441  0.1690 -0.7056 -0.7974
  178SLPC  H10X20362   3.618   0.718   9.404 -2.0929 -0.9808  3.3021
  178SLPC  H10Y20363   3.654   0.548   9.436  0.3499 -0.8376  0.1333
  178SLPC  C31120364   3.795   0.659   9.324  0.0233 -0.4486 -0.1399
  178SLPC  H11X20365   3.866   0.574   9.327  1.0354  0.3710 -0.6408
  178SLPC  H11Y20366   3.855   0.751   9.337  0.1930 -0.4682 -0.7595
  178SLPC  C31220367   3.727   0.661   9.191 -0.1033 -0.2494  0.1733
  178SLPC  H12X20368   3.645   0.736   9.181 -0.2136 -0.5604 -1.4734
  178SLPC  H12Y20369   3.682   0.561   9.173 -1.4397  0.3084  0.2921
  178SLPC  C31320370   3.815   0.678   9.068 -0.2646 -0.2124  0.6516
  178SLPC  H13X20371   3.879   0.768   9.083 -0.3506 -0.0967  0.3160
  178SLPC  H13Y20372   3.764   0.682   8.970  0.3490 -1.1141  0.2963
  178SLPC  C31420373   3.919   0.568   9.043 -0.6948 -0.3309  0.2816
  178SLPC  H14X20374   3.870   0.470   9.024 -2.9369  0.8499 -0.2192
  178SLPC  H14Y20375   3.991   0.540   9.123 -0.5852 -2.4409 -0.5351
  178SLPC  C31520376   3.993   0.608   8.912 -0.4609 -0.5509 -0.5527
  178SLPC  H15X20377   3.932   0.681   8.855 -1.9467 -0.4682  1.1139
  178SLPC  H15Y20378   4.093   0.650   8.937 -0.3758 -0.8676 -0.3631
  178SLPC  C31620379   4.038   0.490   8.827  0.4262  0.1908  0.9633
  178SLPC  H16X20380   4.071   0.411   8.898 -0.1075 -0.1510  0.8362
  178SLPC  H16Y20381   4.128   0.510   8.764  0.4183  1.5331  1.3677
  178SLPC  C31720382   3.920   0.441   8.743  0.6343 -0.5625  0.6903
  178SLPC  H17X20383   3.897   0.533   8.684 -0.5190 -1.7049 -0.6577
  178SLPC  H17Y20384   3.831   0.419   8.806 -0.9480  0.0163 -1.2921
  178SLPC  C31820385   3.954   0.325   8.648 -0.0026 -0.2291 -0.0893
  178SLPC  H18X20386   3.980   0.236   8.710  2.9432 -1.3898 -2.8600
  178SLPC  H18Y20387   4.042   0.351   8.586  1.5634 -2.4334  1.1624
  178SLPC  H18Z20388   3.869   0.299   8.582  0.5896  0.4184 -1.1054
  179SLPC     N20389   5.167   4.705  10.773 -0.0926 -0.0873  0.5465
  179SLPC   C1320390   5.315   4.721  10.807 -0.4301 -0.0255  0.7187
  179SLPC  H13A20391   5.360   4.814  10.774  1.0724 -0.6498  0.9866
  179SLPC  H13B20392   5.328   4.720  10.914  2.1510  0.8941  0.4554
  179SLPC  H13C20393   5.374   4.648  10.754  0.3586  1.6767 -0.8241
  179SLPC   C1420394   5.090   4.820  10.824 -0.5540 -0.0234 -0.3199
  179SLPC  H14A20395   5.099   4.830  10.931 -1.1872  1.9909 -0.4247
  179SLPC  H14B20396   5.110   4.918  10.784  0.1151 -1.0331 -2.5473
  179SLPC  H14C20397   4.986   4.794  10.810 -1.0761  3.1535 -3.1695
  179SLPC   C1520398   5.112   4.591  10.847 -0.2300  0.5368  0.2670
  179SLPC  H15A20399   5.170   4.577  10.937 -0.0130 -0.7183 -0.0570
  179SLPC  H15B20400   5.011   4.598  10.886  0.4313  0.1595  2.1375
  179SLPC  H15C20401   5.123   4.506  10.781 -2.0487  0.2732  0.2625
  179SLPC   C1220402   5.144   4.688  10.626 -0.1775  0.1264  0.3094
  179SLPC  H12A20403   5.183   4.778  10.581  0.9253  0.4404  1.8551
  179SLPC  H12B20404   5.038   4.673  10.612  0.5153 -3.0092 -2.4003
  179SLPC   C1120405   5.211   4.574  10.547 -0.2104  0.2686 -0.1515
  179SLPC  H11A20406   5.321   4.575  10.565  0.0028 -0.1484 -1.3868
  179SLPC  H11B20407   5.208   4.590  10.438  1.6358  1.1163 -0.0962
  179SLPC     P20408   5.030   4.380  10.540  0.1897 -0.4933  0.1270
  179SLPC   O1320409   5.060   4.255  10.475 -0.0699 -0.7632  0.6058
  179SLPC   O1420410   4.931   4.375  10.648 -0.4130  0.3922  0.0588
  179SLPC   O1220411   5.170   4.446  10.585  0.1318 -0.5553  0.1479
  179SLPC   O1120412   4.973   4.475  10.426  0.1473  0.1283 -0.1186
  179SLPC    C120413   4.859   4.557  10.458  0.2615  0.2442  0.5690
  179SLPC    HA20414   4.782   4.517  10.527  0.6066  0.4111  1.0594
  179SLPC    HB20415   4.899   4.653  10.497  1.7274  0.8764 -2.3625
  179SLPC    C220416   4.793   4.593  10.317 -0.0923  0.0010  0.6541
  179SLPC    HS20417   4.697   4.644  10.342 -1.1388 -0.5883 -1.8942
  179SLPC   O2120418   4.768   4.476  10.242 -0.0207 -0.7901 -0.0299
  179SLPC   C2120419   4.669   4.402  10.287 -0.3719  0.4915 -0.3044
  179SLPC   O2220420   4.611   4.421  10.393 -0.1656  0.2756 -0.3509
  179SLPC   C2220421   4.659   4.274  10.205  0.7846 -0.8279 -0.6207
  179SLPC   H2R20422   4.731   4.201  10.248  1.3640 -1.8954 -3.2728
  179SLPC   H2S20423   4.555   4.239  10.223 -0.3143  0.5060 -3.9373
  179SLPC    C320424   4.881   4.691  10.233 -0.8551 -0.3524  0.0236
  179SLPC    HX20425   4.978   4.640  10.218 -1.6690 -1.2420 -2.5647
  179SLPC    HY20426   4.885   4.789  10.286 -0.1306 -0.8085  0.8262
  179SLPC   O3120427   4.812   4.725  10.111  0.1810 -0.0832  0.2493
  179SLPC   C3120428   4.836   4.631  10.013  0.2738 -0.3219  0.3934
  179SLPC   O3220429   4.911   4.537  10.021  0.3092  0.1131  1.0944
  179SLPC   C3220430   4.753   4.662   9.891 -0.1659  0.0454 -0.0097
  179SLPC   H2X20431   4.808   4.739   9.833 -2.3881  0.0596 -2.1808
  179SLPC   H2Y20432   4.656   4.708   9.919 -0.3533 -0.2881 -0.1025
  179SLPC   C2320433   4.685   4.286  10.050 -0.3761 -0.8362  0.0444
  179SLPC   H3R20434   4.795   4.294  10.035 -0.1711 -0.6584  1.5470
  179SLPC   H3S20435   4.639   4.382  10.018  0.9600  0.5767  2.2664
  179SLPC   C2420436   4.625   4.164   9.981 -0.1611 -0.2092 -0.0517
  179SLPC   H4R20437   4.523   4.156  10.023  0.1307  0.2645  0.7520
  179SLPC   H4S20438   4.668   4.065  10.010  0.4726 -0.3336 -1.3644
  179SLPC   C2520439   4.621   4.176   9.819 -0.3155 -0.1503 -0.6264
  179SLPC   H5R20440   4.722   4.199   9.781  0.1052 -0.2310  0.4377
  179SLPC   H5S20441   4.558   4.264   9.793  1.2634  0.8306 -1.1706
  179SLPC   C2620442   4.558   4.058   9.745 -0.0472  0.7875 -0.1270
  179SLPC   H6R20443   4.637   3.980   9.741  2.3669  3.2199 -2.3650
  179SLPC   H6S20444   4.550   4.087   9.638 -1.8615  1.1926  0.0972
  179SLPC   C2720445   4.428   4.002   9.805  0.1704 -0.0580  0.2819
  179SLPC   H7R20446   4.360   4.090   9.814  2.1887  1.3625  2.0339
  179SLPC   H7S20447   4.446   3.966   9.909 -1.3706  0.6856  0.8285
  179SLPC   C2820448   4.349   3.901   9.720  0.0847  0.6138 -0.6713
  179SLPC   H8R20449   4.265   3.861   9.781  1.3497  0.1291  0.7647
  179SLPC   H8S20450   4.412   3.811   9.705 -1.1731 -0.5048  0.5879
  179SLPC   C2920451   4.293   3.963   9.594  0.5064 -0.5154 -0.4012
  179SLPC   H9R20452   4.218   4.042   9.611 -0.5531 -1.7475  0.8362
  179SLPC  C21020453   4.302   3.920   9.470  0.7783 -0.0199 -0.4122
  179SLPC  H10R20454   4.260   3.978   9.387  0.4418  0.0403 -0.1988
  179SLPC  C21120455   4.380   3.803   9.425  0.5125  0.2480 -0.1113
  179SLPC  H11R20456   4.313   3.739   9.364  0.9233 -0.6419  0.3533
  179SLPC  H11S20457   4.399   3.735   9.511  0.6039 -0.3232 -0.5801
  179SLPC  C21220458   4.515   3.825   9.374 -0.2945  0.3078  0.5465
  179SLPC  H12R20459   4.585   3.881   9.437 -0.6087 -1.1491  2.2506
  179SLPC  C21320460   4.554   3.784   9.253 -0.3663 -0.3898 -0.4175
  179SLPC  H13R20461   4.654   3.811   9.214 -0.8182  2.2812  0.1984
  179SLPC  C21420462   4.466   3.707   9.149  0.5810 -0.2730 -0.1918
  179SLPC  H14R20463   4.395   3.641   9.204  0.2817  2.3087  2.6762
  179SLPC  H14S20464   4.531   3.640   9.089  0.5484 -1.0543  0.6312
  179SLPC  C21520465   4.384   3.795   9.055  0.6226 -0.4878  0.0093
  179SLPC  H15R20466   4.327   3.871   9.112  1.5762  0.9780 -0.9536
  179SLPC  H15S20467   4.296   3.742   9.011  1.0147 -1.9818  0.9953
  179SLPC  C21620468   4.462   3.867   8.941  0.0148 -0.2857 -0.7738
  179SLPC  H16R20469   4.518   3.786   8.890  0.8119 -0.4285  0.2923
  179SLPC  H16S20470   4.547   3.929   8.979  0.8532 -1.5583 -0.5372
  179SLPC  C21720471   4.383   3.968   8.858  0.1002 -0.1351  0.0759
  179SLPC  H17R20472   4.281   3.989   8.896 -0.4071 -3.4309  0.6201
  179SLPC  H17S20473   4.369   3.928   8.756  1.0856  1.6131 -0.7781
  179SLPC  C21820474   4.459   4.106   8.839  0.5506  0.2914 -1.0185
  179SLPC  H18R20475   4.392   4.172   8.780 -2.2717 -0.6406  0.9915
  179SLPC  H18S20476   4.558   4.087   8.793  1.1484 -0.8956  0.7053
  179SLPC  H18T20477   4.480   4.152   8.938 -1.5180  0.3318 -0.5587
  179SLPC   C3320478   4.726   4.543   9.797 -0.0660 -0.8436  0.5800
  179SLPC   H3X20479   4.632   4.499   9.836  0.1529 -0.3829  1.6610
  179SLPC   H3Y20480   4.812   4.473   9.802 -0.4261 -1.3841 -0.6459
  179SLPC   C3420481   4.711   4.573   9.653  0.2047 -0.3029 -0.0612
  179SLPC   H4X20482   4.780   4.657   9.630 -0.4252  0.7921  1.9411
  179SLPC   H4Y20483   4.618   4.633   9.648  0.7925  0.6936  0.7664
  179SLPC   C3520484   4.683   4.460   9.555  0.0680 -0.5907 -0.7089
  179SLPC   H5X20485   4.637   4.512   9.468 -0.4228  3.7429  1.9864
  179SLPC   H5Y20486   4.601   4.396   9.594 -0.8141  1.2704  0.5989
  179SLPC   C3620487   4.800   4.370   9.505  0.6796 -0.5733 -0.2928
  179SLPC   H6X20488   4.837   4.316   9.595 -2.9227 -2.3675  0.2127
  179SLPC   H6Y20489   4.877   4.444   9.475 -1.8546  1.1056 -2.8796
  179SLPC   C3720490   4.770   4.289   9.381 -0.0279 -0.2613  0.8282
  179SLPC   H7X20491   4.758   4.360   9.297  2.5886  0.0705  0.6949
  179SLPC   H7Y20492   4.684   4.220   9.391 -0.6774  0.6694  1.7166
  179SLPC   C3820493   4.901   4.214   9.342  0.8243 -0.4155 -0.7778
  179SLPC   H8X20494   4.937   4.173   9.438  2.6874  1.2345 -0.7323
  179SLPC   H8Y20495   4.979   4.284   9.304  0.1884 -0.4217 -2.1401
  179SLPC   C3920496   4.874   4.095   9.251  0.4751 -0.8710  0.4677
  179SLPC   H9X20497   4.796   4.033   9.299  0.4380  0.0177  1.5901
  179SLPC   H9Y20498   4.971   4.041   9.251  0.6608 -0.5382  0.1673
  179SLPC  C31020499   4.846   4.132   9.096  0.2240  0.3582  0.2923
  179SLPC  H10X20500   4.737   4.148   9.080 -0.1600 -1.5692  0.8214
  179SLPC  H10Y20501   4.872   4.039   9.041 -1.9796  0.6222 -1.2490
  179SLPC  C31120502   4.926   4.252   9.051  0.2490  0.8458 -0.2745
  179SLPC  H11X20503   5.031   4.231   9.080  0.2538 -0.1726 -0.9972
  179SLPC  H11Y20504   4.903   4.342   9.113  0.0728 -1.1392  2.6781
  179SLPC  C31220505   4.898   4.290   8.905  0.6552  0.5710  0.1334
  179SLPC  H12X20506   4.978   4.358   8.869 -0.8470  1.8068 -0.9301
  179SLPC  H12Y20507   4.796   4.334   8.896  0.1671 -0.2551  1.4445
  179SLPC  C31320508   4.922   4.167   8.815  0.5993  0.6133  0.0043
  179SLPC  H13X20509   4.846   4.094   8.849 -3.6803  3.0720 -3.6431
  179SLPC  H13Y20510   5.019   4.122   8.846  0.1895  0.3466  0.9177
  179SLPC  C31420511   4.914   4.190   8.661 -0.5379  0.6897 -0.1875
  179SLPC  H14X20512   4.809   4.201   8.628 -0.9680 -1.6912  0.2714
  179SLPC  H14Y20513   4.958   4.106   8.603 -0.9146  0.3784 -0.0279
  179SLPC  C31520514   4.986   4.311   8.612 -0.6915 -0.5574 -0.6104
  179SLPC  H15X20515   5.091   4.309   8.650 -0.4906 -0.1269 -1.1294
  179SLPC  H15Y20516   4.938   4.401   8.654 -0.2137 -0.3264 -0.5580
  179SLPC  C31620517   4.980   4.336   8.458 -0.4253  0.2425  0.2347
  179SLPC  H16X20518   5.022   4.438   8.449  0.6219 -0.3143 -1.5786
  179SLPC  H16Y20519   4.871   4.334   8.437  0.0195  0.7636 -2.2864
  179SLPC  C31720520   5.060   4.230   8.376 -0.5722  0.6261 -0.0194
  179SLPC  H17X20521   5.069   4.128   8.420 -0.9571 -0.9754 -3.4667
  179SLPC  H17Y20522   5.163   4.270   8.364 -0.7196  1.7315  2.1064
  179SLPC  C31820523   5.008   4.207   8.233  0.0615 -0.4768 -0.7335
  179SLPC  H18X20524   4.999   4.305   8.179 -0.0392  0.0185  0.1769
  179SLPC  H18Y20525   4.908   4.159   8.232 -2.3825  4.1162  2.4552
  179SLPC  H18Z20526   5.075   4.150   8.165 -0.7728 -0.0913 -1.9109
  180SLPC     N20527   5.730   2.383  10.972 -0.7853 -0.1190  0.3171
  180SLPC   C1320528   5.587   2.405  10.969 -0.4560 -0.4476  0.7490
  180SLPC  H13A20529   5.568   2.486  10.901 -1.3280 -0.5407  0.8656
  180SLPC  H13B20530   5.533   2.321  10.928 -0.8728  0.5697 -0.8390
  180SLPC  H13C20531   5.542   2.427  11.065 -1.4027 -0.7258  0.3728
  180SLPC   C1420532   5.765   2.255  11.046  0.1161  1.0977  0.4391
  180SLPC  H14A20533   5.872   2.244  11.050  0.0489  0.6528  1.1585
  180SLPC  H14B20534   5.728   2.254  11.148  2.4848 -0.0891  1.3247
  180SLPC  H14C20535   5.720   2.166  11.006  1.4084  0.0813  1.2139
  180SLPC   C1520536   5.786   2.503  11.049 -0.6323  0.2498  0.4477
  180SLPC  H15A20537   5.892   2.502  11.027 -0.9955 -2.8121 -1.6205
  180SLPC  H15B20538   5.757   2.600  11.013  0.3844  1.0062  1.6440
  180SLPC  H15C20539   5.782   2.500  11.156  0.7589 -0.2385  0.4993
  180SLPC   C1220540   5.786   2.390  10.834 -0.0116 -0.2219 -0.0139
  180SLPC  H12A20541   5.892   2.368  10.831 -0.1013 -0.6757  0.0223
  180SLPC  H12B20542   5.774   2.490  10.796 -0.8545  0.1374  1.1913
  180SLPC   C1120543   5.720   2.299  10.722 -0.1293 -0.2404  0.8744
  180SLPC  H11A20544   5.757   2.329  10.622 -0.9103 -0.4584  0.5148
  180SLPC  H11B20545   5.612   2.323  10.711 -0.1917 -1.6274 -1.8438
  180SLPC     P20546   5.877   2.093  10.766  0.1833  0.1226 -0.0578
  180SLPC   O1320547   5.988   2.201  10.764  0.1679  0.2169 -0.0567
  180SLPC   O1420548   5.884   1.983  10.858 -0.2915  0.5230  0.3170
  180SLPC   O1220549   5.731   2.158  10.751 -1.1476  0.1441 -0.1530
  180SLPC   O1120550   5.886   2.029  10.620 -0.2397 -0.5797  0.3951
  180SLPC    C120551   5.895   2.114  10.502  0.2857  0.0612  0.1243
  180SLPC    HA20552   5.794   2.141  10.465  1.0287 -0.4222 -2.3140
  180SLPC    HB20553   5.954   2.206  10.522 -0.5549  0.5073  0.5897
  180SLPC    C220554   5.969   2.034  10.393 -0.7913 -0.6252  0.6422
  180SLPC    HS20555   6.064   2.000  10.439  0.3556  0.5525 -0.8056
  180SLPC   O2120556   5.982   2.121  10.274  0.2857  0.1218  0.5599
  180SLPC   C2120557   6.089   2.188  10.271 -0.1876  0.4590 -0.2934
  180SLPC   O2220558   6.180   2.187  10.355 -0.4088 -0.1338  0.3592
  180SLPC   C2220559   6.090   2.269  10.148 -0.0413  0.6543  0.9298
  180SLPC   H2R20560   6.090   2.375  10.182  2.9041  1.9288 -2.7901
  180SLPC   H2S20561   6.186   2.246  10.097 -0.3965  1.1463  0.0320
  180SLPC    C320562   5.882   1.907  10.356 -0.0922  0.2203 -0.0184
  180SLPC    HX20563   5.773   1.928  10.361 -0.1709 -0.1178 -0.2287
  180SLPC    HY20564   5.892   1.833  10.438  0.2919  1.4032  1.0205
  180SLPC   O3120565   5.902   1.852  10.221 -0.0827 -0.8665  0.2896
  180SLPC   C3120566   6.029   1.807  10.202 -0.3133  0.2986 -0.2383
  180SLPC   O3220567   6.116   1.799  10.289 -0.5573  0.3815  0.3343
  180SLPC   C3220568   6.053   1.769  10.055 -0.6865  0.0559  0.1471
  180SLPC   H2X20569   5.989   1.830   9.988 -1.4117  0.4612  1.1937
  180SLPC   H2Y20570   6.031   1.660  10.059  0.6004 -0.1577  1.9485
  180SLPC   C2320571   5.984   2.241  10.040  0.8739  0.5596  0.2120
  180SLPC   H3R20572   5.881   2.240  10.084 -0.8371 -1.5444 -3.6477
  180SLPC   H3S20573   6.007   2.151   9.980 -1.5079  1.7592 -2.6156
  180SLPC   C2420574   5.979   2.352   9.938 -0.2504 -0.3108  0.4542
  180SLPC   H4R20575   6.087   2.360   9.913 -0.7206  1.6738 -1.0173
  180SLPC   H4S20576   5.953   2.451   9.980  0.2190 -0.3975  0.9622
  180SLPC   C2520577   5.900   2.318   9.814 -0.0162 -0.8012  0.1514
  180SLPC   H5R20578   5.796   2.288   9.838 -0.5284  1.7879  1.2794
  180SLPC   H5S20579   5.939   2.222   9.772  0.7217 -1.0987  1.4765
  180SLPC   C2620580   5.910   2.424   9.708 -0.4620 -0.2652 -0.1782
  180SLPC   H6R20581   5.987   2.405   9.630 -3.0320  0.8259 -3.1026
  180SLPC   H6S20582   5.933   2.521   9.758 -2.4015  1.2009 -2.0230
  180SLPC   C2720583   5.772   2.434   9.641 -0.2355 -0.6854  0.1722
  180SLPC   H7R20584   5.785   2.513   9.564 -1.5858 -1.3877 -0.7859
  180SLPC   H7S20585   5.687   2.462   9.708 -0.6610 -0.3563 -0.5004
  180SLPC   C2820586   5.743   2.301   9.569  0.2671  0.3346  0.8011
  180SLPC   H8R20587   5.711   2.232   9.650 -2.3336  0.9780  0.3847
  180SLPC   H8S20588   5.839   2.270   9.524  0.5597  3.4163 -0.8236
  180SLPC   C2920589   5.621   2.310   9.486  0.5096 -0.0272  0.6292
  180SLPC   H9R20590   5.525   2.301   9.539  1.0691 -1.7944  1.3700
  180SLPC  C21020591   5.623   2.339   9.353  0.6940  0.4327 -0.3406
  180SLPC  H10R20592   5.529   2.353   9.297 -0.0443  0.3532  0.8596
  180SLPC  C21120593   5.749   2.363   9.270  0.3759  0.5704  0.1192
  180SLPC  H11R20594   5.744   2.323   9.166  0.2397  2.3795 -0.6016
  180SLPC  H11S20595   5.832   2.308   9.319 -1.3485 -1.4034  0.9086
  180SLPC  C21220596   5.795   2.507   9.271  0.5437  0.2062 -0.0140
  180SLPC  H12R20597   5.842   2.532   9.367 -0.5950  1.6575  0.1831
  180SLPC  C21320598   5.798   2.602   9.169  0.2450  0.2704 -0.3894
  180SLPC  H13R20599   5.837   2.704   9.182  0.2299  0.0730  1.2382
  180SLPC  C21420600   5.766   2.560   9.024  0.3266  0.1697 -0.1139
  180SLPC  H14R20601   5.669   2.507   9.018  1.0042 -0.7854 -3.8944
  180SLPC  H14S20602   5.841   2.499   8.969  1.4134  1.0543  0.3680
  180SLPC  C21520603   5.754   2.684   8.943 -0.3188 -0.4153 -0.3432
  180SLPC  H15R20604   5.844   2.749   8.935 -0.4362 -0.2794 -0.5493
  180SLPC  H15S20605   5.675   2.749   8.987  1.4385  2.1697 -0.9259
  180SLPC  C21620606   5.710   2.652   8.804  0.6128  0.0384 -0.7334
  180SLPC  H16R20607   5.613   2.599   8.812  0.0980  1.1904  1.1910
  180SLPC  H16S20608   5.786   2.589   8.753  1.1200 -1.7957  2.1685
  180SLPC  C21720609   5.698   2.776   8.716 -0.4297 -0.6451  0.0391
  180SLPC  H17R20610   5.792   2.833   8.731 -0.6839  0.6134 -2.8565
  180SLPC  H17S20611   5.616   2.843   8.749  0.3816  0.5876 -0.4237
  180SLPC  C21820612   5.690   2.754   8.563 -0.5376 -0.1691 -0.0249
  180SLPC  H18R20613   5.791   2.727   8.525 -1.4009 -1.9920 -1.0840
  180SLPC  H18S20614   5.676   2.853   8.513  0.2881  0.3712  0.7948
  180SLPC  H18T20615   5.612   2.690   8.516 -1.2162  0.9694 -0.4877
  180SLPC   C3320616   6.210   1.783  10.022  0.0546 -0.4993  0.2894
  180SLPC   H3X20617   6.271   1.765  10.113  2.3330 -1.6794 -1.4166
  180SLPC   H3Y20618   6.225   1.887   9.987 -1.4437 -0.0835  0.8545
  180SLPC   C3420619   6.241   1.692   9.902 -0.0475  0.0907  0.4042
  180SLPC   H4X20620   6.176   1.720   9.817 -0.8076  0.2066  1.0222
  180SLPC   H4Y20621   6.208   1.591   9.935  0.3625  0.2491  1.3277
  180SLPC   C3520622   6.379   1.707   9.845 -0.0438  0.6395 -0.0914
  180SLPC   H5X20623   6.454   1.679   9.922  1.6193  0.8272 -1.6255
  180SLPC   H5Y20624   6.391   1.806   9.797 -1.6259  0.2975 -1.2303
  180SLPC   C3620625   6.395   1.616   9.726 -0.2431  0.2360 -0.0663
  180SLPC   H6X20626   6.360   1.514   9.751 -0.9762  0.6084  0.4334
  180SLPC   H6Y20627   6.505   1.607   9.710 -0.7100 -4.5428 -1.2753
  180SLPC   C3720628   6.350   1.658   9.585  0.4147 -0.0382  0.5635
  180SLPC   H7X20629   6.400   1.583   9.520  1.0275  0.3232  0.6107
  180SLPC   H7Y20630   6.382   1.762   9.560 -2.1059  0.3884 -1.0530
  180SLPC   C3820631   6.196   1.630   9.560 -0.3208 -0.6179  0.3436
  180SLPC   H8X20632   6.123   1.701   9.605  1.1342  0.8144  0.4591
  180SLPC   H8Y20633   6.190   1.528   9.605  1.6726 -0.8437  0.1614
  180SLPC   C3920634   6.152   1.606   9.415  0.0217  0.1914  0.1305
  180SLPC   H9X20635   6.041   1.604   9.407 -0.0894  0.8973  1.3480
  180SLPC   H9Y20636   6.189   1.507   9.382  1.7147  0.4881  1.0970
  180SLPC  C31020637   6.201   1.717   9.316  0.2247 -0.5649  0.3773
  180SLPC  H10X20638   6.305   1.749   9.337 -0.0062  0.8685 -0.5370
  180SLPC  H10Y20639   6.126   1.797   9.334  2.1727  1.5875 -0.7097
  180SLPC  C31120640   6.189   1.673   9.170 -0.0427  0.1739  0.9119
  180SLPC  H11X20641   6.104   1.602   9.170 -0.9458  1.2270  2.9193
  180SLPC  H11Y20642   6.273   1.610   9.134  1.6498  2.1879  1.2114
  180SLPC  C31220643   6.151   1.794   9.078 -0.0980  0.3664 -0.0360
  180SLPC  H12X20644   6.223   1.871   9.112 -0.2188  1.3809 -1.9767
  180SLPC  H12Y20645   6.050   1.834   9.103 -0.4059  0.0092 -0.6966
  180SLPC  C31320646   6.157   1.767   8.924 -0.0975  0.4362 -0.3458
  180SLPC  H13X20647   6.261   1.740   8.895  0.5880  1.4898  1.0371
  180SLPC  H13Y20648   6.135   1.860   8.867 -0.9354  1.1951  1.1877
  180SLPC  C31420649   6.050   1.667   8.878  0.1913 -0.4131 -0.6900
  180SLPC  H14X20650   5.947   1.704   8.899  0.5356  0.5769 -0.7231
  180SLPC  H14Y20651   6.074   1.578   8.939 -1.2298  0.7907  1.6689
  180SLPC  C31520652   6.050   1.636   8.728  0.4491  0.2269  0.4865
  180SLPC  H15X20653   6.147   1.591   8.699  1.1390  1.5980  0.6180
  180SLPC  H15Y20654   6.028   1.732   8.675 -0.1177 -0.1024  0.1200
  180SLPC  C31620655   5.947   1.509   8.698 -0.4974 -0.5696  0.0666
  180SLPC  H16X20656   5.844   1.536   8.729 -0.1291 -0.4701  1.2181
  180SLPC  H16Y20657   5.986   1.424   8.757  0.7388  0.7792  1.2149
  180SLPC  C31720658   5.938   1.468   8.549 -0.2274 -0.0175 -0.0098
  180SLPC  H17X20659   5.878   1.541   8.491  0.5974 -0.1780 -1.0822
  180SLPC  H17Y20660   5.880   1.373   8.542  1.7052 -1.2393  0.2796
  180SLPC  C31820661   6.081   1.457   8.487  0.8325 -0.5504  0.2569
  180SLPC  H18X20662   6.145   1.546   8.505 -0.1664  0.2161  0.0666
  180SLPC  H18Y20663   6.078   1.428   8.380 -0.4933  2.0161 -0.4476
  180SLPC  H18Z20664   6.139   1.369   8.522  2.4410  0.0375 -0.8782
  181SLPC     N20665   2.257   6.312  11.187  0.1664  0.2776 -0.1851
  181SLPC   C1320666   2.352   6.197  11.160 -0.2671  0.4225  0.6210
  181SLPC  H13A20667   2.299   6.113  11.117  1.0470 -1.6477  2.9865
  181SLPC  H13B20668   2.433   6.234  11.099  3.1644 -1.0885  4.0947
  181SLPC  H13C20669   2.403   6.166  11.249  0.7962  1.2499  0.3090
  181SLPC   C1420670   2.209   6.378  11.055  0.3457  0.0334 -0.1138
  181SLPC  H14A20671   2.158   6.304  10.996  0.1866  0.0224  0.0375
  181SLPC  H14B20672   2.136   6.453  11.083 -0.5220 -1.1402  0.7936
  181SLPC  H14C20673   2.295   6.416  11.001 -0.8731  1.3082 -1.1717
  181SLPC   C1520674   2.334   6.421  11.255 -0.2583  0.9055  0.2457
  181SLPC  H15A20675   2.420   6.457  11.199  0.7565 -0.3623  0.9523
  181SLPC  H15B20676   2.276   6.506  11.286 -0.2546  0.4475  1.5452
  181SLPC  H15C20677   2.369   6.382  11.350 -3.1368 -2.0275  0.1805
  181SLPC   C1220678   2.146   6.264  11.275  0.0188 -0.1409 -0.6453
  181SLPC  H12A20679   2.176   6.209  11.364 -1.9198  1.1973  0.8631
  181SLPC  H12B20680   2.086   6.184  11.234  0.1892 -0.4144 -0.3634
  181SLPC   C1120681   2.048   6.372  11.329 -0.1151 -0.7133  0.9270
  181SLPC  H11A20682   2.114   6.430  11.397  0.1860 -0.2023  0.2149
  181SLPC  H11B20683   1.979   6.318  11.397  0.3809 -0.9307  1.2622
  181SLPC     P20684   1.924   6.594  11.266 -0.1705 -0.0513  0.0443
  181SLPC   O1320685   1.786   6.582  11.311 -0.5509  0.0211  0.7111
  181SLPC   O1420686   2.017   6.665  11.357 -0.4809 -0.2621  0.4476
  181SLPC   O1220687   1.978   6.450  11.232  0.1959  0.2573  0.4625
  181SLPC   O1120688   1.933   6.674  11.129  0.0069 -0.2369 -0.0398
  181SLPC    C120689   2.060   6.726  11.086  0.3362  0.1646 -0.3435
  181SLPC    HA20690   2.068   6.827  11.131  0.8632 -0.2037  0.3892
  181SLPC    HB20691   2.150   6.672  11.120 -0.1433 -0.1951  0.3594
  181SLPC    C220692   2.075   6.749  10.934  0.0009  0.0785 -0.3060
  181SLPC    HS20693   1.995   6.824  10.915 -1.8826 -0.9146  3.3092
  181SLPC   O2120694   2.061   6.626  10.865  0.3174  0.7449 -0.1915
  181SLPC   C2120695   1.982   6.625  10.755  0.1082 -0.2863 -0.7289
  181SLPC   O2220696   1.913   6.720  10.724 -0.1840 -0.0920 -0.1280
  181SLPC   C2220697   1.991   6.486  10.682  0.2563 -0.0534  0.0322
  181SLPC   H2R20698   2.042   6.415  10.750 -0.5399  0.0945  0.8000
  181SLPC   H2S20699   1.886   6.457  10.662  0.7338 -2.6173  1.1372
  181SLPC    C320700   2.215   6.796  10.894 -0.4954  0.1531  0.4393
  181SLPC    HX20701   2.287   6.721  10.933 -0.7785 -0.1696  0.3435
  181SLPC    HY20702   2.239   6.888  10.950  3.0200 -0.5053  0.1475
  181SLPC   O3120703   2.223   6.812  10.753 -0.2621  0.1711 -0.2827
  181SLPC   C3120704   2.174   6.929  10.715 -0.3725  0.2517 -0.4536
  181SLPC   O3220705   2.134   7.017  10.788 -0.1753  0.0617 -0.2593
  181SLPC   C3220706   2.194   6.954  10.568 -0.5242 -0.3418  0.0983
  181SLPC   H2X20707   2.173   7.062  10.554  2.3562  0.0532 -1.6989
  181SLPC   H2Y20708   2.112   6.893  10.524 -0.4330 -1.3573  1.3022
  181SLPC   C2320709   2.070   6.509  10.554 -0.5518 -0.0529  0.1984
  181SLPC   H3R20710   2.086   6.409  10.506  1.8295  0.4249 -0.1052
  181SLPC   H3S20711   2.176   6.537  10.575 -1.4160  4.3069 -0.7541
  181SLPC   C2420712   2.014   6.596  10.438  0.2609 -0.4464  0.1573
  181SLPC   H4R20713   1.995   6.699  10.475  2.3991 -0.2743  0.8267
  181SLPC   H4S20714   1.919   6.542  10.415 -0.1766  0.5962 -0.5059
  181SLPC   C2520715   2.103   6.581  10.321 -0.7165  0.0737  0.4771
  181SLPC   H5R20716   2.126   6.474  10.300 -1.9713 -0.7643  3.1730
  181SLPC   H5S20717   2.205   6.620  10.341 -1.1254  1.4024  0.0686
  181SLPC   C2620718   2.033   6.637  10.198 -0.0303 -0.4774 -0.4977
  181SLPC   H6R20719   1.998   6.738  10.229  0.6773  0.4264 -2.5974
  181SLPC   H6S20720   1.952   6.567  10.169 -1.2415 -0.6139  2.9530
  181SLPC   C2720721   2.135   6.650  10.086  0.6190  0.4154 -0.0984
  181SLPC   H7R20722   2.187   6.552  10.093  0.6816  0.5607  2.0093
  181SLPC   H7S20723   2.212   6.725  10.112  0.3131  0.5510  0.4329
  181SLPC   C2820724   2.077   6.689   9.944 -0.8109  0.4650  0.5876
  181SLPC   H8R20725   2.035   6.791   9.957 -1.8198  0.0648  0.5328
  181SLPC   H8S20726   1.993   6.621   9.920 -1.4992  1.0518  1.3143
  181SLPC   C2920727   2.177   6.684   9.829  0.4403  0.2360  0.4705
  181SLPC   H9R20728   2.236   6.591   9.832  1.3345  0.8260  1.0700
  181SLPC  C21020729   2.186   6.769   9.728 -0.1465  0.4642 -0.2270
  181SLPC  H10R20730   2.255   6.749   9.645 -0.6704  1.1074 -0.8220
  181SLPC  C21120731   2.098   6.892   9.701 -0.0704  0.2197  0.6829
  181SLPC  H11R20732   2.164   6.981   9.694 -0.0848  0.0270 -2.5522
  181SLPC  H11S20733   2.029   6.896   9.787 -0.3596  1.4763  0.4106
  181SLPC  C21220734   2.015   6.883   9.580  0.7189 -0.0769  0.4572
  181SLPC  H12R20735   1.910   6.871   9.611  0.8383 -1.0843  0.4816
  181SLPC  C21320736   2.054   6.876   9.454 -0.5708  0.2408  0.6543
  181SLPC  H13R20737   1.978   6.860   9.377 -0.4851 -1.2448  0.8676
  181SLPC  C21420738   2.198   6.897   9.408 -0.5007 -0.0838  0.6173
  181SLPC  H14R20739   2.223   6.835   9.319 -0.4544  0.3416  0.3338
  181SLPC  H14S20740   2.273   6.876   9.487 -2.9900 -1.0255  2.8260
  181SLPC  C21520741   2.216   7.046   9.364  0.6559  0.2148 -0.2976
  181SLPC  H15R20742   2.143   7.053   9.280  0.3607  0.6442 -0.0075
  181SLPC  H15S20743   2.315   7.074   9.322 -0.3629  1.3081 -2.0134
  181SLPC  C21620744   2.175   7.156   9.466 -0.5157 -0.2562 -0.3941
  181SLPC  H16R20745   2.246   7.163   9.551  0.8913 -0.6748 -1.5165
  181SLPC  H16S20746   2.072   7.129   9.498 -0.3903  0.3448  0.5408
  181SLPC  C21720747   2.164   7.297   9.402 -0.1478 -0.2463  0.1334
  181SLPC  H17R20748   2.110   7.366   9.470 -2.3152 -1.5553 -0.2066
  181SLPC  H17S20749   2.093   7.294   9.317 -0.3025 -0.7815  0.2773
  181SLPC  C21820750   2.297   7.363   9.372  0.6502 -0.1713  0.3409
  181SLPC  H18R20751   2.339   7.384   9.473  0.1400  2.4582  0.0347
  181SLPC  H18S20752   2.282   7.452   9.308  2.2535 -0.3117 -0.2695
  181SLPC  H18T20753   2.361   7.302   9.305 -1.6426 -1.1502 -1.0135
  181SLPC   C3320754   2.331   6.915  10.514  0.1643 -0.1124  0.4659
  181SLPC   H3X20755   2.327   6.805  10.499  0.1181 -0.3392  2.0872
  181SLPC   H3Y20756   2.416   6.927  10.585  1.7018 -1.5407 -1.0933
  181SLPC   C3420757   2.379   6.993  10.393  0.2789  0.2643 -0.3617
  181SLPC   H4X20758   2.483   6.961  10.368 -0.6385 -1.8634 -1.5708
  181SLPC   H4Y20759   2.381   7.101  10.420  0.4507  0.1501  0.1011
  181SLPC   C3520760   2.289   6.966  10.264  0.0775 -0.2698 -0.0358
  181SLPC   H5X20761   2.183   6.987  10.287  0.4595  0.8908  0.7606
  181SLPC   H5Y20762   2.293   6.859  10.237  1.5728 -0.3617  0.4940
  181SLPC   C3620763   2.336   7.042  10.135 -0.2038  0.2615 -0.3374
  181SLPC   H6X20764   2.366   7.144  10.167 -0.8851  0.0851  0.8743
  181SLPC   H6Y20765   2.251   7.043  10.063  1.1759 -3.2640 -2.1276
  181SLPC   C3720766   2.439   6.982  10.043 -0.5139 -0.2236  0.6159
  181SLPC   H7X20767   2.429   6.871  10.031  0.6418 -0.3129  0.4975
  181SLPC   H7Y20768   2.538   6.993  10.092 -0.0046  2.0941 -0.8849
  181SLPC   C3820769   2.436   7.043   9.903 -0.3313 -0.3225  0.0431
  181SLPC   H8X20770   2.448   7.153   9.910 -1.5462 -0.2394  0.9278
  181SLPC   H8Y20771   2.341   7.024   9.849  0.1060 -1.3110 -0.3987
  181SLPC   C3920772   2.551   6.992   9.812  0.2310 -0.7372 -0.0229
  181SLPC   H9X20773   2.558   6.883   9.828 -0.4486 -0.6589  0.8519
  181SLPC   H9Y20774   2.647   7.035   9.847 -1.4715  3.6237 -0.3548
  181SLPC  C31020775   2.523   7.017   9.665 -0.4520 -0.6458  0.6176
  181SLPC  H10X20776   2.495   7.123   9.650 -0.5203 -0.9026 -1.2466
  181SLPC  H10Y20777   2.430   6.959   9.643 -0.5997  0.6687 -2.3984
  181SLPC  C31120778   2.637   6.965   9.568 -0.1634  0.1774  0.0512
  181SLPC  H11X20779   2.651   6.859   9.597 -0.3037 -0.1664 -1.1341
  181SLPC  H11Y20780   2.722   7.032   9.594 -0.7719  1.8983 -2.2602
  181SLPC  C31220781   2.598   6.971   9.426  0.5623  0.6051 -0.2254
  181SLPC  H12X20782   2.492   6.946   9.403  1.1041  0.1117 -2.2555
  181SLPC  H12Y20783   2.659   6.897   9.371 -0.8081  1.0693 -2.3886
  181SLPC  C31320784   2.624   7.104   9.346  0.1441  0.0688  0.0753
  181SLPC  H13X20785   2.734   7.113   9.365  0.1460  1.9018 -0.7200
  181SLPC  H13Y20786   2.582   7.187   9.406  0.5661 -1.3646  2.4503
  181SLPC  C31420787   2.577   7.098   9.202 -0.5153  0.9274 -0.3813
  181SLPC  H14X20788   2.585   7.204   9.169  0.9383  0.9441  0.0113
  181SLPC  H14Y20789   2.473   7.060   9.190 -0.5158  1.3802 -1.8834
  181SLPC  C31520790   2.658   7.021   9.099  0.0643 -0.0257 -0.0409
  181SLPC  H15X20791   2.644   6.916   9.134  1.6968  0.3263  1.7485
  181SLPC  H15Y20792   2.768   7.038   9.108  0.2106  0.2253 -2.0426
  181SLPC  C31620793   2.605   7.025   8.953 -0.4030  0.4636 -0.2926
  181SLPC  H16X20794   2.495   7.012   8.942 -0.0762 -2.7378 -0.3534
  181SLPC  H16Y20795   2.650   6.933   8.909 -2.3621  0.0617 -1.4950
  181SLPC  C31720796   2.658   7.143   8.874  0.1310  0.0142  0.2263
  181SLPC  H17X20797   2.769   7.137   8.876  0.2348  1.7244  0.5702
  181SLPC  H17Y20798   2.632   7.240   8.922  0.6332  0.2371  0.0457
  181SLPC  C31820799   2.603   7.130   8.734 -0.4733 -0.4922  1.1398
  181SLPC  H18X20800   2.640   7.039   8.684  2.7008 -0.3738  3.1122
  181SLPC  H18Y20801   2.628   7.220   8.674 -2.6028 -1.8776 -1.9581
  181SLPC  H18Z20802   2.492   7.127   8.739 -0.6006 -1.3558 -1.4873
  182SLPC     N20803   1.119   1.103  10.892  0.0463 -0.2465  0.1071
  182SLPC   C1320804   1.088   1.036  10.767  0.0087  0.7874  0.4503
  182SLPC  H13A20805   0.980   1.036  10.757  0.1683  0.2899 -1.3877
  182SLPC  H13B20806   1.127   1.095  10.686  0.2955  0.5365  0.4051
  182SLPC  H13C20807   1.123   0.935  10.753  0.1884  1.0025 -0.7226
  182SLPC   C1420808   1.270   1.120  10.912  0.5191  0.1948 -0.4826
  182SLPC  H14A20809   1.292   1.168  11.006 -1.1474 -2.8976  1.5667
  182SLPC  H14B20810   1.311   1.021  10.908 -0.3981 -0.1452 -1.7599
  182SLPC  H14C20811   1.331   1.162  10.834  0.0239  0.4107 -0.7586
  182SLPC   C1520812   1.054   1.019  11.005  0.3216  0.2116  0.4713
  182SLPC  H15A20813   0.948   1.039  11.001 -0.1064 -2.0706 -0.9603
  182SLPC  H15B20814   1.062   0.912  10.990  0.1757  0.1963  0.5053
  182SLPC  H15C20815   1.098   1.042  11.100  0.6653 -1.3340  0.6999
  182SLPC   C1220816   1.054   1.241  10.894 -0.3301 -0.4281 -0.5866
  182SLPC  H12A20817   1.095   1.295  10.811 -1.2110 -0.3570 -0.9795
  182SLPC  H12B20818   1.076   1.301  10.981 -0.7015  0.1287 -0.8705
  182SLPC   C1120819   0.902   1.251  10.870  0.6131 -0.7019  0.4561
  182SLPC  H11A20820   0.881   1.192  10.779  1.4472 -0.4859  0.1195
  182SLPC  H11B20821   0.878   1.358  10.852  1.2869 -0.5067  0.6746
  182SLPC     P20822   0.695   1.120  10.969  0.4448 -0.1391 -0.1641
  182SLPC   O1320823   0.737   0.987  10.930  0.4367 -0.1125 -0.1545
  182SLPC   O1420824   0.622   1.124  11.094  0.2609 -0.0985 -0.1980
  182SLPC   O1220825   0.828   1.200  10.983 -0.4390  0.4438 -0.1122
  182SLPC   O1120826   0.603   1.188  10.857 -0.2198  0.2501  0.4800
  182SLPC    C120827   0.510   1.111  10.780  0.9703 -0.0369 -0.4173
  182SLPC    HA20828   0.493   1.009  10.819 -0.1578  0.2929 -0.0177
  182SLPC    HB20829   0.408   1.149  10.801  2.2677  3.9681 -0.9273
  182SLPC    C220830   0.525   1.133  10.624 -0.7826  0.1164  0.3313
  182SLPC    HS20831   0.445   1.071  10.577 -0.9951  0.5087  0.1785
  182SLPC   O2120832   0.655   1.102  10.585 -0.7344  0.8798  0.4754
  182SLPC   C2120833   0.688   0.975  10.584  0.2121  0.1107  0.6975
  182SLPC   O2220834   0.631   0.885  10.638  0.4268 -0.2997 -0.1770
  182SLPC   C2220835   0.817   0.960  10.507 -0.2369 -0.0965  0.3181
  182SLPC   H2R20836   0.906   0.992  10.564  0.0376 -1.2191  0.5201
  182SLPC   H2S20837   0.824   0.853  10.479  0.3782  0.0102  0.0582
  182SLPC    C320838   0.504   1.284  10.587 -0.1855 -0.3537  1.1337
  182SLPC    HX20839   0.601   1.326  10.619 -0.8244 -0.3720  3.1863
  182SLPC    HY20840   0.417   1.326  10.643 -1.4970  0.1343 -1.1926
  182SLPC   O3120841   0.492   1.311  10.443 -0.0145 -0.0291 -0.3404
  182SLPC   C3120842   0.383   1.269  10.386  0.0892 -0.0171 -0.7182
  182SLPC   O3220843   0.291   1.211  10.448 -0.1831  0.0616 -0.0847
  182SLPC   C3220844   0.374   1.328  10.243  0.1474  0.4566 -0.1163
  182SLPC   H2X20845   0.439   1.264  10.180  1.7073  3.6591 -1.9067
  182SLPC   H2Y20846   0.393   1.438  10.245 -0.0303  0.4731  1.1998
  182SLPC   C2320847   0.819   1.028  10.365  0.4500  0.2374 -0.1564
  182SLPC   H3R20848   0.917   1.006  10.318  0.9594 -1.2137  1.5294
  182SLPC   H3S20849   0.805   1.134  10.396  1.4970  1.2942 -3.1143
  182SLPC   C2420850   0.703   0.985  10.283  0.6285  0.0022  0.4423
  182SLPC   H4R20851   0.606   0.993  10.337 -0.0056 -0.6948 -0.5602
  182SLPC   H4S20852   0.713   0.877  10.260  0.0636  0.6381 -3.1323
  182SLPC   C2520853   0.668   1.060  10.151 -0.4376  0.2939  0.2204
  182SLPC   H5R20854   0.739   1.036  10.069 -0.9012  1.4384 -0.5341
  182SLPC   H5S20855   0.661   1.169  10.172  1.6002  0.5715 -0.4573
  182SLPC   C2620856   0.528   1.015  10.110 -0.1852 -0.1271 -0.7037
  182SLPC   H6R20857   0.451   1.035  10.187  0.8048  0.2610  0.1973
  182SLPC   H6S20858   0.532   0.905  10.098 -3.0844 -0.5659  1.8963
  182SLPC   C2720859   0.477   1.077   9.975 -0.0899 -0.1604 -0.9709
  182SLPC   H7R20860   0.497   1.186   9.961 -0.0755  0.1854  1.4543
  182SLPC   H7S20861   0.368   1.064   9.965  0.2682 -2.1072 -2.6160
  182SLPC   C2820862   0.521   0.996   9.858 -0.1217  0.3087 -0.5815
  182SLPC   H8R20863   0.456   0.906   9.853 -0.8468  0.8407 -0.7671
  182SLPC   H8S20864   0.628   0.972   9.879  0.2168  0.3773 -2.1321
  182SLPC   C2920865   0.501   1.071   9.728 -0.0545 -0.0889  0.4370
  182SLPC   H9R20866   0.477   1.178   9.740  2.3980  0.4871  0.5453
  182SLPC  C21020867   0.485   1.021   9.602  0.7723  0.2397 -0.1970
  182SLPC  H10R20868   0.484   1.085   9.513  2.6238 -0.5267 -0.7826
  182SLPC  C21120869   0.495   0.874   9.571 -0.6176  0.2437  0.7704
  182SLPC  H11R20870   0.404   0.844   9.514  0.2033 -0.9352  0.0384
  182SLPC  H11S20871   0.482   0.811   9.662 -2.0836 -2.4219 -1.1982
  182SLPC  C21220872   0.609   0.817   9.477  1.4692  0.0285 -0.0910
  182SLPC  H12R20873   0.700   0.783   9.529  0.8743  0.0097  0.9616
  182SLPC  C21320874   0.611   0.803   9.341 -0.8625 -0.1097  0.2998
  182SLPC  H13R20875   0.701   0.762   9.293 -0.4884 -0.1264  1.0109
  182SLPC  C21420876   0.493   0.849   9.254  0.1718 -0.5146 -0.1034
  182SLPC  H14R20877   0.394   0.858   9.303  0.4231 -3.2505  1.0135
  182SLPC  H14S20878   0.468   0.774   9.176  2.0557 -1.0157 -0.2461
  182SLPC  C21520879   0.526   0.975   9.168  0.8397 -0.1436  0.8949
  182SLPC  H15R20880   0.573   1.050   9.235  1.5530 -0.3452  0.6229
  182SLPC  H15S20881   0.427   1.015   9.136  0.6683  0.5989  2.3420
  182SLPC  C21620882   0.616   0.938   9.050 -0.7077 -0.1093 -0.1093
  182SLPC  H16R20883   0.711   0.898   9.092 -0.3504  0.6753 -0.1625
  182SLPC  H16S20884   0.639   1.038   9.006  1.5547 -0.3646  0.4618
  182SLPC  C21720885   0.568   0.846   8.936  0.0831 -0.2620  0.2272
  182SLPC  H17R20886   0.470   0.879   8.896  0.5605  3.0099  1.6082
  182SLPC  H17S20887   0.556   0.746   8.982  0.1974 -0.3457  0.0726
  182SLPC  C21820888   0.671   0.828   8.816  0.2206 -0.5634  0.1238
  182SLPC  H18R20889   0.666   0.913   8.745 -1.3627  1.2147  2.2967
  182SLPC  H18S20890   0.642   0.743   8.751  1.0326 -1.2699  0.6673
  182SLPC  H18T20891   0.771   0.810   8.860  0.9177  1.6379 -0.4981
  182SLPC   C3320892   0.232   1.309  10.194  0.1166 -0.3947 -0.1651
  182SLPC   H3X20893   0.168   1.371  10.261  3.9797  1.0714  2.3865
  182SLPC   H3Y20894   0.205   1.201  10.197 -2.2369  0.1952  0.9155
  182SLPC   C3420895   0.198   1.354  10.057  0.1853  0.5107  0.5701
  182SLPC   H4X20896   0.104   1.313  10.015  0.6364 -0.9741  0.9958
  182SLPC   H4Y20897   0.265   1.300   9.986  2.6521  0.5826  2.7474
  182SLPC   C3520898   0.214   1.504  10.041  0.4567  0.2972  0.6134
  182SLPC   H5X20899   0.311   1.557  10.043  0.6323  0.1243 -1.9180
  182SLPC   H5Y20900   0.157   1.551  10.124 -1.2210  1.4328 -1.1401
  182SLPC   C3620901   0.149   1.561   9.915 -0.0620 -0.1214 -0.0377
  182SLPC   H6X20902   0.142   1.671   9.928  3.6002  0.2164 -0.2390
  182SLPC   H6Y20903   0.058   1.505   9.886  0.2477  0.3049 -1.9451
  182SLPC   C3720904   0.249   1.536   9.793  0.4257  0.0110 -0.4820
  182SLPC   H7X20905   0.257   1.427   9.773 -1.3494 -0.5091  1.5036
  182SLPC   H7Y20906   0.349   1.578   9.818  0.2517  0.3849 -0.4041
  182SLPC   C3820907   0.204   1.581   9.654 -0.0377 -0.2805 -0.2464
  182SLPC   H8X20908   0.177   1.688   9.660  1.2165 -0.0053  0.6427
  182SLPC   H8Y20909   0.108   1.530   9.629 -2.1403  3.5783 -0.3505
  182SLPC   C3920910   0.303   1.568   9.540 -0.9573  0.7802 -0.2217
  182SLPC   H9X20911   0.386   1.641   9.547 -0.1635 -0.0817 -0.4901
  182SLPC   H9Y20912   0.270   1.602   9.440  1.6424  0.5349 -1.2159
  182SLPC  C31020913   0.362   1.428   9.515  0.0150 -0.9184  0.3611
  182SLPC  H10X20914   0.278   1.361   9.488  1.7765 -1.4708 -4.3598
  182SLPC  H10Y20915   0.414   1.398   9.608 -0.4161  0.1045  0.9396
  182SLPC  C31120916   0.444   1.424   9.389  0.1569  1.3474  0.4445
  182SLPC  H11X20917   0.513   1.339   9.410 -0.8831  0.3846  0.0103
  182SLPC  H11Y20918   0.509   1.513   9.374  0.5281  0.9875 -0.1311
  182SLPC  C31220919   0.360   1.394   9.259  0.6569 -0.5315 -0.8779
  182SLPC  H12X20920   0.278   1.464   9.232  1.4878  0.4512 -0.8933
  182SLPC  H12Y20921   0.309   1.297   9.273 -1.1640  0.3632 -1.2011
  182SLPC  C31320922   0.447   1.390   9.133 -0.7581 -0.5237 -0.1825
  182SLPC  H13X20923   0.498   1.293   9.145 -1.4784 -0.9094 -0.1996
  182SLPC  H13Y20924   0.524   1.470   9.131  1.3205 -2.4338  0.9974
  182SLPC  C31420925   0.367   1.397   9.006 -0.1804 -0.2582 -0.1606
  182SLPC  H14X20926   0.321   1.498   8.996 -1.2038 -0.6770  0.1916
  182SLPC  H14Y20927   0.297   1.311   9.014  0.4129 -0.7432 -0.1219
  182SLPC  C31520928   0.465   1.387   8.889  0.9167  0.3787 -0.3936
  182SLPC  H15X20929   0.520   1.292   8.900  1.1786  0.5487 -0.2154
  182SLPC  H15Y20930   0.551   1.457   8.880  1.2421 -0.0375 -0.5053
  182SLPC  C31620931   0.394   1.395   8.757 -0.0238  0.7484 -0.0548
  182SLPC  H16X20932   0.358   1.497   8.732 -0.2179  0.4889 -0.8527
  182SLPC  H16Y20933   0.308   1.324   8.750 -0.7729  1.8376 -2.4576
  182SLPC  C31720934   0.482   1.344   8.641  1.0080 -0.1830  0.5926
  182SLPC  H17X20935   0.499   1.234   8.652  1.5309  0.0245  1.9611
  182SLPC  H17Y20936   0.572   1.408   8.654  0.5737  0.3020  1.2275
  182SLPC  C31820937   0.403   1.371   8.505 -0.0753 -0.5490  0.4481
  182SLPC  H18X20938   0.323   1.448   8.515  0.1616  0.1636 -2.5307
  182SLPC  H18Y20939   0.361   1.276   8.466  1.1737 -1.0482  0.3063
  182SLPC  H18Z20940   0.474   1.410   8.429 -1.3848 -0.3915 -0.7284
  183SLPC     N20941   2.267   1.555  11.081 -0.0310 -0.4070 -0.1732
  183SLPC   C1320942   2.394   1.579  11.004  0.5384 -0.0435  0.1563
  183SLPC  H13A20943   2.375   1.552  10.901  0.5040  0.1455  0.1134
  183SLPC  H13B20944   2.424   1.683  11.000 -0.0195  0.0704 -1.5354
  183SLPC  H13C20945   2.473   1.512  11.033  1.5350 -0.0546 -2.4485
  183SLPC   C1420946   2.302   1.596  11.224  0.3550  0.0004  0.7811
  183SLPC  H14A20947   2.402   1.563  11.251  0.8748  0.7193 -0.2492
  183SLPC  H14B20948   2.310   1.703  11.223  1.0506 -0.0458 -0.7538
  183SLPC  H14C20949   2.226   1.557  11.290 -0.3623  0.0617 -0.0033
  183SLPC   C1520950   2.226   1.412  11.072 -0.1835 -0.5926  0.3814
  183SLPC  H15A20951   2.302   1.343  11.107 -0.8836 -2.5600 -1.8725
  183SLPC  H15B20952   2.131   1.394  11.120 -0.0874 -1.8889  0.1060
  183SLPC  H15C20953   2.200   1.386  10.971 -2.0727  0.9587  0.4408
  183SLPC   C1220954   2.166   1.646  11.020  0.6858  0.3079 -0.2456
  183SLPC  H12A20955   2.209   1.744  11.001 -1.9795  1.1637 -2.0495
  183SLPC  H12B20956   2.080   1.655  11.085  1.2863  1.0853  0.4668
  183SLPC   C1120957   2.105   1.614  10.880  0.5885 -0.9581  0.1031
  183SLPC  H11A20958   2.191   1.604  10.810 -0.9934  0.9703 -2.1878
  183SLPC  H11B20959   2.059   1.705  10.836  0.6165 -0.1555  1.7160
  183SLPC     P20960   1.864   1.511  10.927  0.0280 -0.1673 -0.0575
  183SLPC   O1320961   1.809   1.371  10.929 -0.0432 -0.7746  0.3369
  183SLPC   O1420962   1.848   1.588  11.054 -0.6490 -0.5996  0.1604
  183SLPC   O1220963   2.015   1.507  10.879 -0.6630 -0.2775  0.0854
  183SLPC   O1120964   1.788   1.588  10.815  0.3901  0.4642 -0.2707
  183SLPC    C120965   1.842   1.592  10.686 -0.2481 -0.3546  0.2616
  183SLPC    HA20966   1.939   1.646  10.676 -1.1542  1.0538 -1.1767
  183SLPC    HB20967   1.858   1.490  10.643 -2.7514 -0.5763 -0.1999
  183SLPC    C220968   1.745   1.667  10.592  0.5339 -0.5258 -1.2634
  183SLPC    HS20969   1.641   1.661  10.631  0.9507  1.5093  0.2518
  183SLPC   O2120970   1.751   1.614  10.454  0.2413 -0.4276  0.8294
  183SLPC   C2120971   1.678   1.505  10.443 -0.4746 -0.2924  0.2669
  183SLPC   O2220972   1.593   1.461  10.516  0.7093 -0.0014  0.3693
  183SLPC   C2220973   1.703   1.440  10.300  0.0132 -0.2630 -0.1336
  183SLPC   H2R20974   1.690   1.523  10.227 -0.0273 -1.1572 -1.1530
  183SLPC   H2S20975   1.805   1.401  10.321  0.6403  0.2913 -2.0393
  183SLPC    C320976   1.766   1.825  10.597 -0.3597 -0.0025 -0.5523
  183SLPC    HX20977   1.867   1.849  10.559 -1.0001  1.2368 -1.4834
  183SLPC    HY20978   1.761   1.839  10.708  1.0271 -0.4667 -0.4226
  183SLPC   O3120979   1.663   1.889  10.522  0.2250  0.1858 -0.1432
  183SLPC   C3120980   1.660   2.023  10.548  0.8550  0.5089  0.2323
  183SLPC   O3220981   1.716   2.073  10.640  0.4189 -0.6404 -0.6326
  183SLPC   C3220982   1.570   2.092  10.448 -0.0615 -0.4439 -0.2578
  183SLPC   H2X20983   1.558   2.193  10.491 -0.3974 -0.8471  0.6038
  183SLPC   H2Y20984   1.472   2.038  10.441  0.8089 -1.8840 -1.7320
  183SLPC   C2320985   1.597   1.329  10.275  0.2284 -0.2803  0.0607
  183SLPC   H3R20986   1.503   1.376  10.240  0.3432  0.7948  1.1651
  183SLPC   H3S20987   1.575   1.267  10.364  0.9893 -2.8490 -1.4922
  183SLPC   C2420988   1.645   1.230  10.167  0.1867 -0.3311  0.0382
  183SLPC   H4R20989   1.748   1.191  10.183  0.9731  1.6004 -0.1587
  183SLPC   H4S20990   1.665   1.292  10.077  0.6113 -1.2868 -0.5411
  183SLPC   C2520991   1.546   1.121  10.129 -0.5188  0.5035 -0.9163
  183SLPC   H5R20992   1.455   1.155  10.184 -2.4955 -2.9972 -1.9042
  183SLPC   H5S20993   1.580   1.026  10.175 -2.1608  0.7370  0.8631
  183SLPC   C2620994   1.519   1.108   9.983 -0.3273 -0.4766 -0.4765
  183SLPC   H6R20995   1.612   1.112   9.923 -0.4752 -0.6197 -0.7209
  183SLPC   H6S20996   1.465   1.195   9.938 -2.3146 -1.5218 -0.1710
  183SLPC   C2720997   1.432   0.987   9.940 -0.0819  0.1046  0.7596
  183SLPC   H7R20998   1.357   0.977  10.021  0.4729 -0.1400  1.2442
  183SLPC   H7S20999   1.488   0.892   9.945  1.4739  1.0224  1.0486
  183SLPC   C2821000   1.370   1.018   9.805  0.3788  0.8526  0.6547
  183SLPC   H8R21001   1.288   1.093   9.811 -1.5909 -1.1306 -0.7197
  183SLPC   H8S21002   1.315   0.927   9.772 -0.3385  0.5543  2.5565
  183SLPC   C2921003   1.456   1.079   9.695 -0.1221 -1.2109 -0.0779
  183SLPC   H9R21004   1.484   1.184   9.714  0.0387 -1.0113 -1.3324
  183SLPC  C21021005   1.485   1.026   9.572 -0.5822  0.4460 -0.1007
  183SLPC  H10R21006   1.555   1.075   9.503  0.8133 -1.9693 -0.4362
  183SLPC  C21121007   1.447   0.888   9.534  0.2614  0.4929  0.2381
  183SLPC  H11R21008   1.413   0.827   9.620  0.0961 -0.9450 -0.8258
  183SLPC  H11S21009   1.532   0.848   9.476 -1.1719 -0.0733 -1.4937
  183SLPC  C21221010   1.322   0.917   9.454 -0.3921  0.4711 -0.1097
  183SLPC  H12R21011   1.252   0.987   9.502  1.2955  1.8229  0.4048
  183SLPC  C21321012   1.286   0.852   9.340 -0.3163 -0.3331  0.2549
  183SLPC  H13R21013   1.200   0.886   9.280  1.3465  0.7096 -1.5839
  183SLPC  C21421014   1.377   0.755   9.266 -0.7119 -0.0179  0.5315
  183SLPC  H14R21015   1.315   0.663   9.252  0.9208 -1.1380  0.5764
  183SLPC  H14S21016   1.463   0.717   9.325 -0.0786  0.9492  0.2269
  183SLPC  C21521017   1.431   0.793   9.128  0.2117 -1.0958  0.4792
  183SLPC  H15R21018   1.529   0.845   9.137 -1.7371  2.9402 -0.4814
  183SLPC  H15S21019   1.373   0.877   9.085 -0.3644 -2.3896 -1.3618
  183SLPC  C21621020   1.438   0.681   9.020 -0.0679  0.4431 -0.5079
  183SLPC  H16R21021   1.477   0.594   9.078 -1.0140  1.5478  1.8331
  183SLPC  H16S21022   1.499   0.722   8.936  0.1896 -0.0012 -0.5458
  183SLPC  C21721023   1.302   0.642   8.966  0.4728  0.3790  0.8648
  183SLPC  H17R21024   1.258   0.725   8.906  2.1145 -0.7558 -2.0255
  183SLPC  H17S21025   1.239   0.626   9.056  2.1062 -0.8095  1.8186
  183SLPC  C21821026   1.310   0.512   8.885  0.0129  0.5917  0.5074
  183SLPC  H18R21027   1.234   0.485   8.808  2.0567 -1.6690 -0.7936
  183SLPC  H18S21028   1.305   0.429   8.958  0.5462 -2.6245 -2.9553
  183SLPC  H18T21029   1.404   0.499   8.827 -0.8812  0.8626 -1.0373
  183SLPC   C3321030   1.632   2.109  10.309  0.8734  0.6305 -0.0231
  183SLPC   H3X21031   1.546   2.133  10.243  0.6937  0.4498  0.1452
  183SLPC   H3Y21032   1.684   2.017  10.274 -1.7703 -0.5020 -1.1609
  183SLPC   C3421033   1.736   2.223  10.293 -0.4315 -0.4229  0.2359
  183SLPC   H4X21034   1.836   2.183  10.320 -0.6797 -1.6675 -0.6387
  183SLPC   H4Y21035   1.714   2.302  10.368 -1.5329  0.1287 -0.6472
  183SLPC   C3521036   1.754   2.297  10.163  0.2503  0.8420 -0.3801
  183SLPC   H5X21037   1.840   2.366  10.180  1.0375 -0.5537  1.3694
  183SLPC   H5Y21038   1.661   2.358  10.153 -0.6309 -0.2415  1.0596
  183SLPC   C3621039   1.765   2.215  10.038 -0.2208  0.4117 -0.0696
  183SLPC   H6X21040   1.670   2.161  10.019  0.3478 -0.4041 -0.6014
  183SLPC   H6Y21041   1.844   2.139  10.056 -0.7038 -0.2032 -0.5056
  183SLPC   C3721042   1.795   2.297   9.911  0.2731  0.6950 -0.1004
  183SLPC   H7X21043   1.899   2.335   9.903  0.9351 -1.0119  0.3604
  183SLPC   H7Y21044   1.731   2.385   9.889 -1.4981 -0.9145 -1.5736
  183SLPC   C3821045   1.796   2.201   9.784  0.3134 -0.3498  0.1103
  183SLPC   H8X21046   1.689   2.173   9.772  0.1560 -0.9830  2.7016
  183SLPC   H8Y21047   1.866   2.116   9.803  0.3997 -0.5382 -1.0462
  183SLPC   C3921048   1.852   2.279   9.658  0.3700  0.1603 -0.0435
  183SLPC   H9X21049   1.935   2.346   9.690 -0.2142  0.1278  1.5966
  183SLPC   H9Y21050   1.769   2.348   9.633  0.8102 -0.1621 -2.5815
  183SLPC  C31021051   1.898   2.185   9.546 -0.6963  0.1736  0.8057
  183SLPC  H10X21052   1.819   2.106   9.539  1.0563 -1.4646 -1.2430
  183SLPC  H10Y21053   1.980   2.118   9.581  0.0112  0.2991 -0.6001
  183SLPC  C31121054   1.948   2.256   9.418 -0.1527  0.0593 -0.6326
  183SLPC  H11X21055   2.040   2.317   9.431 -1.2682  1.5644  0.3189
  183SLPC  H11Y21056   1.857   2.314   9.390  0.2794  0.0622 -2.0415
  183SLPC  C31221057   1.977   2.164   9.294 -0.2260 -0.0134  0.1431
  183SLPC  H12X21058   1.892   2.096   9.277 -2.5756  3.0918 -0.9817
  183SLPC  H12Y21059   2.073   2.107   9.292 -1.0558 -1.3569 -1.9135
  183SLPC  C31321060   1.991   2.257   9.174 -0.1737  0.4380  0.9183
  183SLPC  H13X21061   2.061   2.341   9.191  1.2213 -1.1196  3.1812
  183SLPC  H13Y21062   1.895   2.312   9.164 -0.6358 -0.8237 -2.2343
  183SLPC  C31421063   2.014   2.193   9.038  0.5127  1.0360  0.7060
  183SLPC  H14X21064   2.115   2.148   9.038 -0.4233 -1.1084 -0.0320
  183SLPC  H14Y21065   2.020   2.272   8.960 -0.9985  0.3637 -0.0978
  183SLPC  C31521066   1.901   2.100   8.991  0.8061  0.1665  0.3156
  183SLPC  H15X21067   1.799   2.141   9.005 -0.1237 -2.1930  0.6104
  183SLPC  H15Y21068   1.902   2.008   9.052 -1.7256 -0.5529 -0.6681
  183SLPC  C31621069   1.913   2.059   8.847  0.0035  0.0147  0.3573
  183SLPC  H16X21070   2.021   2.035   8.837 -0.5102 -1.7179 -1.2262
  183SLPC  H16Y21071   1.882   2.140   8.778 -0.7421 -0.7005 -0.1426
  183SLPC  C31721072   1.835   1.936   8.809  0.5301  0.3125 -0.8395
  183SLPC  H17X21073   1.726   1.961   8.808  0.6977  1.3271  1.8641
  183SLPC  H17Y21074   1.859   1.863   8.890 -2.3513 -0.4939 -0.6522
  183SLPC  C31821075   1.867   1.889   8.672  0.6041 -0.3923 -0.5721
  183SLPC  H18X21076   1.798   1.806   8.644 -1.1589  0.0309  2.3881
  183SLPC  H18Y21077   1.975   1.862   8.673  0.9509  0.9782  0.0660
  183SLPC  H18Z21078   1.850   1.974   8.603 -1.5680 -0.9280 -0.7226
  184SLPC     N21079   3.709   5.956  10.660 -0.1364 -0.9620  0.6165
  184SLPC   C1321080   3.713   5.865  10.544 -0.3386 -0.0163 -0.0730
  184SLPC  H13A21081   3.674   5.766  10.563  1.9211 -1.1366 -1.0352
  184SLPC  H13B21082   3.675   5.905  10.451  0.5993  0.7162 -0.1416
  184SLPC  H13C21083   3.821   5.855  10.539 -0.3819 -0.3452 -0.3940
  184SLPC   C1421084   3.793   5.902  10.772  0.0976  0.5510 -0.1610
  184SLPC  H14A21085   3.783   5.955  10.865  1.8509 -1.0080  0.9488
  184SLPC  H14B21086   3.761   5.801  10.795 -1.3133  1.3086  1.2788
  184SLPC  H14C21087   3.894   5.898  10.735 -0.0485 -0.6971 -0.4636
  184SLPC   C1521088   3.568   5.965  10.698  0.2629 -1.2250 -0.5049
  184SLPC  H15A21089   3.530   5.879  10.751 -2.5741  0.2311 -0.0908
  184SLPC  H15B21090   3.541   6.049  10.761  2.3015  0.4557 -1.7920
  184SLPC  H15C21091   3.505   5.973  10.611 -3.6319 -1.2166  2.1852
  184SLPC   C1221092   3.755   6.091  10.617 -0.7377  0.2878  0.3976
  184SLPC  H12A21093   3.752   6.165  10.696  2.9653  0.6074  0.3176
  184SLPC  H12B21094   3.675   6.131  10.557 -0.8159 -0.4247  0.0232
  184SLPC   C1121095   3.887   6.105  10.542 -0.1849 -0.2141 -0.0687
  184SLPC  H11A21096   3.884   6.209  10.504  0.4675 -0.4704 -0.8262
  184SLPC  H11B21097   3.897   6.040  10.453  0.7464  0.4043 -0.4194
  184SLPC     P21098   4.130   6.013  10.589 -0.0699 -0.2311  0.2029
  184SLPC   O1321099   4.229   6.019  10.698  0.1397 -0.2068  0.0530
  184SLPC   O1421100   4.092   5.875  10.544  0.6188 -0.3636 -0.1012
  184SLPC   O1221101   3.996   6.089  10.634  0.7324 -0.2426 -0.1705
  184SLPC   O1121102   4.176   6.108  10.468 -0.3099  0.0642 -0.8463
  184SLPC    C121103   4.244   6.048  10.356  0.6166  0.4414 -0.0463
  184SLPC    HA21104   4.315   6.118  10.309 -0.1922  0.5058 -1.1915
  184SLPC    HB21105   4.306   5.959  10.381 -1.3188 -0.4967  1.6525
  184SLPC    C221106   4.143   6.016  10.238  0.0030 -0.0609  0.0475
  184SLPC    HS21107   4.053   5.959  10.271 -1.2395  0.1576 -2.8589
  184SLPC   O2121108   4.218   5.956  10.128  0.1354 -0.4350  0.3442
  184SLPC   C2121109   4.235   5.828  10.144  0.9267 -0.2995  0.8841
  184SLPC   O2221110   4.208   5.761  10.237 -0.1741 -0.3993 -0.3629
  184SLPC   C2221111   4.270   5.773  10.011 -0.3278 -0.1848 -0.1401
  184SLPC   H2R21112   4.189   5.704   9.979 -0.2180 -0.7358  0.7528
  184SLPC   H2S21113   4.254   5.852   9.934  0.8537 -0.4843 -0.7029
  184SLPC    C321114   4.074   6.149  10.181 -0.2440  0.6158  0.0634
  184SLPC    HX21115   4.149   6.220  10.141 -1.2312  0.1884 -2.7020
  184SLPC    HY21116   4.024   6.207  10.261  0.4308 -0.5600  1.3553
  184SLPC   O3121117   3.982   6.114  10.073  0.5198  0.1298 -0.5474
  184SLPC   C3121118   3.862   6.162  10.069  0.5342 -0.7833  0.2072
  184SLPC   O3221119   3.805   6.227  10.156 -0.1570  0.4238  0.2289
  184SLPC   C3221120   3.812   6.132   9.928  0.5012 -0.1850 -0.3454
  184SLPC   H2X21121   3.787   6.023   9.921  0.8743 -0.2637 -0.4545
  184SLPC   H2Y21122   3.892   6.154   9.855  0.5089 -1.0131 -0.5928
  184SLPC   C2321123   4.412   5.710   9.999  0.0502  0.4627  0.3090
  184SLPC   H3R21124   4.420   5.618  10.061  0.5883 -1.3897 -2.4252
  184SLPC   H3S21125   4.495   5.772  10.038 -0.1290  1.5614 -1.0088
  184SLPC   C2421126   4.463   5.669   9.860  0.0902  0.5407 -0.3763
  184SLPC   H4R21127   4.573   5.660   9.862  0.0420 -0.0024 -0.1212
  184SLPC   H4S21128   4.456   5.751   9.785  0.6768 -0.8064 -1.9234
  184SLPC   C2521129   4.401   5.550   9.791 -0.1839 -0.3355 -0.3425
  184SLPC   H5R21130   4.322   5.577   9.719  0.0082  1.2602  0.0278
  184SLPC   H5S21131   4.353   5.486   9.869 -1.6838  0.8748 -0.2599
  184SLPC   C2621132   4.504   5.467   9.713  0.1104 -0.5858 -0.8874
  184SLPC   H6R21133   4.579   5.437   9.790  0.7059  0.6264 -0.9767
  184SLPC   H6S21134   4.577   5.526   9.653  1.1943  0.4238  1.3425
  184SLPC   C2721135   4.463   5.352   9.619  0.6409 -0.8284 -0.3702
  184SLPC   H7R21136   4.359   5.323   9.644 -0.1205  1.2233 -1.0534
  184SLPC   H7S21137   4.519   5.262   9.653  1.7096 -0.2679 -0.6122
  184SLPC   C2821138   4.485   5.382   9.467 -1.3581  0.2683 -0.3065
  184SLPC   H8R21139   4.578   5.439   9.449 -1.6828  0.3709 -1.7807
  184SLPC   H8S21140   4.408   5.460   9.446 -1.6184  0.0023 -0.3430
  184SLPC   C2921141   4.480   5.263   9.382 -0.4980  0.6675 -0.5199
  184SLPC   H9R21142   4.565   5.197   9.405  0.3471  1.9814  0.1487
  184SLPC  C21021143   4.400   5.236   9.278  0.6863 -0.5106  0.0083
  184SLPC  H10R21144   4.421   5.150   9.212 -0.7378 -1.0820  0.2768
  184SLPC  C21121145   4.289   5.327   9.225 -0.9828 -0.3913  0.8176
  184SLPC  H11R21146   4.313   5.365   9.124 -1.3768 -3.5302 -0.5128
  184SLPC  H11S21147   4.278   5.419   9.286 -0.5148 -0.0877  0.4453
  184SLPC  C21221148   4.159   5.249   9.229 -0.3095  0.6098  0.1572
  184SLPC  H12R21149   4.143   5.190   9.320 -0.5714 -0.0653 -0.3245
  184SLPC  C21321150   4.067   5.248   9.127 -0.3043 -0.7468  0.4078
  184SLPC  H13R21151   3.974   5.189   9.130  0.3202 -1.6807  2.4544
  184SLPC  C21421152   4.072   5.321   8.998 -1.0332  0.4097  0.4108
  184SLPC  H14R21153   4.079   5.251   8.912  1.1460 -0.7263  1.4669
  184SLPC  H14S21154   4.160   5.389   8.999 -0.3482 -0.4574  0.5670
  184SLPC  C21521155   3.945   5.404   8.986  0.4755 -0.0922 -0.0059
  184SLPC  H15R21156   3.931   5.468   9.075  2.4392 -0.2994  0.4726
  184SLPC  H15S21157   3.862   5.330   8.979  0.0855  0.3064  0.4101
  184SLPC  C21621158   3.935   5.485   8.864 -0.1375  0.0581  0.2546
  184SLPC  H16R21159   3.956   5.425   8.773 -0.4737 -0.5508  0.5708
  184SLPC  H16S21160   4.017   5.560   8.865 -1.0902  1.2080 -2.9936
  184SLPC  C21721161   3.794   5.547   8.855  0.5397  0.3564  0.4022
  184SLPC  H17R21162   3.800   5.610   8.947  2.1825 -0.3079  0.7545
  184SLPC  H17S21163   3.717   5.469   8.871 -1.1067  1.7452 -0.6117
  184SLPC  C21821164   3.773   5.627   8.722 -0.4305  0.2082 -0.5208
  184SLPC  H18R21165   3.779   5.567   8.629 -0.1427  1.4862 -1.3350
  184SLPC  H18S21166   3.846   5.711   8.721 -1.4346  1.0862 -1.2029
  184SLPC  H18T21167   3.672   5.671   8.734 -0.1463  0.2291  2.2684
  184SLPC   C3321168   3.692   6.225   9.893  0.3702  0.6398 -0.2335
  184SLPC   H3X21169   3.732   6.327   9.911  0.2995  0.5203  0.6253
  184SLPC   H3Y21170   3.605   6.204   9.960 -0.5145  1.0680 -1.2301
  184SLPC   C3421171   3.644   6.208   9.742 -0.0440 -0.1073 -0.7162
  184SLPC   H4X21172   3.567   6.288   9.729 -1.0793 -1.2905 -1.9587
  184SLPC   H4Y21173   3.597   6.108   9.744  0.2545 -0.2427 -0.4676
  184SLPC   C3521174   3.753   6.208   9.635 -0.3515  0.4936 -0.5332
  184SLPC   H5X21175   3.803   6.109   9.647 -1.4706  0.0312  0.4799
  184SLPC   H5Y21176   3.814   6.298   9.657  0.0694 -0.0732  0.6847
  184SLPC   C3621177   3.698   6.227   9.485  0.5461 -0.0948  0.0271
  184SLPC   H6X21178   3.616   6.301   9.480 -0.2326 -1.0904 -2.7164
  184SLPC   H6Y21179   3.646   6.132   9.460  1.6377 -0.9890  1.0487
  184SLPC   C3721180   3.811   6.258   9.388 -0.3889  0.1988 -0.5526
  184SLPC   H7X21181   3.874   6.167   9.379  0.2928  0.4041  1.7881
  184SLPC   H7Y21182   3.880   6.332   9.433  0.5653 -1.8099  1.3784
  184SLPC   C3821183   3.768   6.307   9.252  0.0298  0.0130  0.4180
  184SLPC   H8X21184   3.700   6.394   9.267  2.2186  1.5068  1.9323
  184SLPC   H8Y21185   3.712   6.237   9.186  1.2159  0.9630 -1.6499
  184SLPC   C3921186   3.885   6.362   9.168 -0.3470  0.3949  0.2677
  184SLPC   H9X21187   3.965   6.287   9.150  0.4205  1.5985 -1.5330
  184SLPC   H9Y21188   3.931   6.438   9.235  1.7880 -0.6453  0.0194
  184SLPC  C31021189   3.846   6.429   9.030 -0.2841  0.1289 -0.0277
  184SLPC  H10X21190   3.753   6.489   9.039  0.3889  1.0165  1.1638
  184SLPC  H10Y21191   3.831   6.342   8.962 -1.1544  0.0355  0.2848
  184SLPC  C31121192   3.948   6.522   8.976  0.2908 -0.0965  0.5445
  184SLPC  H11X21193   4.042   6.462   8.978 -0.5727 -1.5315 -1.1212
  184SLPC  H11Y21194   3.983   6.604   9.043  0.4793  1.3202 -1.2424
  184SLPC  C31221195   3.939   6.583   8.833  0.2087 -0.7201  0.0249
  184SLPC  H12X21196   4.024   6.652   8.821  1.1534 -2.0297 -0.9912
  184SLPC  H12Y21197   3.847   6.642   8.810 -0.0157 -1.1988 -0.3183
  184SLPC  C31321198   3.949   6.484   8.721 -0.3828  0.2954 -0.2445
  184SLPC  H13X21199   3.862   6.415   8.720  0.5925 -1.0198  1.9805
  184SLPC  H13Y21200   4.033   6.416   8.744  0.7954  1.1370 -1.9575
  184SLPC  C31421201   3.972   6.538   8.586  0.2587 -0.2412 -0.5890
  184SLPC  H14X21202   3.892   6.611   8.564 -0.8714 -1.0260  0.8176
  184SLPC  H14Y21203   3.962   6.466   8.502 -1.1663 -0.3943 -0.3000
  184SLPC  C31521204   4.118   6.585   8.570 -0.2578 -0.0625 -0.3644
  184SLPC  H15X21205   4.183   6.513   8.625 -1.5213 -0.1343  1.0656
  184SLPC  H15Y21206   4.108   6.675   8.636 -1.0807 -0.3047 -0.1624
  184SLPC  C31621207   4.165   6.610   8.420  0.2781 -0.3163 -0.8033
  184SLPC  H16X21208   4.262   6.661   8.437  0.0749  0.1827 -1.1403
  184SLPC  H16Y21209   4.099   6.686   8.374 -0.7573 -0.2539  0.7457
  184SLPC  C31721210   4.184   6.486   8.332 -0.4571  0.1897  0.0707
  184SLPC  H17X21211   4.097   6.419   8.315 -0.7492 -0.0947  2.4177
  184SLPC  H17Y21212   4.257   6.428   8.392  0.7168  2.1909  0.6378
  184SLPC  C31821213   4.244   6.512   8.200 -0.2526  0.0651 -0.5222
  184SLPC  H18X21214   4.287   6.423   8.149  0.3599  0.0478  0.0240
  184SLPC  H18Y21215   4.324   6.589   8.208 -2.0036  1.7437  1.2945
  184SLPC  H18Z21216   4.185   6.561   8.120 -0.5778 -0.0758 -0.3709
  185SLPC     N21217   2.406   2.436   6.625  0.1293  0.0383 -0.2086
  185SLPC   C1321218   2.420   2.368   6.760  0.1761 -0.5643 -0.2598
  185SLPC  H13A21219   2.515   2.320   6.779  0.4686  0.0037 -0.2787
  185SLPC  H13B21220   2.401   2.442   6.837 -1.6183 -2.9173  1.6521
  185SLPC  H13C21221   2.346   2.291   6.778 -0.6259  0.2912  0.1744
  185SLPC   C1421222   2.429   2.331   6.520  0.1391  0.1994 -0.1768
  185SLPC  H14A21223   2.371   2.250   6.563  1.5251  0.1011  1.5226
  185SLPC  H14B21224   2.402   2.346   6.416  1.1488 -0.9008 -0.6053
  185SLPC  H14C21225   2.532   2.302   6.525  0.0407 -0.3612 -1.1560
  185SLPC   C1521226   2.508   2.545   6.613 -0.1664 -0.0640 -0.2463
  185SLPC  H15A21227   2.607   2.505   6.597 -0.0120 -0.6357  1.9965
  185SLPC  H15B21228   2.499   2.605   6.523 -1.2198  1.7345  1.0331
  185SLPC  H15C21229   2.509   2.618   6.693 -0.2794  0.3691 -0.6381
  185SLPC   C1221230   2.264   2.494   6.612  0.3827 -0.7577 -0.7122
  185SLPC  H12A21231   2.247   2.536   6.514 -2.2229 -2.4954 -1.0632
  185SLPC  H12B21232   2.252   2.580   6.677  1.0779 -1.3005  0.1512
  185SLPC   C1121233   2.148   2.388   6.633 -0.2668 -0.2901 -0.6458
  185SLPC  H11A21234   2.053   2.442   6.652 -0.5685 -1.0471  0.0271
  185SLPC  H11B21235   2.164   2.341   6.733 -1.2791  0.4769 -0.1181
  185SLPC     P21236   2.078   2.165   6.528  0.1146  0.1862 -0.3040
  185SLPC   O1321237   1.954   2.152   6.447  0.1654 -0.0074  0.2629
  185SLPC   O1421238   2.180   2.059   6.499 -0.7632 -0.5133  0.3084
  185SLPC   O1221239   2.146   2.298   6.522 -0.1792 -0.5204 -0.0042
  185SLPC   O1121240   2.031   2.151   6.683  0.0184 -0.4804 -1.0093
  185SLPC    C121241   1.981   2.038   6.753 -0.5426  0.5751  0.6640
  185SLPC    HA21242   1.883   2.007   6.712 -1.3786  1.4939  1.9332
  185SLPC    HB21243   2.049   1.950   6.749 -2.4204 -0.9241  1.2284
  185SLPC    C221244   1.956   2.078   6.898 -0.1450 -0.3605 -0.2847
  185SLPC    HS21245   2.062   2.090   6.930 -0.3854  0.8422  0.0954
  185SLPC   O2121246   1.905   1.956   6.963  0.4946  0.4471 -0.2866
  185SLPC   C2121247   1.984   1.903   7.057  0.4805  0.2687 -0.2952
  185SLPC   O2221248   2.100   1.933   7.085 -0.9941  0.9268  0.3326
  185SLPC   C2221249   1.905   1.802   7.139  0.4005 -0.5686  0.4546
  185SLPC   H2R21250   1.797   1.821   7.124  0.1269 -0.8660  1.8888
  185SLPC   H2S21251   1.936   1.702   7.101 -0.5265 -0.7440  0.1494
  185SLPC    C321252   1.869   2.201   6.926 -0.7939  0.8012  0.5582
  185SLPC    HX21253   1.762   2.185   6.899 -0.7503  1.9116 -0.2944
  185SLPC    HY21254   1.899   2.289   6.865 -2.0889  0.8554 -0.0125
  185SLPC   O3121255   1.863   2.239   7.067  0.3246 -0.6335 -0.0459
  185SLPC   C3121256   1.975   2.292   7.123  0.9616  0.1108 -0.5133
  185SLPC   O3221257   2.074   2.315   7.062 -0.3618 -0.0467  0.1244
  185SLPC   C3221258   1.953   2.320   7.271 -0.3178  0.3404 -1.0370
  185SLPC   H2X21259   1.878   2.249   7.313 -0.5941 -0.1171 -2.2804
  185SLPC   H2Y21260   1.917   2.425   7.272  1.6864  1.0918  2.3293
  185SLPC   C2321261   1.938   1.817   7.289 -0.0953 -0.1754  1.0059
  185SLPC   H3R21262   2.048   1.817   7.302 -0.0248 -0.5218  0.4093
  185SLPC   H3S21263   1.892   1.733   7.346 -1.2869 -0.6683 -0.6478
  185SLPC   C2421264   1.881   1.944   7.353  0.1166  0.5254  0.2643
  185SLPC   H4R21265   1.776   1.937   7.389  0.4824  2.6891  1.8510
  185SLPC   H4S21266   1.898   2.026   7.280  2.0688 -0.1924 -0.1160
  185SLPC   C2521267   1.949   1.993   7.485 -0.0137 -0.0686  0.2262
  185SLPC   H5R21268   1.903   2.093   7.502  2.4651  0.7790  2.3684
  185SLPC   H5S21269   2.051   2.024   7.453 -0.1406  2.4371  2.0514
  185SLPC   C2621270   1.935   1.908   7.614 -0.0424  0.3695  0.7384
  185SLPC   H6R21271   1.984   1.810   7.599 -2.6474 -0.9083  0.2281
  185SLPC   H6S21272   1.827   1.888   7.630  0.4945 -3.2882  0.1906
  185SLPC   C2721273   2.009   1.966   7.740  0.0182  0.2147 -0.2460
  185SLPC   H7R21274   1.949   2.049   7.783  1.5379  0.6708  1.0640
  185SLPC   H7S21275   2.102   2.012   7.699  0.6210 -2.6923 -2.2949
  185SLPC   C2821276   2.054   1.855   7.844  0.0720  0.3081 -0.1475
  185SLPC   H8R21277   2.154   1.889   7.879 -0.1564  0.3331  0.4810
  185SLPC   H8S21278   2.075   1.760   7.789  1.7322  0.4421  0.2217
  185SLPC   C2921279   1.956   1.820   7.956 -0.2822  0.2059  0.5627
  185SLPC   H9R21280   1.870   1.764   7.915 -0.7898  1.6058 -0.3273
  185SLPC  C21021281   1.977   1.833   8.085 -0.2486 -0.6007 -0.1197
  185SLPC  H10R21282   1.922   1.768   8.154 -0.8016  0.3657  0.3629
  185SLPC  C21121283   2.087   1.905   8.152  0.6756 -0.2483  0.2183
  185SLPC  H11R21284   2.111   1.989   8.083  0.2745 -0.8922 -0.7142
  185SLPC  H11S21285   2.172   1.833   8.150  2.5209  1.9114 -1.9752
  185SLPC  C21221286   2.049   1.968   8.288  0.0083  1.0451  0.0055
  185SLPC  H12R21287   1.960   2.030   8.269 -1.7919 -1.4141  0.1757
  185SLPC  C21321288   2.108   1.957   8.412 -0.3776  0.6240  0.0656
  185SLPC  H13R21289   2.064   2.016   8.494  0.8081 -0.1069  1.2437
  185SLPC  C21421290   2.234   1.881   8.427 -0.5134 -0.3275  0.1091
  185SLPC  H14R21291   2.293   1.956   8.484 -1.5753  0.6566 -0.0659
  185SLPC  H14S21292   2.276   1.852   8.329  1.5661  2.4375  0.1283
  185SLPC  C21521293   2.224   1.750   8.509  0.2873 -0.2250 -0.2457
  185SLPC  H15R21294   2.206   1.779   8.615  0.3644 -0.1426 -0.2557
  185SLPC  H15S21295   2.321   1.696   8.514  0.9971  1.1194  0.4823
  185SLPC  C21621296   2.122   1.651   8.459 -0.5030  0.4865  0.8509
  185SLPC  H16R21297   2.145   1.604   8.360 -2.2911  2.9333 -0.7717
  185SLPC  H16S21298   2.021   1.692   8.440 -1.4903 -2.4816 -0.6996
  185SLPC  C21721299   2.092   1.544   8.573  0.2633 -0.3107 -0.0103
  185SLPC  H17R21300   2.041   1.457   8.526  1.3144 -1.3040  0.6588
  185SLPC  H17S21301   2.010   1.572   8.642  0.6353 -2.8538  1.5013
  185SLPC  C21821302   2.214   1.488   8.645  0.3629  0.1092  0.1772
  185SLPC  H18R21303   2.273   1.566   8.699  0.1061  0.1570  0.3898
  185SLPC  H18S21304   2.284   1.433   8.578  1.2626  0.3987  0.8530
  185SLPC  H18T21305   2.174   1.417   8.720  1.0909 -2.8735 -2.1631
  185SLPC   C3321306   2.078   2.305   7.360  0.9402  0.3745  0.2085
  185SLPC   H3X21307   2.153   2.259   7.292  0.3050  2.4014 -1.9112
  185SLPC   H3Y21308   2.045   2.246   7.449 -0.1763  0.3185 -0.2338
  185SLPC   C3421309   2.126   2.450   7.395 -0.6277  0.5200  0.3163
  185SLPC   H4X21310   2.038   2.496   7.444 -1.4447  1.3432 -1.8400
  185SLPC   H4Y21311   2.136   2.504   7.298 -0.9556  2.0771  1.1348
  185SLPC   C3521312   2.261   2.461   7.463 -0.0640  0.7591 -0.3696
  185SLPC   H5X21313   2.289   2.568   7.463 -0.5555  0.9018 -2.4818
  185SLPC   H5Y21314   2.344   2.409   7.410  0.0769 -1.5135  1.9571
  185SLPC   C3621315   2.249   2.403   7.606 -0.2463 -0.6942 -0.0432
  185SLPC   H6X21316   2.251   2.291   7.603 -0.2085 -0.6581 -1.8506
  185SLPC   H6Y21317   2.164   2.444   7.664  1.4088  2.7715  0.0158
  185SLPC   C3721318   2.366   2.452   7.692 -0.1442  0.1418  0.4500
  185SLPC   H7X21319   2.459   2.440   7.633  0.1488  2.2628  0.4616
  185SLPC   H7Y21320   2.361   2.384   7.780 -1.3009  1.9378  1.8026
  185SLPC   C3821321   2.344   2.599   7.727  0.1544  0.2630 -0.4771
  185SLPC   H8X21322   2.240   2.620   7.760 -0.6452 -0.3554 -2.5239
  185SLPC   H8Y21323   2.362   2.659   7.635 -1.7457 -0.6897 -1.4852
  185SLPC   C3921324   2.445   2.652   7.836 -0.0029  0.3437 -0.5081
  185SLPC   H9X21325   2.543   2.647   7.784  0.0399 -1.5249 -0.2974
  185SLPC   H9Y21326   2.447   2.582   7.922 -0.4445  1.7061  0.6221
  185SLPC  C31021327   2.412   2.792   7.891  0.2386  0.5107 -0.5122
  185SLPC  H10X21328   2.307   2.800   7.926  0.4000  0.5590 -0.0388
  185SLPC  H10Y21329   2.429   2.861   7.805 -1.6698  0.2528 -1.1286
  185SLPC  C31121330   2.509   2.824   8.010  0.0590 -0.3141  0.6246
  185SLPC  H11X21331   2.527   2.743   8.085  3.8435  0.6355  0.8550
  185SLPC  H11Y21332   2.458   2.904   8.069  3.3642  1.9788  0.5416
  185SLPC  C31221333   2.639   2.899   7.962  0.1248 -0.2037  0.6562
  185SLPC  H12X21334   2.601   2.981   7.896  0.2519 -2.8311 -2.8061
  185SLPC  H12Y21335   2.700   2.839   7.891 -1.2130  0.9471 -1.5325
  185SLPC  C31321336   2.737   2.952   8.068 -0.0011  0.2393 -0.3520
  185SLPC  H13X21337   2.768   2.863   8.127 -0.2281  0.0993 -0.4419
  185SLPC  H13Y21338   2.681   3.025   8.129  0.3870 -0.3568  0.7262
  185SLPC  C31421339   2.862   3.015   8.008  0.0033  0.1175 -0.4712
  185SLPC  H14X21340   2.834   3.088   7.929  0.7149 -1.9062 -2.6558
  185SLPC  H14Y21341   2.929   2.943   7.957  0.0539 -0.5157  0.4776
  185SLPC  C31521342   2.937   3.088   8.110 -0.7620 -0.0117 -0.4081
  185SLPC  H15X21343   2.868   3.152   8.168 -1.7929 -2.7459  1.4716
  185SLPC  H15Y21344   3.012   3.144   8.050 -0.2944 -1.1122 -0.8701
  185SLPC  C31621345   3.023   3.000   8.202 -0.3187  0.5670  1.0192
  185SLPC  H16X21346   3.095   2.946   8.138  0.1095  2.0135  0.2548
  185SLPC  H16Y21347   2.956   2.933   8.260 -2.5349  0.1302 -1.9272
  185SLPC  C31721348   3.093   3.094   8.300  0.3870 -0.2402  0.1047
  185SLPC  H17X21349   3.018   3.145   8.363 -1.8526  0.3660 -2.9297
  185SLPC  H17Y21350   3.132   3.174   8.233 -1.9834  1.9728  1.3031
  185SLPC  C31821351   3.200   3.036   8.392 -0.7783  0.2529 -0.0885
  185SLPC  H18X21352   3.245   3.114   8.456 -0.5666 -1.6898  2.2112
  185SLPC  H18Y21353   3.287   2.993   8.338  1.2513  1.9378  1.7737
  185SLPC  H18Z21354   3.161   2.965   8.469 -1.2501 -0.8607 -1.3296
  186SLPC     N21355   3.684   4.847   5.882  0.2606 -0.4924 -0.0757
  186SLPC   C1321356   3.648   4.704   5.901  0.3359 -0.2186 -0.6331
  186SLPC  H13A21357   3.558   4.684   5.957  0.8318 -1.0934 -0.1274
  186SLPC  H13B21358   3.630   4.665   5.802 -2.9790  2.1378 -1.0267
  186SLPC  H13C21359   3.733   4.649   5.939  0.6181 -0.5008 -1.6647
  186SLPC   C1421360   3.556   4.917   5.849  0.1610 -0.8215 -0.0191
  186SLPC  H14A21361   3.485   4.908   5.930 -1.7664 -1.5709 -1.7637
  186SLPC  H14B21362   3.567   5.024   5.835  0.3562 -1.0041 -1.3063
  186SLPC  H14C21363   3.518   4.886   5.753 -2.4743  1.3462  0.2635
  186SLPC   C1521364   3.780   4.869   5.767 -0.0865 -0.1148  0.6398
  186SLPC  H15A21365   3.875   4.826   5.796 -0.0536  0.4191  1.3261
  186SLPC  H15B21366   3.752   4.821   5.674  0.0175  2.1200 -0.5790
  186SLPC  H15C21367   3.799   4.975   5.760  3.1590 -0.6740  0.0088
  186SLPC   C1221368   3.747   4.907   6.001  0.5524 -0.1457  0.2956
  186SLPC  H12A21369   3.771   5.012   5.986 -0.8735  0.3027  1.0815
  186SLPC  H12B21370   3.838   4.849   6.007  1.9822  2.1705  1.9441
  186SLPC   C1121371   3.678   4.892   6.136  0.2585  0.2774 -0.5160
  186SLPC  H11A21372   3.760   4.935   6.198 -0.9793 -0.3311  1.5698
  186SLPC  H11B21373   3.654   4.789   6.169  0.8486  0.3026  0.0089
  186SLPC     P21374   3.428   4.915   6.197 -0.4816  0.3838  0.4334
  186SLPC   O1321375   3.330   5.028   6.195 -0.2334 -0.5258 -0.3327
  186SLPC   O1421376   3.387   4.798   6.113  0.7550 -0.3220 -0.1031
  186SLPC   O1221377   3.568   4.973   6.153  0.2042 -0.1339 -0.1273
  186SLPC   O1121378   3.441   4.873   6.343 -0.9345 -0.2090  0.5264
  186SLPC    C121379   3.495   4.935   6.455  0.2790 -0.3061  0.2403
  186SLPC    HA21380   3.497   5.046   6.448 -0.6602 -0.3902 -1.6518
  186SLPC    HB21381   3.426   4.907   6.538 -2.3399  1.1255 -1.3943
  186SLPC    C221382   3.634   4.873   6.500 -0.1003  0.3583  0.1492
  186SLPC    HS21383   3.701   4.851   6.415  0.9235  2.3927  0.3885
  186SLPC   O2121384   3.609   4.758   6.583  0.2071  0.2373 -0.3308
  186SLPC   C2121385   3.715   4.685   6.608 -0.4257 -0.7040 -0.0292
  186SLPC   O2221386   3.826   4.704   6.550 -0.2606  0.5812  0.3284
  186SLPC   C2221387   3.682   4.588   6.724 -0.0285 -0.1371  0.3979
  186SLPC   H2R21388   3.588   4.538   6.693  1.0420 -1.2534 -1.1685
  186SLPC   H2S21389   3.754   4.503   6.728  0.1202  0.0029  0.7248
  186SLPC    C321390   3.701   4.980   6.588 -0.0212 -0.5788  0.4652
  186SLPC    HX21391   3.722   5.073   6.532  0.4464  0.0505  1.6510
  186SLPC    HY21392   3.796   4.934   6.625 -0.2166  0.3096  2.1322
  186SLPC   O3121393   3.632   5.010   6.712  0.5033 -0.3528 -0.9262
  186SLPC   C3121394   3.611   5.138   6.745 -0.6557 -0.5679 -0.1465
  186SLPC   O3221395   3.637   5.238   6.680 -0.2165 -0.1521  0.1004
  186SLPC   C3221396   3.543   5.157   6.884  0.0588 -0.4656  0.1539
  186SLPC   H2X21397   3.484   5.064   6.893  0.6099 -0.7327  1.0968
  186SLPC   H2Y21398   3.482   5.250   6.876  2.0515  0.9421  0.6869
  186SLPC   C2321399   3.660   4.662   6.861 -0.1991  0.7156  0.3727
  186SLPC   H3R21400   3.596   4.600   6.927 -1.1952  1.5415  0.1868
  186SLPC   H3S21401   3.608   4.758   6.846  1.7599  1.7285 -0.1466
  186SLPC   C2421402   3.790   4.694   6.929  0.1593  0.2567 -0.4790
  186SLPC   H4R21403   3.847   4.768   6.868 -1.9728  3.3697  1.2032
  186SLPC   H4S21404   3.850   4.604   6.956 -2.0275 -0.9099  0.5862
  186SLPC   C2521405   3.769   4.765   7.062  0.3153  0.1118  0.3358
  186SLPC   H5R21406   3.677   4.828   7.055 -0.4003 -0.7790  1.3898
  186SLPC   H5S21407   3.858   4.829   7.077 -1.8392  3.1350  0.5582
  186SLPC   C2621408   3.740   4.675   7.180 -0.2119  0.7598  0.0467
  186SLPC   H6R21409   3.824   4.605   7.200 -0.9627 -0.5731 -1.2747
  186SLPC   H6S21410   3.653   4.606   7.171  0.4070  0.2448 -2.2823
  186SLPC   C2721411   3.720   4.751   7.309  0.3788 -0.3875  0.5383
  186SLPC   H7R21412   3.619   4.795   7.311  1.0396  1.1786  0.4028
  186SLPC   H7S21413   3.794   4.834   7.305 -1.2037  1.0645  0.9780
  186SLPC   C2821414   3.748   4.668   7.440 -0.3578  0.3677 -0.1072
  186SLPC   H8R21415   3.746   4.740   7.524  2.0780 -0.5575  0.7818
  186SLPC   H8S21416   3.847   4.622   7.462 -0.8825 -0.3115  0.8519
  186SLPC   C2921417   3.645   4.566   7.462  1.3407  0.3649 -0.0081
  186SLPC   H9R21418   3.549   4.618   7.482  1.3900 -0.0471  1.3347
  186SLPC  C21021419   3.649   4.432   7.450  0.7561  0.1990  0.7270
  186SLPC  H10R21420   3.553   4.378   7.456  0.3551  0.8591  0.2629
  186SLPC  C21121421   3.769   4.359   7.399 -0.7762  0.2931  0.4288
  186SLPC  H11R21422   3.866   4.405   7.425 -0.0846 -2.0140  2.0636
  186SLPC  H11S21423   3.765   4.377   7.289  2.8860 -0.0515  0.1909
  186SLPC  C21221424   3.748   4.215   7.431  0.8324  0.6530 -0.6989
  186SLPC  H12R21425   3.664   4.168   7.377 -0.1086  0.8788  0.5322
  186SLPC  C21321426   3.804   4.137   7.524  0.0811 -0.3543  0.0351
  186SLPC  H13R21427   3.735   4.053   7.541 -0.7095  0.0071 -1.3372
  186SLPC  C21421428   3.903   4.179   7.627 -0.2383  0.0714 -0.1992
  186SLPC  H14R21429   3.851   4.270   7.664 -1.9103 -1.0373  0.2617
  186SLPC  H14S21430   4.001   4.203   7.580 -1.3423  1.4478 -1.8598
  186SLPC  C21521431   3.922   4.079   7.739  0.3682  0.0585 -0.2596
  186SLPC  H15R21432   4.025   4.089   7.780  0.1776 -0.7799  0.4502
  186SLPC  H15S21433   3.910   3.974   7.704  2.7109 -0.4764  0.4109
  186SLPC  C21621434   3.811   4.091   7.845 -0.2614  0.0577 -0.0702
  186SLPC  H16R21435   3.818   4.009   7.919 -1.1186 -0.7475 -0.8781
  186SLPC  H16S21436   3.709   4.084   7.803 -0.2948 -0.3893  0.0824
  186SLPC  C21721437   3.808   4.220   7.925 -0.1794 -0.3316  0.5592
  186SLPC  H17R21438   3.825   4.308   7.860  1.2679 -0.0833  1.2671
  186SLPC  H17S21439   3.902   4.218   7.984  0.8882  1.4427 -1.0241
  186SLPC  C21821440   3.690   4.236   8.013  0.5214  0.1052 -0.3374
  186SLPC  H18R21441   3.592   4.218   7.964  0.5871  0.5475 -0.6248
  186SLPC  H18S21442   3.681   4.334   8.065 -0.3453 -0.7770  1.2592
  186SLPC  H18T21443   3.697   4.156   8.091  0.5253 -1.3384 -1.7978
  186SLPC   C3321444   3.634   5.151   7.014 -0.2052  0.0508 -0.3882
  186SLPC   H3X21445   3.715   5.225   7.001 -0.9927  1.5868  2.9101
  186SLPC   H3Y21446   3.679   5.050   7.014 -0.4445 -0.0566  0.5578
  186SLPC   C3421447   3.547   5.180   7.139 -0.5304  0.5671 -0.3417
  186SLPC   H4X21448   3.468   5.254   7.113  0.0402  1.2826 -0.0603
  186SLPC   H4Y21449   3.613   5.221   7.219  1.6934  1.0505 -2.3606
  186SLPC   C3521450   3.475   5.058   7.200 -0.5161 -0.1356 -0.4000
  186SLPC   H5X21451   3.552   4.981   7.222  0.8656  0.4855 -2.9615
  186SLPC   H5Y21452   3.398   5.023   7.128 -0.6578  0.3019 -0.4645
  186SLPC   C3621453   3.399   5.083   7.328 -0.5761  0.0278 -0.1294
  186SLPC   H6X21454   3.318   5.007   7.337 -1.0170  0.6826  1.7863
  186SLPC   H6Y21455   3.342   5.176   7.306 -1.1101  0.2134  1.9506
  186SLPC   C3721456   3.480   5.113   7.455 -0.5677 -0.0160  0.7317
  186SLPC   H7X21457   3.420   5.182   7.518 -1.1298 -0.2556  0.4618
  186SLPC   H7Y21458   3.565   5.181   7.432 -0.5151 -1.2176 -2.8352
  186SLPC   C3821459   3.522   4.988   7.531  0.3133 -0.1335 -0.0162
  186SLPC   H8X21460   3.579   4.934   7.452 -1.6367 -1.7423 -0.3685
  186SLPC   H8Y21461   3.429   4.929   7.547 -1.6076  2.3483 -1.7190
  186SLPC   C3921462   3.603   5.016   7.662 -0.5535 -0.7651  0.0739
  186SLPC   H9X21463   3.554   5.087   7.732 -0.8782 -1.7994  0.9246
  186SLPC   H9Y21464   3.707   5.048   7.641 -0.6448 -1.7950 -2.1417
  186SLPC  C31021465   3.604   4.890   7.750 -0.3034  0.1728 -0.2580
  186SLPC  H10X21466   3.631   4.794   7.701 -0.7295 -0.0296 -0.0982
  186SLPC  H10Y21467   3.497   4.870   7.776  0.0687 -0.7372  0.6492
  186SLPC  C31121468   3.682   4.891   7.885 -0.8424  0.2291  0.3621
  186SLPC  H11X21469   3.787   4.913   7.858 -1.0138  0.5624 -0.0437
  186SLPC  H11Y21470   3.676   4.793   7.936  3.8292 -0.2278  0.2356
  186SLPC  C31221471   3.619   4.995   7.981  0.0197 -0.5042  0.1997
  186SLPC  H12X21472   3.510   4.995   7.963 -0.4230  2.4784  2.4771
  186SLPC  H12Y21473   3.669   5.093   7.966  1.9843 -1.0341  2.8340
  186SLPC  C31321474   3.644   4.942   8.120 -0.3445 -0.3955 -0.6214
  186SLPC  H13X21475   3.753   4.924   8.126 -0.5803 -1.8484 -0.5471
  186SLPC  H13Y21476   3.608   4.838   8.135 -2.5688  0.6864  2.1617
  186SLPC  C31421477   3.604   5.042   8.231  0.0038  0.3636  1.3714
  186SLPC  H14X21478   3.499   5.068   8.205 -0.5094 -1.3488  1.6707
  186SLPC  H14Y21479   3.658   5.139   8.230 -0.2586  0.5246 -1.1302
  186SLPC  C31521480   3.605   4.984   8.377 -0.3511  0.5664  0.5071
  186SLPC  H15X21481   3.583   5.076   8.436 -1.0278 -1.1166  2.9309
  186SLPC  H15Y21482   3.711   4.953   8.392  0.4897  1.8737 -2.2028
  186SLPC  C31621483   3.519   4.863   8.404  0.5935 -0.5890 -0.4346
  186SLPC  H16X21484   3.461   4.845   8.311  1.5595 -2.5976 -0.6614
  186SLPC  H16Y21485   3.447   4.892   8.483  1.3489  0.7903 -0.2351
  186SLPC  C31721486   3.592   4.742   8.449 -0.2445 -0.0232 -0.1862
  186SLPC  H17X21487   3.576   4.721   8.557 -0.8850  2.5899  0.2561
  186SLPC  H17Y21488   3.701   4.761   8.439 -0.1113  0.0401  1.2443
  186SLPC  C31821489   3.563   4.621   8.362 -0.3842  0.5370  0.0214
  186SLPC  H18X21490   3.609   4.526   8.396 -1.4692 -0.4802 -1.3042
  186SLPC  H18Y21491   3.572   4.636   8.252 -1.1318  0.0842 -0.1086
  186SLPC  H18Z21492   3.454   4.604   8.374 -0.2082  0.8548  2.2030
  187SLPC     N21493   3.277   1.577   6.201 -0.2924 -0.0917  0.4749
  187SLPC   C1321494   3.263   1.565   6.051 -0.5723 -0.1866 -0.0722
  187SLPC  H13A21495   3.182   1.496   6.028  1.7618 -2.6662 -1.1065
  187SLPC  H13B21496   3.263   1.666   6.013 -0.8100 -0.5326 -1.0209
  187SLPC  H13C21497   3.356   1.523   6.016 -0.4248 -2.2777  2.6588
  187SLPC   C1421498   3.271   1.438   6.271 -0.1286  0.7072 -0.2387
  187SLPC  H14A21499   3.338   1.370   6.221 -1.8637 -0.2815 -1.2800
  187SLPC  H14B21500   3.309   1.444   6.372 -1.6130 -0.1655  0.3955
  187SLPC  H14C21501   3.171   1.397   6.266 -0.3583  0.7576  3.0396
  187SLPC   C1521502   3.166   1.654   6.259  0.7246  0.0657  0.1863
  187SLPC  H15A21503   3.158   1.752   6.215 -0.2629  0.1135  0.4594
  187SLPC  H15B21504   3.072   1.603   6.245  1.6077 -1.6189  0.2989
  187SLPC  H15C21505   3.188   1.651   6.365 -0.2177  1.9743  0.4605
  187SLPC   C1221506   3.417   1.640   6.232 -0.2690  0.6397 -0.0076
  187SLPC  H12A21507   3.426   1.725   6.167 -0.2675 -0.1906 -1.1106
  187SLPC  H12B21508   3.482   1.563   6.194  1.3790  2.1363 -0.2692
  187SLPC   C1121509   3.458   1.668   6.380  0.0863  0.7104 -0.4582
  187SLPC  H11A21510   3.380   1.725   6.436 -0.3684 -0.7695  0.4385
  187SLPC  H11B21511   3.552   1.727   6.373  1.0586 -0.2598  3.2294
  187SLPC     P21512   3.604   1.487   6.490 -0.3369 -0.2747  0.0500
  187SLPC   O1321513   3.601   1.342   6.495 -0.4894  0.3337  0.4968
  187SLPC   O1421514   3.719   1.540   6.411 -0.0046 -0.3629  0.0477
  187SLPC   O1221515   3.472   1.539   6.445  0.0821 -0.2303  0.2617
  187SLPC   O1121516   3.630   1.538   6.636 -0.4216  0.1621 -0.1174
  187SLPC    C121517   3.540   1.513   6.743 -0.6130 -0.7639  0.6410
  187SLPC    HA21518   3.452   1.575   6.715  0.3814 -0.0878 -1.0686
  187SLPC    HB21519   3.500   1.409   6.744 -0.4133 -0.8659 -0.7248
  187SLPC    C221520   3.604   1.540   6.886 -0.1461  0.1551  0.5034
  187SLPC    HS21521   3.531   1.520   6.968  0.4569  0.0569  1.0147
  187SLPC   O2121522   3.656   1.668   6.903  0.6814  0.3221 -0.1000
  187SLPC   C2121523   3.563   1.770   6.895 -0.3669 -0.5689 -0.2783
  187SLPC   O2221524   3.448   1.761   6.872 -0.4853 -0.6040  0.3093
  187SLPC   C2221525   3.640   1.893   6.939  0.1767  0.0458  0.1064
  187SLPC   H2R21526   3.748   1.875   6.917  0.4827  0.7412  0.9986
  187SLPC   H2S21527   3.612   1.983   6.881 -0.5258  0.3003  0.8270
  187SLPC    C321528   3.718   1.434   6.914  0.5482 -0.7046  0.7084
  187SLPC    HX21529   3.778   1.431   6.820 -3.0679  1.2544 -1.7696
  187SLPC    HY21530   3.684   1.329   6.924  0.3581 -0.7330 -0.1490
  187SLPC   O3121531   3.795   1.463   7.038 -0.0290  0.2512 -0.0728
  187SLPC   C3121532   3.929   1.464   7.034 -0.1301 -0.2576  0.0408
  187SLPC   O3221533   3.989   1.466   6.932 -0.4083  0.0843 -0.2134
  187SLPC   C3221534   3.994   1.479   7.181 -0.6014 -0.0721  0.3501
  187SLPC   H2X21535   3.940   1.416   7.255 -0.4248 -2.3408 -1.3719
  187SLPC   H2Y21536   3.988   1.588   7.201 -1.5076 -0.2570  1.1378
  187SLPC   C2321537   3.600   1.929   7.082  0.2592  0.5209 -0.4293
  187SLPC   H3R21538   3.491   1.940   7.100  0.1196  1.1719 -1.6304
  187SLPC   H3S21539   3.658   2.020   7.109  1.4609 -0.0388 -1.0850
  187SLPC   C2421540   3.649   1.821   7.183  0.6084 -0.0733  0.0303
  187SLPC   H4R21541   3.752   1.790   7.154  1.1214  0.4667  1.2378
  187SLPC   H4S21542   3.591   1.727   7.172  4.5811 -2.4086 -2.2318
  187SLPC   C2521543   3.637   1.869   7.320  0.4256  0.0050  0.4984
  187SLPC   H5R21544   3.538   1.916   7.340  0.2667 -0.1318  0.0422
  187SLPC   H5S21545   3.707   1.948   7.354  0.7295 -0.1959  0.3486
  187SLPC   C2621546   3.636   1.747   7.426  0.1048 -0.4345  0.7237
  187SLPC   H6R21547   3.581   1.660   7.382 -0.1405  0.3604 -0.5662
  187SLPC   H6S21548   3.582   1.777   7.518 -1.9617 -2.9593  0.4101
  187SLPC   C2721549   3.775   1.716   7.460 -0.1088  0.3527  0.6378
  187SLPC   H7R21550   3.818   1.816   7.483  2.1839 -0.4101 -0.2671
  187SLPC   H7S21551   3.829   1.682   7.369  0.5574 -2.1416  1.9524
  187SLPC   C2821552   3.794   1.606   7.571  0.4853 -0.2074 -0.4332
  187SLPC   H8R21553   3.900   1.605   7.605  0.9522  0.9138 -1.8125
  187SLPC   H8S21554   3.789   1.513   7.511  1.7232  0.0049 -0.8955
  187SLPC   C2921555   3.709   1.599   7.698  0.4211 -0.3037  0.0089
  187SLPC   H9R21556   3.638   1.515   7.701  0.0149  0.0554  0.4717
  187SLPC  C21021557   3.715   1.679   7.805  0.4143 -0.4128 -0.2958
  187SLPC  H10R21558   3.635   1.671   7.881  0.0566 -0.8962 -0.7152
  187SLPC  C21121559   3.803   1.796   7.818 -0.1120  0.0109  0.2865
  187SLPC  H11R21560   3.736   1.879   7.848 -0.2898  0.1030 -0.3766
  187SLPC  H11S21561   3.855   1.825   7.725 -1.6848  3.2310  0.3481
  187SLPC  C21221562   3.907   1.761   7.917  0.3396 -0.1786  0.0830
  187SLPC  H12R21563   3.987   1.691   7.891 -2.0625 -3.7190  1.8678
  187SLPC  C21321564   3.912   1.803   8.045  0.5633 -0.6813  0.1996
  187SLPC  H13R21565   3.997   1.781   8.110  1.5014  2.1190 -0.0031
  187SLPC  C21421566   3.812   1.904   8.107 -0.0539  0.0694 -0.2445
  187SLPC  H14R21567   3.721   1.843   8.128 -1.0050  0.8676 -1.9590
  187SLPC  H14S21568   3.792   1.986   8.036 -0.1592  1.1234  0.9860
  187SLPC  C21521569   3.864   1.977   8.233 -0.0028 -0.0983 -0.5669
  187SLPC  H15R21570   3.913   1.902   8.299 -0.3646 -2.2520 -2.7062
  187SLPC  H15S21571   3.779   2.025   8.286 -0.4570  0.8660 -2.1640
  187SLPC  C21621572   3.967   2.086   8.199  1.0356 -0.3914  0.1159
  187SLPC  H16R21573   3.920   2.170   8.145 -1.7831 -0.3547  2.5088
  187SLPC  H16S21574   4.037   2.040   8.126  0.0681  0.1669 -1.1689
  187SLPC  C21721575   4.053   2.137   8.316  0.4558 -0.4878 -0.1715
  187SLPC  H17R21576   4.128   2.209   8.278 -2.0666  2.5599  0.4165
  187SLPC  H17S21577   4.103   2.047   8.356  2.6844  1.0173  0.4775
  187SLPC  C21821578   3.971   2.210   8.420 -0.7731 -0.6469  0.6907
  187SLPC  H18R21579   3.939   2.311   8.388  1.5323 -0.7393 -2.1464
  187SLPC  H18S21580   4.029   2.232   8.512 -0.3003 -1.2955  0.5502
  187SLPC  H18T21581   3.881   2.153   8.453 -0.7492 -0.3498  1.2679
  187SLPC   C3321582   4.136   1.427   7.171 -0.4123  0.3350 -0.3386
  187SLPC   H3X21583   4.194   1.468   7.085  0.1770 -1.1490 -0.6564
  187SLPC   H3Y21584   4.128   1.317   7.156 -0.5310  0.3557 -0.4341
  187SLPC   C3421585   4.224   1.458   7.287 -0.0308 -0.5984 -0.2710
  187SLPC   H4X21586   4.241   1.568   7.282 -0.7840 -0.5365 -1.9216
  187SLPC   H4Y21587   4.322   1.411   7.265  1.5530  2.8389 -1.0075
  187SLPC   C3521588   4.175   1.425   7.426 -0.2389  0.0628 -0.2732
  187SLPC   H5X21589   4.154   1.316   7.428 -2.0400  0.4142  1.4673
  187SLPC   H5Y21590   4.079   1.479   7.439  0.3019  1.1977 -0.9001
  187SLPC   C3621591   4.256   1.470   7.546  0.3401  1.1035 -0.7079
  187SLPC   H6X21592   4.273   1.580   7.538  1.0545  1.2756  2.3761
  187SLPC   H6Y21593   4.355   1.427   7.520 -0.8622 -2.5436  0.5171
  187SLPC   C3721594   4.203   1.436   7.687  0.1392  0.3063  0.1229
  187SLPC   H7X21595   4.136   1.519   7.718 -2.8227 -2.5663  1.7097
  187SLPC   H7Y21596   4.130   1.353   7.682 -0.4960  0.9038 -0.9587
  187SLPC   C3821597   4.311   1.407   7.790  0.5135 -0.8024  0.1398
  187SLPC   H8X21598   4.381   1.494   7.787 -0.8060  0.2493 -1.2077
  187SLPC   H8Y21599   4.375   1.323   7.758  1.4292 -1.1254  2.7547
  187SLPC   C3921600   4.255   1.384   7.925 -0.1142 -0.3410  0.2642
  187SLPC   H9X21601   4.187   1.296   7.925 -0.5004 -0.0666  1.7015
  187SLPC   H9Y21602   4.197   1.475   7.952  0.6806  0.5053 -0.8479
  187SLPC  C31021603   4.360   1.358   8.047  0.3582 -0.6470  0.4808
  187SLPC  H10X21604   4.419   1.452   8.039 -2.3379  1.2817  2.7745
  187SLPC  H10Y21605   4.433   1.286   8.003 -0.3825 -0.2307 -1.4844
  187SLPC  C31121606   4.284   1.339   8.180 -0.8754  0.1927  0.5653
  187SLPC  H11X21607   4.363   1.344   8.257 -1.9337 -0.8919  1.7488
  187SLPC  H11Y21608   4.232   1.241   8.185  1.6323 -1.2689 -0.9262
  187SLPC  C31221609   4.184   1.450   8.223  0.4621  0.7221 -0.3242
  187SLPC  H12X21610   4.114   1.467   8.138 -3.1777 -1.3552  2.1372
  187SLPC  H12Y21611   4.237   1.546   8.236 -0.3966  1.3844 -1.6219
  187SLPC  C31321612   4.115   1.421   8.355  1.4613 -0.3116 -0.0686
  187SLPC  H13X21613   4.184   1.371   8.425  3.4293 -0.3956 -2.0337
  187SLPC  H13Y21614   4.031   1.351   8.332 -1.2651  2.5723  0.6383
  187SLPC  C31421615   4.040   1.546   8.423 -0.3218 -0.0291 -0.1169
  187SLPC  H14X21616   3.970   1.592   8.350 -1.0051  0.0342  0.5829
  187SLPC  H14Y21617   4.120   1.621   8.442 -0.6280  0.5011 -0.8712
  187SLPC  C31521618   3.962   1.516   8.553  0.3234 -0.1457 -0.5402
  187SLPC  H15X21619   3.897   1.426   8.546 -1.7162  0.8787  3.5080
  187SLPC  H15Y21620   3.892   1.601   8.566 -0.8917 -1.3620  1.0634
  187SLPC  C31621621   4.055   1.497   8.676 -0.8094 -0.3198 -0.9121
  187SLPC  H16X21622   4.110   1.592   8.694 -0.3494 -0.8702  0.6167
  187SLPC  H16Y21623   4.115   1.406   8.657 -2.5918 -1.2495 -2.2662
  187SLPC  C31721624   3.968   1.477   8.805  0.4678  0.4943  0.5726
  187SLPC  H17X21625   3.880   1.411   8.787  0.1724  1.2620 -0.8282
  187SLPC  H17Y21626   3.919   1.574   8.826 -3.2282 -1.2834  0.6348
  187SLPC  C31821627   4.046   1.444   8.931  0.1242  0.4519 -0.4197
  187SLPC  H18X21628   3.979   1.423   9.017  0.4718  0.9540 -0.0310
  187SLPC  H18Y21629   4.096   1.535   8.970  1.6756 -0.1132 -1.0825
  187SLPC  H18Z21630   4.115   1.359   8.915 -2.1703 -1.6817  0.7025
  188SLPC     N21631   4.462   3.097   5.984  0.2641  0.1559  0.3547
  188SLPC   C1321632   4.350   3.177   6.043  0.0415 -0.6889  0.0076
  188SLPC  H13A21633   4.390   3.262   6.095  0.1870 -1.5630  1.3343
  188SLPC  H13B21634   4.292   3.221   5.963  1.9020  2.1796  0.1756
  188SLPC  H13C21635   4.289   3.126   6.116  0.1094 -0.1514  0.4459
  188SLPC   C1421636   4.496   3.163   5.854 -0.0341  0.1602 -0.0224
  188SLPC  H14A21637   4.568   3.097   5.808  1.1637  0.8237  0.8882
  188SLPC  H14B21638   4.410   3.183   5.790  1.1475 -0.6411 -1.9156
  188SLPC  H14C21639   4.545   3.256   5.879 -1.1931  1.2900 -1.7615
  188SLPC   C1521640   4.395   2.965   5.948 -0.3280  0.3636  0.2266
  188SLPC  H15A21641   4.310   2.981   5.884 -0.0166  0.2943 -0.2055
  188SLPC  H15B21642   4.458   2.900   5.890 -0.1838  2.0267 -1.5188
  188SLPC  H15C21643   4.358   2.904   6.029  0.9498 -0.0277  0.5324
  188SLPC   C1221644   4.578   3.072   6.078  0.2760 -0.6593  0.2862
  188SLPC  H12A21645   4.647   3.003   6.033 -0.5729 -2.0478  1.0565
  188SLPC  H12B21646   4.536   3.012   6.158  0.5283 -2.5536 -0.9792
  188SLPC   C1121647   4.648   3.197   6.136  0.3255  0.7744 -0.9843
  188SLPC  H11A21648   4.685   3.261   6.054 -0.4408  0.0521 -1.9087
  188SLPC  H11B21649   4.744   3.167   6.182  0.7051 -0.8802 -2.7855
  188SLPC     P21650   4.544   3.243   6.371  0.0578 -0.3331  0.0226
  188SLPC   O1321651   4.459   3.343   6.435 -0.2087  0.1101 -0.8262
  188SLPC   O1421652   4.497   3.107   6.375  0.5080  0.3501 -0.3702
  188SLPC   O1221653   4.568   3.281   6.221 -0.6731  0.3335  0.0663
  188SLPC   O1121654   4.690   3.262   6.428  0.1600 -0.3766 -0.4924
  188SLPC    C121655   4.714   3.333   6.555  0.3709  0.2062  0.1992
  188SLPC    HA21656   4.824   3.336   6.566  0.6479 -2.9159 -1.2149
  188SLPC    HB21657   4.661   3.431   6.554  1.3007  0.7287  0.9219
  188SLPC    C221658   4.664   3.246   6.670 -0.0435  0.2390 -0.5142
  188SLPC    HS21659   4.555   3.239   6.648 -0.6038  0.4782  2.1238
  188SLPC   O2121660   4.702   3.311   6.796  0.2461 -0.0377  0.1993
  188SLPC   C2121661   4.593   3.360   6.859 -0.7016  0.2809 -0.5297
  188SLPC   O2221662   4.478   3.328   6.840  0.1934  0.2480  0.3705
  188SLPC   C2221663   4.637   3.449   6.980  0.0542  0.9130 -0.1436
  188SLPC   H2R21664   4.740   3.429   7.014 -0.7635  1.4528  2.8079
  188SLPC   H2S21665   4.641   3.555   6.947 -1.8769  0.5169 -1.7494
  188SLPC    C321666   4.727   3.106   6.661  0.5819  0.2643  0.2297
  188SLPC    HX21667   4.836   3.131   6.662  0.6391  0.0176  0.4041
  188SLPC    HY21668   4.709   3.052   6.566 -0.5794 -0.4217  0.8303
  188SLPC   O3121669   4.696   3.025   6.780  0.2060  0.5143  0.3748
  188SLPC   C3121670   4.572   2.980   6.777 -0.4410 -0.1790  0.0945
  188SLPC   O3221671   4.489   2.982   6.686 -0.0922  0.4893 -0.3140
  188SLPC   C3221672   4.529   2.935   6.921  0.4143  0.7412  0.3687
  188SLPC   H2X21673   4.545   2.826   6.927 -0.2207  0.6078 -0.3121
  188SLPC   H2Y21674   4.419   2.948   6.917  0.2901 -0.3384  0.3351
  188SLPC   C2321675   4.559   3.421   7.108 -0.0184  0.3203  0.1413
  188SLPC   H3R21676   4.607   3.338   7.163 -2.0040 -0.7656  0.2838
  188SLPC   H3S21677   4.455   3.392   7.081  0.4734 -0.1268 -1.2963
  188SLPC   C2421678   4.553   3.543   7.199 -0.2798  0.1365 -0.2662
  188SLPC   H4R21679   4.461   3.535   7.260  0.9255  0.1195  1.6057
  188SLPC   H4S21680   4.533   3.635   7.141  0.3029  1.5279  1.6644
  188SLPC   C2521681   4.678   3.563   7.288  0.0221  0.6916  0.1017
  188SLPC   H5R21682   4.698   3.667   7.321 -0.2298 -0.1180  2.9456
  188SLPC   H5S21683   4.767   3.525   7.233 -1.2204 -1.2184 -0.6345
  188SLPC   C2621684   4.666   3.469   7.418 -0.0581 -0.2474 -0.1231
  188SLPC   H6R21685   4.770   3.436   7.441  0.2968  1.0039  0.1198
  188SLPC   H6S21686   4.614   3.378   7.383 -0.8276  0.4043 -0.6737
  188SLPC   C2721687   4.591   3.531   7.538  0.3323 -0.3414  0.5777
  188SLPC   H7R21688   4.532   3.454   7.592 -0.5887 -0.0057  0.0546
  188SLPC   H7S21689   4.523   3.614   7.506 -0.2724 -0.5980  1.1833
  188SLPC   C2821690   4.697   3.584   7.639  0.0350 -0.4206 -0.0044
  188SLPC   H8R21691   4.654   3.683   7.665 -1.5630  0.2065 -4.6358
  188SLPC   H8S21692   4.788   3.616   7.585 -0.0728 -0.6434 -0.3185
  188SLPC   C2921693   4.737   3.501   7.759  0.2778 -0.0520  0.1797
  188SLPC   H9R21694   4.777   3.398   7.755 -0.2172 -0.2799  0.8813
  188SLPC  C21021695   4.732   3.552   7.886  0.1403  0.5422 -0.3268
  188SLPC  H10R21696   4.753   3.483   7.969  2.7154  0.2753 -1.1644
  188SLPC  C21121697   4.679   3.689   7.922 -0.4612 -0.0364 -0.4777
  188SLPC  H11R21698   4.698   3.769   7.847 -1.5037 -0.6077 -1.3722
  188SLPC  H11S21699   4.732   3.724   8.013 -3.1096  3.1144 -0.0947
  188SLPC  C21221700   4.545   3.659   7.980 -0.1916 -0.3101  0.3309
  188SLPC  H12R21701   4.468   3.641   7.904 -0.0564 -2.0955  0.6019
  188SLPC  C21321702   4.503   3.658   8.106 -0.1709 -0.0940 -0.7729
  188SLPC  H13R21703   4.393   3.648   8.102 -0.2434  1.0813 -2.0864
  188SLPC  C21421704   4.565   3.677   8.244  0.6090  0.1078 -0.3383
  188SLPC  H14R21705   4.669   3.705   8.216  0.2744  1.0495 -0.6774
  188SLPC  H14S21706   4.567   3.585   8.305 -1.1256 -0.5563 -1.2532
  188SLPC  C21521707   4.501   3.798   8.316  0.7397  0.1610  0.8688
  188SLPC  H15R21708   4.394   3.789   8.343  1.0486 -2.5873  1.2852
  188SLPC  H15S21709   4.497   3.882   8.243 -2.7411 -1.3445 -0.7636
  188SLPC  C21621710   4.573   3.843   8.444 -0.0247  0.9143  0.9964
  188SLPC  H16R21711   4.683   3.833   8.441  0.0481  1.6935  0.8734
  188SLPC  H16S21712   4.539   3.777   8.527  1.2612  1.8401  2.2749
  188SLPC  C21721713   4.545   3.985   8.488  0.2243  0.3605 -0.0676
  188SLPC  H17R21714   4.599   4.002   8.583 -2.0550  0.2229  1.2804
  188SLPC  H17S21715   4.436   3.986   8.509  0.5316  0.0211  1.6089
  188SLPC  C21821716   4.576   4.089   8.382 -0.3061  0.1931  0.4832
  188SLPC  H18R21717   4.548   4.191   8.415  1.4870  0.7028  0.5069
  188SLPC  H18S21718   4.537   4.057   8.283  0.9102 -1.0482  0.3854
  188SLPC  H18T21719   4.686   4.083   8.363 -0.3523 -0.8338  0.5118
  188SLPC   C3321720   4.600   3.016   7.037 -0.5433  0.7239  1.2894
  188SLPC   H3X21721   4.575   3.124   7.024 -1.7811  0.1874 -0.9678
  188SLPC   H3Y21722   4.707   2.987   7.028 -0.2951  1.7954  0.6517
  188SLPC   C3421723   4.554   2.968   7.176  0.1152  1.1269  0.0860
  188SLPC   H4X21724   4.583   2.861   7.183  0.9301  1.4162  1.3361
  188SLPC   H4Y21725   4.443   2.968   7.177  0.0761 -1.3551  0.0323
  188SLPC   C3521726   4.606   3.041   7.298  0.1855  0.3288 -0.8180
  188SLPC   H5X21727   4.573   3.146   7.294  0.7041  0.6353  1.7713
  188SLPC   H5Y21728   4.717   3.034   7.299  0.1629 -0.3509 -1.9356
  188SLPC   C3621729   4.544   2.980   7.427  0.6027 -0.3226  0.3108
  188SLPC   H6X21730   4.577   2.874   7.433 -0.1839 -0.5614  0.4836
  188SLPC   H6Y21731   4.436   2.983   7.404  0.4909  1.1221  1.0055
  188SLPC   C3721732   4.589   3.063   7.545 -0.0888 -0.1737 -0.2239
  188SLPC   H7X21733   4.603   3.167   7.510  2.7922 -0.0386  1.1990
  188SLPC   H7Y21734   4.692   3.034   7.575  0.1133  1.4822  0.7223
  188SLPC   C3821735   4.500   3.075   7.668 -0.4081 -0.2230 -0.8668
  188SLPC   H8X21736   4.466   2.971   7.684  1.9703 -1.0274 -0.8360
  188SLPC   H8Y21737   4.417   3.145   7.647 -0.6123 -0.6101 -1.3377
  188SLPC   C3921738   4.566   3.115   7.799  0.7390 -0.3160  1.0742
  188SLPC   H9X21739   4.598   3.220   7.786  1.3446 -0.6802 -0.5250
  188SLPC   H9Y21740   4.664   3.064   7.814  1.4690  0.5272 -0.6376
  188SLPC  C31021741   4.475   3.102   7.921 -0.6047  0.3734 -0.6408
  188SLPC  H10X21742   4.370   3.123   7.892 -0.8987 -1.1245 -0.6874
  188SLPC  H10Y21743   4.499   3.177   7.999 -1.1048  0.5332 -0.6390
  188SLPC  C31121744   4.499   2.974   8.007 -0.0074  1.0255  0.4233
  188SLPC  H11X21745   4.607   2.966   8.031 -0.5932 -1.9893  2.2743
  188SLPC  H11Y21746   4.469   2.888   7.943 -1.9806 -0.0328  2.7149
  188SLPC  C31221747   4.417   2.966   8.134 -0.2776 -0.1730 -0.1859
  188SLPC  H12X21748   4.415   2.860   8.168 -1.5766 -0.0033  0.2997
  188SLPC  H12Y21749   4.313   3.001   8.114  0.1196 -0.0468 -2.1612
  188SLPC  C31321750   4.476   3.052   8.250 -0.2402 -0.7212  0.5405
  188SLPC  H13X21751   4.418   3.146   8.238  0.5598 -0.6357 -3.4824
  188SLPC  H13Y21752   4.585   3.070   8.242 -0.0410 -1.2795  1.8091
  188SLPC  C31421753   4.447   2.997   8.389  0.0468 -0.3368  0.3851
  188SLPC  H14X21754   4.472   2.889   8.381  2.2520 -0.0277  2.6474
  188SLPC  H14Y21755   4.338   3.015   8.403  0.2058 -0.1420  1.3519
  188SLPC  C31521756   4.544   3.047   8.497  0.0944 -0.2378 -0.1332
  188SLPC  H15X21757   4.571   3.155   8.496 -1.5159  0.1631 -1.7095
  188SLPC  H15Y21758   4.643   3.001   8.473 -0.3426 -1.9346  1.2397
  188SLPC  C31621759   4.510   3.000   8.636  0.1926  0.2096  0.3897
  188SLPC  H16X21760   4.493   2.891   8.627  1.4685 -0.1829  2.5175
  188SLPC  H16Y21761   4.413   3.053   8.652  0.8893  1.5256  0.3499
  188SLPC  C31721762   4.618   3.023   8.741  0.0562 -0.5259  0.6250
  188SLPC  H17X21763   4.612   3.131   8.767 -0.4732 -0.2627 -0.5557
  188SLPC  H17Y21764   4.724   3.010   8.712 -0.2579 -0.2840 -0.6552
  188SLPC  C31821765   4.600   2.934   8.863  0.3520  0.9456  0.5213
  188SLPC  H18X21766   4.493   2.933   8.894  0.1591 -1.0660 -0.1136
  188SLPC  H18Y21767   4.669   2.968   8.942  0.6565  0.0144  0.6584
  188SLPC  H18Z21768   4.628   2.828   8.844 -2.3514 -0.1756  2.3883
  189SLPC     N21769   0.347   5.750   6.009  0.5306 -0.1671  0.3065
  189SLPC   C1321770   0.222   5.684   6.048  0.4726 -0.4198  0.1915
  189SLPC  H13A21771   0.186   5.603   5.986  0.1748  0.3253 -0.6244
  189SLPC  H13B21772   0.225   5.650   6.150  1.5032  0.6438  0.5272
  189SLPC  H13C21773   0.140   5.754   6.047  0.0276 -0.9379 -0.7814
  189SLPC   C1421774   0.326   5.811   5.880 -0.0516 -0.7983  0.2861
  189SLPC  H14A21775   0.421   5.851   5.847  0.3971 -1.1341  1.1480
  189SLPC  H14B21776   0.286   5.749   5.801  1.7487  0.0523 -1.3363
  189SLPC  H14C21777   0.257   5.895   5.877  1.1230  0.1968  0.7138
  189SLPC   C1521778   0.457   5.652   6.002  0.2859 -0.5889 -0.0610
  189SLPC  H15A21779   0.548   5.693   5.961  0.4260 -0.8189  0.0180
  189SLPC  H15B21780   0.469   5.611   6.101  2.4752  0.9811  0.3564
  189SLPC  H15C21781   0.434   5.563   5.945  0.3394 -0.6094 -0.0503
  189SLPC   C1221782   0.370   5.851   6.115  0.0449  0.1491 -0.4133
  189SLPC  H12A21783   0.304   5.936   6.102 -1.5366 -0.9029  0.4517
  189SLPC  H12B21784   0.470   5.890   6.103 -0.2900  1.2292  0.1993
  189SLPC   C1121785   0.356   5.795   6.260  0.1347  0.2946  0.0679
  189SLPC  H11A21786   0.249   5.767   6.276  0.3934 -0.5230  0.3588
  189SLPC  H11B21787   0.395   5.873   6.328  1.2258 -0.2536  0.0718
  189SLPC     P21788   0.408   5.539   6.342  0.5067  0.1460 -0.0684
  189SLPC   O1321789   0.271   5.497   6.303 -0.6775 -0.0328 -0.4381
  189SLPC   O1421790   0.520   5.444   6.335 -0.4393  0.2338  0.5764
  189SLPC   O1221791   0.445   5.678   6.276 -0.5569  0.0728 -0.5838
  189SLPC   O1121792   0.408   5.580   6.499 -0.3817  0.0001 -0.6810
  189SLPC    C121793   0.286   5.596   6.573  0.1052  0.6263  0.5470
  189SLPC    HA21794   0.246   5.695   6.543  0.3709 -0.1130 -2.4159
  189SLPC    HB21795   0.222   5.506   6.556  2.2025 -0.1739 -4.0589
  189SLPC    C221796   0.304   5.612   6.726  0.4964  0.5316 -0.4040
  189SLPC    HS21797   0.353   5.708   6.753  0.5486 -0.2552  2.4128
  189SLPC   O2121798   0.391   5.502   6.762  0.8220 -0.0831 -0.5258
  189SLPC   C2121799   0.477   5.529   6.860  0.0007  0.7716  0.6596
  189SLPC   O2221800   0.480   5.630   6.926 -0.2642 -0.3951  0.1562
  189SLPC   C2221801   0.556   5.401   6.875  0.0607  0.5013  0.6002
  189SLPC   H2R21802   0.491   5.311   6.871 -0.0090  0.4439  2.4732
  189SLPC   H2S21803   0.616   5.386   6.783 -1.1151 -0.3686 -0.0384
  189SLPC    C321804   0.171   5.608   6.809 -0.2206 -0.2020  0.2582
  189SLPC    HX21805   0.093   5.549   6.757 -0.1594 -0.6263  0.6362
  189SLPC    HY21806   0.129   5.709   6.790 -1.3654 -0.6131  0.6163
  189SLPC   O3121807   0.186   5.595   6.944  0.3179  0.5036  0.0446
  189SLPC   C3121808   0.187   5.466   6.989 -0.0471 -0.7934 -0.0403
  189SLPC   O3221809   0.183   5.367   6.920 -0.3354 -0.0392 -0.2874
  189SLPC   C3221810   0.171   5.458   7.145 -0.2196 -0.3732 -0.3208
  189SLPC   H2X21811   0.071   5.502   7.168 -1.0944 -1.4606 -1.9785
  189SLPC   H2Y21812   0.248   5.522   7.192 -1.0182 -0.8991  1.7818
  189SLPC   C2321813   0.660   5.392   6.987  0.4928 -0.1506  0.6593
  189SLPC   H3R21814   0.725   5.480   6.970 -0.7523  0.5493 -0.5917
  189SLPC   H3S21815   0.716   5.296   6.980  0.1714 -0.2564 -0.4572
  189SLPC   C2421816   0.598   5.400   7.119 -0.5657  0.4118 -0.4059
  189SLPC   H4R21817   0.501   5.346   7.113 -2.2053  2.9676  2.0253
  189SLPC   H4S21818   0.582   5.503   7.159 -1.7533 -0.0968  0.4718
  189SLPC   C2521819   0.674   5.327   7.235 -0.5066  0.0614 -0.0296
  189SLPC   H5R21820   0.775   5.371   7.245 -0.0147 -1.3348  1.3158
  189SLPC   H5S21821   0.689   5.220   7.211 -2.5714 -0.0003 -1.2064
  189SLPC   C2621822   0.599   5.329   7.368  0.4655  0.0100  0.5413
  189SLPC   H6R21823   0.521   5.250   7.361  0.6184 -0.0563 -0.4825
  189SLPC   H6S21824   0.551   5.422   7.404  0.3610 -0.3630  1.3685
  189SLPC   C2721825   0.699   5.288   7.475 -0.2626  0.2237  0.0263
  189SLPC   H7R21826   0.763   5.372   7.510  1.4209 -0.6841 -0.7967
  189SLPC   H7S21827   0.778   5.218   7.438  0.2338  0.4279  0.6955
  189SLPC   C2821828   0.635   5.216   7.601 -0.2077 -0.2705  0.0300
  189SLPC   H8R21829   0.722   5.194   7.667  1.4561 -1.4574 -2.4974
  189SLPC   H8S21830   0.605   5.115   7.566  0.5492 -0.8593  1.0682
  189SLPC   C2921831   0.528   5.294   7.672  0.2483  0.7575 -0.4952
  189SLPC   H9R21832   0.456   5.347   7.608 -1.6034  2.1703  2.6357
  189SLPC  C21021833   0.530   5.330   7.807  1.0557  0.2064 -0.1782
  189SLPC  H10R21834   0.453   5.384   7.862  2.5664  0.1612  2.0410
  189SLPC  C21121835   0.638   5.295   7.908 -0.6853 -0.3434 -0.2178
  189SLPC  H11R21836   0.742   5.304   7.870  0.1940 -1.3185  1.8573
  189SLPC  H11S21837   0.617   5.188   7.930  0.3169 -0.7499 -1.2303
  189SLPC  C21221838   0.628   5.364   8.041 -0.1818 -0.2494  0.2140
  189SLPC  H12R21839   0.682   5.461   8.043 -0.3384 -0.1732  1.0131
  189SLPC  C21321840   0.574   5.326   8.159 -0.1699  0.7116  0.2270
  189SLPC  H13R21841   0.564   5.399   8.241 -0.2989  1.2294 -0.2464
  189SLPC  C21421842   0.503   5.202   8.182  0.8326  0.7698  0.1472
  189SLPC  H14R21843   0.552   5.150   8.267 -0.7103 -0.3138  0.3969
  189SLPC  H14S21844   0.507   5.120   8.107 -2.1251  2.8705 -2.4849
  189SLPC  C21521845   0.349   5.221   8.209  0.2625 -0.7578 -0.3933
  189SLPC  H15R21846   0.335   5.308   8.276 -1.0725 -1.0815 -0.2262
  189SLPC  H15S21847   0.308   5.139   8.272 -3.0674 -0.4409 -1.9950
  189SLPC  C21621848   0.262   5.238   8.075  0.6962 -0.3732 -0.1746
  189SLPC  H16R21849   0.314   5.194   7.987 -0.2601  0.6328 -1.2580
  189SLPC  H16S21850   0.250   5.348   8.063  0.9851 -0.3416 -0.1847
  189SLPC  C21721851   0.124   5.169   8.095  0.3009  0.1033 -0.0047
  189SLPC  H17R21852   0.147   5.061   8.097  0.9924  0.1501 -3.5709
  189SLPC  H17S21853   0.056   5.177   8.008 -0.3917 -0.7937  0.4372
  189SLPC  C21821854   0.050   5.214   8.223 -0.1253 -0.2531 -0.0806
  189SLPC  H18R21855   0.062   5.135   8.300 -1.8266 -0.5551 -0.1077
  189SLPC  H18S21856  -0.060   5.224   8.211  0.2636  2.0888 -2.0089
  189SLPC  H18T21857   0.081   5.317   8.251 -0.2805 -0.0591 -0.6086
  189SLPC   C3321858   0.167   5.313   7.192 -0.1033  0.0068  0.1933
  189SLPC   H3X21859   0.261   5.255   7.184  0.5219  0.9440  0.6276
  189SLPC   H3Y21860   0.100   5.249   7.131  0.9597  0.3436 -1.3643
  189SLPC   C3421861   0.128   5.298   7.339  0.0149 -0.0475 -0.8547
  189SLPC   H4X21862   0.038   5.363   7.339 -0.0674 -0.1342  1.2162
  189SLPC   H4Y21863   0.197   5.346   7.412 -0.7822 -0.4977  0.1897
  189SLPC   C3521864   0.099   5.159   7.402 -0.8682 -0.1023 -0.5114
  189SLPC   H5X21865   0.188   5.095   7.384 -0.1410  0.8700 -0.4278
  189SLPC   H5Y21866   0.017   5.113   7.342 -0.6947  0.4153 -1.1601
  189SLPC   C3621867   0.079   5.158   7.558  0.2905  0.1462  0.4318
  189SLPC   H6X21868   0.052   5.257   7.602 -0.3704 -0.0180  0.4158
  189SLPC   H6Y21869   0.180   5.137   7.599  0.9147  0.9028 -0.6900
  189SLPC   C3721870  -0.028   5.053   7.607 -0.4004  0.2321  0.9612
  189SLPC   H7X21871  -0.001   4.954   7.563 -1.1195  0.9484 -1.1543
  189SLPC   H7Y21872  -0.126   5.079   7.563 -0.3902 -0.9435  0.2265
  189SLPC   C3821873  -0.036   5.039   7.757  0.0398 -0.5538 -0.2663
  189SLPC   H8X21874  -0.108   5.115   7.793 -0.6195 -0.7484 -1.1467
  189SLPC   H8Y21875   0.060   5.072   7.802 -0.2540  0.2762 -0.2456
  189SLPC   C3921876  -0.092   4.903   7.810  0.1206 -0.1528  0.1247
  189SLPC   H9X21877  -0.007   4.834   7.830  0.9847  0.9600  0.3852
  189SLPC   H9Y21878  -0.161   4.859   7.736 -0.5780  1.8832 -0.4646
  189SLPC  C31021879  -0.177   4.927   7.932  0.0973  0.4469 -0.1057
  189SLPC  H10X21880  -0.260   4.997   7.907  0.3812  0.9343  0.3007
  189SLPC  H10Y21881  -0.118   4.958   8.022 -1.9065  0.6914  1.1580
  189SLPC  C31121882  -0.240   4.804   7.989 -0.3380 -0.0252  0.6809
  189SLPC  H11X21883  -0.166   4.723   8.009 -0.5929 -0.6257 -0.7636
  189SLPC  H11Y21884  -0.299   4.764   7.903 -0.9707 -0.0669  1.1292
  189SLPC  C31221885  -0.345   4.835   8.096 -0.1696 -0.7023 -0.1437
  189SLPC  H12X21886  -0.432   4.890   8.055 -0.0012 -0.7739 -0.5914
  189SLPC  H12Y21887  -0.307   4.890   8.185  0.9973  0.3643 -1.2867
  189SLPC  C31321888  -0.412   4.711   8.159 -0.6483 -0.5493 -0.1123
  189SLPC  H13X21889  -0.457   4.644   8.083 -3.4209 -0.4032  1.3519
  189SLPC  H13Y21890  -0.499   4.749   8.216 -0.1415 -0.5798  0.6927
  189SLPC  C31421891  -0.333   4.635   8.268  0.2804 -0.2804  0.1303
  189SLPC  H14X21892  -0.342   4.699   8.358 -1.6788  0.8572 -0.8294
  189SLPC  H14Y21893  -0.231   4.612   8.232  0.1003  0.7607 -1.1004
  189SLPC  C31521894  -0.396   4.491   8.280 -0.1868 -0.2610 -0.0646
  189SLPC  H15X21895  -0.318   4.433   8.333 -0.2405 -0.7934 -0.5721
  189SLPC  H15Y21896  -0.396   4.430   8.188 -4.8411 -0.9506  0.2505
  189SLPC  C31621897  -0.532   4.479   8.354 -0.2932  0.0933 -0.4254
  189SLPC  H16X21898  -0.606   4.514   8.279  0.6983 -0.2376 -1.5747
  189SLPC  H16Y21899  -0.519   4.549   8.439  1.8454 -1.0050  0.1918
  189SLPC  C31721900  -0.567   4.333   8.391  0.5512 -0.8609  0.0511
  189SLPC  H17X21901  -0.576   4.287   8.291  0.4357  2.6180 -1.6115
  189SLPC  H17Y21902  -0.667   4.331   8.440  0.3798 -0.6928 -0.2913
  189SLPC  C31821903  -0.466   4.263   8.481 -0.0273 -0.3353  0.2251
  189SLPC  H18X21904  -0.473   4.305   8.583 -4.5528  1.3024 -0.6249
  189SLPC  H18Y21905  -0.360   4.264   8.446  0.7414 -2.2317  2.3974
  189SLPC  H18Z21906  -0.492   4.156   8.493 -0.0724 -0.4540 -0.8321
  190SLPC     N21907   6.766   4.954   6.073 -0.6824 -0.3791 -0.1215
  190SLPC   C1321908   6.661   4.881   6.012 -0.0651  0.1869  0.6083
  190SLPC  H13A21909   6.571   4.884   6.071  0.0174  0.6272  0.7098
  190SLPC  H13B21910   6.644   4.912   5.910 -0.6823  0.6334  0.8465
  190SLPC  H13C21911   6.703   4.781   6.016  1.3397  0.8002  1.8892
  190SLPC   C1421912   6.752   5.100   6.025 -0.8634  0.0504  0.1547
  190SLPC  H14A21913   6.655   5.140   6.051 -1.0213  0.9485 -1.7273
  190SLPC  H14B21914   6.829   5.161   6.069 -0.8459  1.0153 -1.1958
  190SLPC  H14C21915   6.755   5.118   5.919 -1.0140  1.2128  0.3349
  190SLPC   C1521916   6.898   4.899   6.019  0.1844 -0.5347 -0.2051
  190SLPC  H15A21917   6.986   4.959   6.037 -0.6153  1.2105 -1.9825
  190SLPC  H15B21918   6.913   4.801   6.062  2.6857 -1.2390 -2.5094
  190SLPC  H15C21919   6.891   4.890   5.911 -2.5990  0.7021 -0.1747
  190SLPC   C1221920   6.768   4.944   6.225 -0.7086 -0.1132 -0.2555
  190SLPC  H12A21921   6.703   5.020   6.266 -2.4368 -0.3097 -2.4921
  190SLPC  H12B21922   6.866   4.972   6.259 -0.7066 -2.2989  1.6452
  190SLPC   C1121923   6.733   4.798   6.281 -0.3986 -0.5654 -0.1578
  190SLPC  H11A21924   6.643   4.745   6.242  0.7575 -1.4136 -1.6714
  190SLPC  H11B21925   6.720   4.818   6.390  2.1366  1.9788 -0.2842
  190SLPC     P21926   6.979   4.730   6.339 -0.0227 -0.7591 -0.0640
  190SLPC   O1321927   7.085   4.704   6.238 -0.3427  0.6522 -0.0399
  190SLPC   O1421928   6.989   4.861   6.408  0.1708  0.7916  0.7239
  190SLPC   O1221929   6.847   4.717   6.260  0.4498 -0.0663  0.6232
  190SLPC   O1121930   6.977   4.617   6.443 -0.1090  0.3261 -0.2594
  190SLPC    C121931   6.855   4.557   6.490 -0.1882 -0.1085 -0.1612
  190SLPC    HA21932   6.760   4.596   6.448 -1.0215 -1.0488  0.8207
  190SLPC    HB21933   6.864   4.451   6.460 -0.1161 -1.1391  3.2653
  190SLPC    C221934   6.843   4.579   6.648 -0.1983 -0.0415  0.1035
  190SLPC    HS21935   6.741   4.548   6.679  0.9089 -1.9673  1.9170
  190SLPC   O2121936   6.862   4.715   6.682  0.3248  0.1334  0.3826
  190SLPC   C2121937   6.763   4.796   6.688 -1.2257  0.2061  0.4331
  190SLPC   O2221938   6.655   4.772   6.634  0.8448 -0.0253  0.8844
  190SLPC   C2221939   6.800   4.925   6.758  0.3587 -0.4077 -0.6869
  190SLPC   H2R21940   6.908   4.917   6.785  0.3630  0.0090 -0.5759
  190SLPC   H2S21941   6.777   5.009   6.689 -1.9208  0.6867  1.3349
  190SLPC    C321942   6.956   4.506   6.729  0.5582 -0.2487  0.1113
  190SLPC    HX21943   7.057   4.537   6.695  0.5043 -0.5623 -0.3430
  190SLPC    HY21944   6.946   4.399   6.698 -0.9548  0.8100 -3.2779
  190SLPC   O3121945   6.937   4.536   6.877 -0.4701 -0.2625  0.7293
  190SLPC   C3121946   6.943   4.427   6.948 -0.1939  0.7390  0.6211
  190SLPC   O3221947   6.970   4.315   6.909  0.1949 -0.6059  0.4892
  190SLPC   C3221948   6.916   4.449   7.102  0.4153  0.3110 -0.5508
  190SLPC   H2X21949   6.874   4.551   7.113 -1.4340 -0.2821 -1.8510
  190SLPC   H2Y21950   7.018   4.460   7.145  0.2607 -0.6462  0.0922
  190SLPC   C2321951   6.713   4.949   6.883 -0.3221 -0.3729 -0.1016
  190SLPC   H3R21952   6.607   4.967   6.858 -1.0849 -0.6446  2.7760
  190SLPC   H3S21953   6.745   5.039   6.940 -1.9498  1.7237 -2.3711
  190SLPC   C2421954   6.724   4.832   6.982 -0.1881  0.0108  0.5911
  190SLPC   H4R21955   6.833   4.813   6.994  0.2914  1.1262 -1.6643
  190SLPC   H4S21956   6.689   4.732   6.947  1.2576 -0.8335  1.5271
  190SLPC   C2521957   6.662   4.857   7.118  1.0546  0.6498  0.6496
  190SLPC   H5R21958   6.552   4.856   7.105  1.0435 -0.1979  0.7911
  190SLPC   H5S21959   6.693   4.960   7.148  0.5740  0.9809  0.0257
  190SLPC   C2621960   6.705   4.751   7.221  0.1682 -0.1823 -0.0229
  190SLPC   H6R21961   6.813   4.727   7.210  0.2218 -0.2341  0.5960
  190SLPC   H6S21962   6.653   4.654   7.206  1.3789 -0.8207 -0.1609
  190SLPC   C2721963   6.667   4.800   7.360 -0.3686 -1.2817  0.3255
  190SLPC   H7R21964   6.698   4.906   7.368 -0.2609 -1.2392 -0.5529
  190SLPC   H7S21965   6.713   4.743   7.444 -0.0053 -2.8261 -0.8826
  190SLPC   C2821966   6.516   4.786   7.382  0.1786  0.6396 -0.0969
  190SLPC   H8R21967   6.493   4.681   7.414  2.4181  0.3063  0.4846
  190SLPC   H8S21968   6.466   4.802   7.284  0.5425  0.0329 -0.3870
  190SLPC   C2921969   6.463   4.880   7.483 -0.8005 -0.0182 -0.2405
  190SLPC   H9R21970   6.508   4.981   7.479 -3.0746  1.0602  0.6704
  190SLPC  C21021971   6.368   4.860   7.576 -0.2807 -0.3522  0.1562
  190SLPC  H10R21972   6.352   4.938   7.651  2.0585  1.0725 -0.7703
  190SLPC  C21121973   6.285   4.735   7.597  0.2363 -0.1139 -0.6094
  190SLPC  H11R21974   6.320   4.683   7.688 -2.7366 -0.9029  0.1418
  190SLPC  H11S21975   6.303   4.663   7.514 -0.6767 -1.4853  0.3829
  190SLPC  C21221976   6.135   4.755   7.603  0.5918 -0.0478 -0.4003
  190SLPC  H12R21977   6.092   4.726   7.506 -0.8930 -0.1614  0.2766
  190SLPC  C21321978   6.045   4.782   7.703  0.1862 -0.2591  0.0063
  190SLPC  H13R21979   5.938   4.795   7.681  0.2868 -0.7793 -0.8363
  190SLPC  C21421980   6.079   4.805   7.846  0.2560 -0.1428  0.0935
  190SLPC  H14R21981   6.027   4.900   7.871 -0.2912 -0.6662  0.9663
  190SLPC  H14S21982   6.187   4.811   7.872 -0.0418 -2.1926  1.9620
  190SLPC  C21521983   6.032   4.690   7.933 -0.3620  0.5559  0.1789
  190SLPC  H15R21984   6.100   4.604   7.921 -1.1063 -0.4914  3.0941
  190SLPC  H15S21985   5.926   4.667   7.909 -0.4609  0.7183  0.4497
  190SLPC  C21621986   6.036   4.721   8.080  0.3138 -0.4668  0.6323
  190SLPC  H16R21987   5.976   4.815   8.088  1.8173  0.5550  0.0852
  190SLPC  H16S21988   6.139   4.729   8.121 -0.2482  0.4860  1.9030
  190SLPC  C21721989   5.965   4.598   8.155  0.9598  0.5496 -0.3194
  190SLPC  H17R21990   5.856   4.602   8.135  1.2092  0.8794 -1.6682
  190SLPC  H17S21991   5.970   4.612   8.265  0.8121  3.0657 -0.5942
  190SLPC  C21821992   6.008   4.453   8.121 -0.2157 -0.2759 -0.1682
  190SLPC  H18R21993   6.115   4.423   8.114 -0.4637 -0.9748 -1.0483
  190SLPC  H18S21994   5.964   4.433   8.021  1.7929 -2.9430 -0.5708
  190SLPC  H18T21995   5.957   4.393   8.200  0.6281 -1.4984 -0.5331
  190SLPC   C3321996   6.827   4.346   7.177  0.2903 -0.4269  0.7263
  190SLPC   H3X21997   6.885   4.253   7.164  1.1826  0.0617  1.1829
  190SLPC   H3Y21998   6.733   4.328   7.120  1.5613 -0.9188 -1.2817
  190SLPC   C3421999   6.798   4.382   7.318  1.7994  0.0964  0.2373
  190SLPC   H4X22000   6.713   4.321   7.357  0.7828  2.0024  1.0987
  190SLPC   H4Y22001   6.757   4.485   7.318  0.3552 -0.4205  2.6060
  190SLPC   C3522002   6.908   4.356   7.431  0.5683  0.5173 -0.1624
  190SLPC   H5X22003   6.995   4.423   7.417  1.0641  0.6099  2.9478
  190SLPC   H5Y22004   6.923   4.246   7.423  1.2097  0.5403  0.6664
  190SLPC   C3622005   6.861   4.387   7.572 -0.0276 -0.2346 -0.4583
  190SLPC   H6X22006   6.764   4.337   7.592  0.4479 -1.6356 -1.6267
  190SLPC   H6Y22007   6.842   4.497   7.576 -1.2305 -0.4093 -1.1691
  190SLPC   C3722008   6.967   4.352   7.682 -0.0622  0.5182  0.1511
  190SLPC   H7X22009   7.053   4.415   7.651  1.4908 -2.0566 -0.8279
  190SLPC   H7Y22010   6.989   4.244   7.670 -2.6816  0.0311 -0.6164
  190SLPC   C3822011   6.924   4.388   7.824  0.5491  0.1741 -0.3443
  190SLPC   H8X22012   6.820   4.352   7.837  0.5171  0.5267  0.3943
  190SLPC   H8Y22013   6.916   4.499   7.831  0.8971  0.1841 -0.0926
  190SLPC   C3922014   7.020   4.336   7.937 -0.3918  0.5608  0.0875
  190SLPC   H9X22015   7.124   4.361   7.907 -0.6668  1.3883 -0.1885
  190SLPC   H9Y22016   7.025   4.225   7.946 -0.3743  0.3494 -2.1736
  190SLPC  C31022017   6.986   4.387   8.080  0.4876  0.2857 -1.0289
  190SLPC  H10X22018   7.022   4.492   8.089 -0.7881  0.4868  2.2712
  190SLPC  H10Y22019   7.031   4.317   8.153  1.9320  0.7875 -1.4049
  190SLPC  C31122020   6.834   4.397   8.112  0.2896  0.4538 -0.0944
  190SLPC  H11X22021   6.788   4.458   8.032 -0.8160 -0.0840  0.1254
  190SLPC  H11Y22022   6.816   4.457   8.204 -2.1858 -1.9438  1.0674
  190SLPC  C31222023   6.766   4.256   8.109  0.0157 -0.6459 -0.4761
  190SLPC  H12X22024   6.800   4.183   8.032  0.7382  1.2373 -1.9776
  190SLPC  H12Y22025   6.660   4.280   8.088 -0.6992 -1.6444  1.8941
  190SLPC  C31322026   6.767   4.183   8.246  0.0330  0.4605  0.2780
  190SLPC  H13X22027   6.754   4.253   8.332 -1.4151 -1.3936  1.6159
  190SLPC  H13Y22028   6.867   4.144   8.276  1.1527  1.3885 -2.1118
  190SLPC  C31422029   6.655   4.080   8.255 -0.3856  0.9126 -0.4564
  190SLPC  H14X22030   6.646   4.010   8.169 -0.0263 -1.5310  1.4719
  190SLPC  H14Y22031   6.557   4.132   8.259 -0.2875  1.0266  0.3900
  190SLPC  C31522032   6.665   3.999   8.392  0.1230 -0.1426 -0.3415
  190SLPC  H15X22033   6.636   4.074   8.469 -2.3292 -1.6670  0.3081
  190SLPC  H15Y22034   6.773   3.979   8.406 -0.0148 -0.4930  0.2526
  190SLPC  C31622035   6.577   3.880   8.410 -0.4094 -0.3376  0.2459
  190SLPC  H16X22036   6.609   3.805   8.334 -0.7755 -1.5320  1.2705
  190SLPC  H16Y22037   6.476   3.921   8.388  0.0583 -0.1265 -1.6242
  190SLPC  C31722038   6.590   3.806   8.537  0.7897  0.1501  0.8741
  190SLPC  H17X22039   6.524   3.718   8.549 -1.1036  1.3974 -0.0845
  190SLPC  H17Y22040   6.564   3.876   8.619 -0.3217  1.8183 -0.8620
  190SLPC  C31822041   6.726   3.747   8.550  0.7186 -0.1498  0.7584
  190SLPC  H18X22042   6.805   3.825   8.545  1.8394 -1.2641  0.7913
  190SLPC  H18Y22043   6.736   3.686   8.457  2.5730 -0.3345  1.0605
  190SLPC  H18Z22044   6.728   3.686   8.643 -1.2566 -1.8826 -0.2781
  191SLPC     N22045   6.120   6.472   5.745  0.2149  0.5449  0.2728
  191SLPC   C1322046   6.226   6.383   5.682 -0.3477 -0.7682 -0.2278
  191SLPC  H13A22047   6.328   6.412   5.704 -0.2492 -0.4760 -1.0682
  191SLPC  H13B22048   6.212   6.280   5.713  2.9616 -0.5323  2.3210
  191SLPC  H13C22049   6.227   6.390   5.575 -0.2064 -3.6420 -0.4553
  191SLPC   C1422050   6.135   6.452   5.894 -0.6987  0.0601 -0.2433
  191SLPC  H14A22051   6.141   6.348   5.923  0.4441  0.1635 -0.1035
  191SLPC  H14B22052   6.221   6.510   5.923 -1.1537 -0.1081  1.5200
  191SLPC  H14C22053   6.054   6.506   5.942 -1.0293  0.0390 -0.7827
  191SLPC   C1522054   5.979   6.422   5.717 -0.3212  0.0165 -0.3163
  191SLPC  H15A22055   5.971   6.420   5.609 -0.9193  0.1301 -0.2797
  191SLPC  H15B22056   5.959   6.323   5.755  0.0879  0.0147 -0.1111
  191SLPC  H15C22057   5.896   6.484   5.749 -1.7867 -0.9512 -2.1594
  191SLPC   C1222058   6.141   6.613   5.703 -0.2548  0.6879 -0.7437
  191SLPC  H12A22059   6.058   6.677   5.729 -0.5644 -1.0462  2.7457
  191SLPC  H12B22060   6.133   6.604   5.595 -1.5904 -3.3013 -0.3819
  191SLPC   C1122061   6.274   6.673   5.742  0.2356  0.7415 -0.2584
  191SLPC  H11A22062   6.277   6.773   5.694  1.2355  0.9054  0.1184
  191SLPC  H11B22063   6.354   6.611   5.695 -0.3636  0.6886 -1.2065
  191SLPC     P22064   6.433   6.733   5.945  0.2631  0.4406  0.2436
  191SLPC   O1322065   6.531   6.629   5.914  0.1379  0.1568 -0.1415
  191SLPC   O1422066   6.464   6.870   5.902  0.3026  0.8223  0.3099
  191SLPC   O1222067   6.290   6.691   5.889 -0.1153 -0.1056  0.3177
  191SLPC   O1122068   6.416   6.733   6.099 -0.4736 -0.1430  0.6104
  191SLPC    C122069   6.297   6.703   6.173  0.1299  0.4306  0.0058
  191SLPC    HA22070   6.217   6.778   6.159  0.6994  1.0809  0.2248
  191SLPC    HB22071   6.259   6.603   6.143  2.3117 -1.0744  1.9593
  191SLPC    C222072   6.335   6.674   6.317 -0.4745  0.3705 -0.1394
  191SLPC    HS22073   6.240   6.658   6.373 -0.5755  1.3284 -0.0308
  191SLPC   O2122074   6.406   6.790   6.375  0.0255  0.2591 -0.1046
  191SLPC   C2122075   6.327   6.880   6.429 -0.2770 -0.6638 -0.1224
  191SLPC   O2222076   6.206   6.882   6.428  0.0064  1.1706  0.0750
  191SLPC   C2222077   6.422   6.999   6.481 -0.2085 -0.1189  0.0031
  191SLPC   H2R22078   6.532   6.981   6.474 -0.3684 -1.8496  1.4364
  191SLPC   H2S22079   6.403   7.074   6.402 -0.7896  0.0128  0.2670
  191SLPC    C322080   6.420   6.548   6.322 -0.8246  0.1218 -0.3704
  191SLPC    HX22081   6.519   6.574   6.280 -0.2582 -0.5046  0.5556
  191SLPC    HY22082   6.384   6.464   6.259  1.7316  1.3105 -3.5149
  191SLPC   O3122083   6.446   6.509   6.457  0.1495 -0.4047 -0.6450
  191SLPC   C3122084   6.367   6.411   6.507  0.2062 -0.1596  0.0377
  191SLPC   O3222085   6.258   6.378   6.459  0.1231  0.1554 -0.3466
  191SLPC   C3222086   6.422   6.363   6.643  0.5198  0.6344  0.2944
  191SLPC   H2X22087   6.525   6.325   6.633  0.6877  0.7220  1.6307
  191SLPC   H2Y22088   6.353   6.289   6.689 -1.5827  0.1515 -3.4223
  191SLPC   C2322089   6.388   7.046   6.626  0.1136 -0.3628 -0.3784
  191SLPC   H3R22090   6.290   7.096   6.642  0.1429 -0.6954  0.9181
  191SLPC   H3S22091   6.462   7.128   6.640  0.2816 -0.4408 -0.8121
  191SLPC   C2422092   6.423   6.942   6.734  0.6989 -0.5249 -0.1076
  191SLPC   H4R22093   6.532   6.923   6.742  0.8435  0.1048 -0.5618
  191SLPC   H4S22094   6.373   6.844   6.723  1.4504 -0.6626 -2.5558
  191SLPC   C2522095   6.396   6.982   6.884 -0.2127  0.1430  0.2851
  191SLPC   H5R22096   6.290   7.016   6.891 -0.1529  0.3797  0.0186
  191SLPC   H5S22097   6.462   7.060   6.926  0.7354 -1.0892  1.1137
  191SLPC   C2622098   6.413   6.869   6.985  0.2898 -1.1727 -0.2897
  191SLPC   H6R22099   6.520   6.842   6.996  0.3307 -0.7356  0.4420
  191SLPC   H6S22100   6.362   6.774   6.955 -2.0456 -0.2283  0.5800
  191SLPC   C2722101   6.362   6.910   7.124 -0.1640  0.1249 -0.5417
  191SLPC   H7R22102   6.251   6.910   7.121 -0.2071  2.7970  0.1371
  191SLPC   H7S22103   6.379   7.017   7.145 -0.4845  0.8625 -3.7497
  191SLPC   C2822104   6.416   6.820   7.237  0.1161  0.3923  0.2961
  191SLPC   H8R22105   6.408   6.886   7.326 -1.7717 -0.9304  1.1206
  191SLPC   H8S22106   6.523   6.801   7.214  0.3521  1.2425  0.6605
  191SLPC   C2922107   6.336   6.691   7.265 -0.0312  0.1598  0.1040
  191SLPC   H9R22108   6.319   6.631   7.174 -1.1187  0.9964 -0.2657
  191SLPC  C21022109   6.288   6.647   7.377  0.2744  0.0312  0.0464
  191SLPC  H10R22110   6.224   6.558   7.369  0.0018  0.4603 -4.0118
  191SLPC  C21122111   6.287   6.709   7.516  0.0318 -0.1610  0.5360
  191SLPC  H11R22112   6.366   6.787   7.526 -0.8198  0.4738  2.6533
  191SLPC  H11S22113   6.326   6.632   7.585 -0.7528 -0.2271  0.9072
  191SLPC  C21222114   6.150   6.763   7.547  0.0730 -0.1484  0.0923
  191SLPC  H12R22115   6.087   6.784   7.460 -0.7303  0.4633  0.8161
  191SLPC  C21322116   6.102   6.774   7.667 -0.4591 -0.4816  0.6945
  191SLPC  H13R22117   5.997   6.807   7.666 -0.1792  0.4567 -1.7700
  191SLPC  C21422118   6.171   6.744   7.797  0.2585 -0.0459 -0.4342
  191SLPC  H14R22119   6.166   6.834   7.861 -2.8982 -0.6056  0.1869
  191SLPC  H14S22120   6.276   6.712   7.784 -0.1154 -0.8660 -1.5018
  191SLPC  C21522121   6.098   6.638   7.875  0.5760  0.1906 -0.0217
  191SLPC  H15R22122   6.166   6.602   7.955  0.7821 -0.0856 -0.3178
  191SLPC  H15S22123   6.078   6.559   7.800  0.1843 -0.1388  0.4276
  191SLPC  C21622124   5.958   6.671   7.933  0.4669  0.0789 -0.2989
  191SLPC  H16R22125   5.920   6.577   7.979 -1.0606  0.9804  0.3198
  191SLPC  H16S22126   5.898   6.698   7.844  1.9428 -0.2321 -1.4050
  191SLPC  C21722127   5.952   6.796   8.021 -0.3291  1.1517  0.0806
  191SLPC  H17R22128   5.845   6.794   8.051  0.1171 -1.2325  1.6280
  191SLPC  H17S22129   5.984   6.889   7.970  1.2628  0.7404  0.3034
  191SLPC  C21822130   6.025   6.794   8.154 -0.0663 -0.6992  0.5665
  191SLPC  H18R22131   5.984   6.874   8.220  1.0512  0.8172 -0.5334
  191SLPC  H18S22132   6.130   6.822   8.129 -0.1358 -1.6432 -0.8573
  191SLPC  H18T22133   6.018   6.698   8.208  0.2174 -1.7789 -1.2619
  191SLPC   C3322134   6.418   6.482   6.743  0.1443  0.0261 -0.1004
  191SLPC   H3X22135   6.310   6.504   6.759  0.4373  0.3764  1.5665
  191SLPC   H3Y22136   6.464   6.570   6.693 -0.7457  0.0915 -0.8047
  191SLPC   C3422137   6.495   6.449   6.873  0.0462 -0.3311 -1.5599
  191SLPC   H4X22138   6.531   6.543   6.920  1.3751 -1.2908 -0.6332
  191SLPC   H4Y22139   6.582   6.383   6.854 -0.1194 -1.2032  0.4713
  191SLPC   C3522140   6.406   6.384   6.985  0.5378 -1.0503  0.3920
  191SLPC   H5X22141   6.357   6.303   6.926 -1.0558 -2.0426  2.9808
  191SLPC   H5Y22142   6.313   6.444   6.989  0.2381 -1.4723 -0.1230
  191SLPC   C3622143   6.459   6.348   7.124  0.5276  0.4381 -0.5868
  191SLPC   H6X22144   6.492   6.440   7.177 -1.6116  1.6601 -1.3054
  191SLPC   H6Y22145   6.552   6.291   7.104 -0.9783 -1.7723 -1.5019
  191SLPC   C3722146   6.341   6.268   7.202  0.1472 -0.5695 -0.3750
  191SLPC   H7X22147   6.306   6.187   7.134 -0.6091 -0.2229 -0.4046
  191SLPC   H7Y22148   6.262   6.345   7.213  1.6526  1.0032 -0.3274
  191SLPC   C3822149   6.378   6.201   7.332 -0.6818 -0.3489 -0.2568
  191SLPC   H8X22150   6.471   6.145   7.312 -0.0990  0.8088 -0.7969
  191SLPC   H8Y22151   6.302   6.123   7.356  2.2399 -2.6010  2.0985
  191SLPC   C3922152   6.396   6.314   7.437  0.0937 -0.4909  0.4250
  191SLPC   H9X22153   6.304   6.375   7.438  0.1788 -0.3483 -0.2472
  191SLPC   H9Y22154   6.477   6.379   7.399  0.3344 -0.9002  0.2321
  191SLPC  C31022155   6.416   6.259   7.576 -0.4240  0.5572  0.2246
  191SLPC  H10X22156   6.510   6.200   7.578 -1.1530 -0.6066  0.7662
  191SLPC  H10Y22157   6.330   6.192   7.598  1.3177 -0.7783  3.2364
  191SLPC  C31122158   6.413   6.360   7.686 -0.5965 -0.0081  0.0195
  191SLPC  H11X22159   6.321   6.422   7.690 -0.4517  0.1682  0.8385
  191SLPC  H11Y22160   6.503   6.423   7.671 -0.6456 -0.2433 -1.2937
  191SLPC  C31222161   6.414   6.296   7.826  0.1144 -0.8444 -0.0229
  191SLPC  H12X22162   6.520   6.263   7.836  1.1880  2.9035  1.6997
  191SLPC  H12Y22163   6.352   6.204   7.830  1.4428 -1.7470  0.1315
  191SLPC  C31322164   6.383   6.383   7.948  0.5457 -0.3911 -0.3117
  191SLPC  H13X22165   6.303   6.455   7.922  1.2017  0.2614 -0.5406
  191SLPC  H13Y22166   6.471   6.447   7.971 -0.1582  0.2712  0.5389
  191SLPC  C31422167   6.328   6.309   8.069  0.7307  0.2323  0.9766
  191SLPC  H14X22168   6.413   6.249   8.110 -0.6909 -1.5784  1.3501
  191SLPC  H14Y22169   6.254   6.235   8.031  0.9105  0.3320  0.4368
  191SLPC  C31522170   6.275   6.407   8.168  0.1696  0.6538 -1.0014
  191SLPC  H15X22171   6.222   6.486   8.112 -1.3443  0.4255  0.0638
  191SLPC  H15Y22172   6.368   6.450   8.211  0.9651  0.1493 -2.2069
  191SLPC  C31622173   6.178   6.349   8.278  0.0453  0.5081 -0.2085
  191SLPC  H16X22174   6.235   6.259   8.311 -0.2001  0.2608 -0.4646
  191SLPC  H16Y22175   6.080   6.316   8.237  0.8174  1.2387 -2.7268
  191SLPC  C31722176   6.158   6.437   8.397  0.0271 -1.0593 -0.6678
  191SLPC  H17X22177   6.108   6.526   8.354 -0.7217 -1.6397 -0.9924
  191SLPC  H17Y22178   6.255   6.467   8.444 -1.8615  1.6935  1.6579
  191SLPC  C31822179   6.068   6.376   8.502 -0.8100 -0.0566 -0.2070
  191SLPC  H18X22180   6.041   6.454   8.577 -0.2275  0.7616 -0.8372
  191SLPC  H18Y22181   6.103   6.284   8.553 -0.9802 -0.5827 -1.0443
  191SLPC  H18Z22182   5.970   6.361   8.453 -0.8052  1.4561 -0.7016
  192SLPC     N22183   0.252   6.587   6.225 -0.0732 -0.1464 -0.3765
  192SLPC   C1322184   0.166   6.464   6.249  0.0265  0.4690  0.4153
  192SLPC  H13A22185   0.178   6.410   6.342  1.1373 -1.0489 -0.5840
  192SLPC  H13B22186   0.061   6.475   6.230 -0.1329  2.3622  2.2386
  192SLPC  H13C22187   0.198   6.394   6.174 -0.1170  0.0989  0.6962
  192SLPC   C1422188   0.231   6.632   6.087  0.0453 -0.6465 -0.4268
  192SLPC  H14A22189   0.131   6.667   6.069  0.1999 -0.4776 -0.9543
  192SLPC  H14B22190   0.305   6.702   6.051  0.2119 -0.5853  0.0334
  192SLPC  H14C22191   0.225   6.546   6.022 -0.5855 -0.3409 -0.7749
  192SLPC   C1522192   0.397   6.542   6.230 -0.7846 -0.1862 -0.8585
  192SLPC  H15A22193   0.412   6.456   6.166 -0.2768  0.2973 -1.3980
  192SLPC  H15B22194   0.468   6.620   6.209  0.1765 -1.1218 -1.1357
  192SLPC  H15C22195   0.415   6.511   6.332  0.3990  2.1740 -0.3367
  192SLPC   C1222196   0.217   6.702   6.321  0.4908 -0.6657 -0.0119
  192SLPC  H12A22197   0.118   6.740   6.300  0.7009  0.2915  0.6840
  192SLPC  H12B22198   0.284   6.781   6.291 -0.9802 -0.3222 -2.5517
  192SLPC   C1122199   0.229   6.675   6.471  0.0660  0.3891  0.4369
  192SLPC  H11A22200   0.172   6.582   6.493 -0.2358  0.4658 -0.0066
  192SLPC  H11B22201   0.186   6.762   6.524 -1.8877  0.9229 -1.9293
  192SLPC     P22202   0.402   6.595   6.647  0.1101  0.1872  0.0782
  192SLPC   O1322203   0.317   6.479   6.667  0.1296 -0.1656 -1.0500
  192SLPC   O1422204   0.541   6.577   6.675  0.0903  0.1243  0.7241
  192SLPC   O1222205   0.370   6.654   6.503 -0.1888  0.1338  0.2084
  192SLPC   O1122206   0.350   6.722   6.732 -0.2112 -0.5345  0.2532
  192SLPC    C122207   0.402   6.853   6.739 -0.5693 -1.1303 -0.0800
  192SLPC    HA22208   0.494   6.862   6.677 -0.9656 -0.9010 -0.6433
  192SLPC    HB22209   0.332   6.929   6.700  1.8664  1.7749  1.0240
  192SLPC    C222210   0.436   6.900   6.884 -0.3823 -0.1798 -0.1153
  192SLPC    HS22211   0.516   6.835   6.926  0.0228 -0.4656 -1.2944
  192SLPC   O2122212   0.308   6.904   6.950 -0.1145  0.1752 -0.1837
  192SLPC   C2122213   0.294   6.808   7.044 -0.3628 -0.2059  0.3795
  192SLPC   O2222214   0.386   6.740   7.082 -0.7737  0.1581 -0.0920
  192SLPC   C2222215   0.171   6.824   7.130  0.5660 -0.1648  0.2983
  192SLPC   H2R22216   0.163   6.928   7.169 -0.9237  0.2087 -0.9281
  192SLPC   H2S22217   0.084   6.796   7.066  0.6483 -2.8768  1.3404
  192SLPC    C322218   0.501   7.044   6.886 -0.1602  0.3572 -0.2654
  192SLPC    HX22219   0.424   7.097   6.825  0.3876  1.0791 -0.3284
  192SLPC    HY22220   0.594   7.056   6.827 -0.3153  1.8364 -0.2133
  192SLPC   O3122221   0.512   7.092   7.018 -0.3398  0.7203 -0.0277
  192SLPC   C3122222   0.452   7.205   7.054  0.3293  0.0919  0.7316
  192SLPC   O3222223   0.382   7.275   6.978 -0.2353 -0.1571 -0.1082
  192SLPC   C3222224   0.469   7.224   7.211  0.9304 -0.3309  0.0379
  192SLPC   H2X22225   0.379   7.282   7.238  0.4051 -0.5434 -1.2059
  192SLPC   H2Y22226   0.558   7.290   7.219 -0.8151  2.1157 -0.1499
  192SLPC   C2322227   0.172   6.745   7.256 -0.5750  0.8306 -0.2427
  192SLPC   H3R22228   0.260   6.778   7.316  0.5730 -0.3329 -1.2880
  192SLPC   H3S22229   0.198   6.640   7.232 -0.2391  0.5673  1.1921
  192SLPC   C2422230   0.045   6.751   7.337  0.6953  0.0479  0.5159
  192SLPC   H4R22231  -0.028   6.697   7.274  0.3504  0.4718  0.5521
  192SLPC   H4S22232   0.036   6.860   7.357 -1.2932 -0.4564  2.6185
  192SLPC   C2522233   0.063   6.669   7.465 -0.1963  0.0332  0.7103
  192SLPC   H5R22234   0.156   6.697   7.519  2.1668 -0.8953 -2.7252
  192SLPC   H5S22235   0.081   6.563   7.438 -2.2826 -0.6016  1.6775
  192SLPC   C2622236  -0.053   6.669   7.574  0.4439  0.8684  0.5618
  192SLPC   H6R22237  -0.019   6.616   7.665 -2.2276 -1.7061  0.1576
  192SLPC   H6S22238  -0.142   6.616   7.534  0.1432  0.2084  2.0831
  192SLPC   C2722239  -0.083   6.814   7.618 -0.6817 -0.7561 -0.2847
  192SLPC   H7R22240  -0.107   6.866   7.523  3.8419  1.2930 -0.4419
  192SLPC   H7S22241   0.012   6.859   7.655 -0.6402 -1.8385  0.9560
  192SLPC   C2822242  -0.190   6.829   7.724 -0.1694 -0.2616  0.1747
  192SLPC   H8R22243  -0.288   6.793   7.684 -0.1926  0.7361 -0.6719
  192SLPC   H8S22244  -0.194   6.937   7.747  1.3296 -0.0231 -0.6614
  192SLPC   C2922245  -0.145   6.756   7.846 -0.9007  0.2038 -0.1185
  192SLPC   H9R22246  -0.136   6.648   7.825 -1.0511 -0.0342  1.0041
  192SLPC  C21022247  -0.117   6.814   7.965  0.3392  0.1627 -0.1732
  192SLPC  H10R22248  -0.090   6.748   8.048 -1.4337  0.4698  0.6643
  192SLPC  C21122249  -0.136   6.960   8.006 -0.9019 -0.5380  0.0501
  192SLPC  H11R22250  -0.230   6.963   8.066 -0.1234  0.5083  1.2333
  192SLPC  H11S22251  -0.154   7.021   7.915 -1.0068 -1.6919 -0.7114
  192SLPC  C21222252  -0.020   7.024   8.078 -0.6412  0.6771  0.1275
  192SLPC  H12R22253  -0.037   7.041   8.185  1.1904 -2.0729  0.9296
  192SLPC  C21322254   0.093   7.070   8.023 -0.0539  0.4121  0.4614
  192SLPC  H13R22255   0.168   7.119   8.087 -0.3565  2.7586 -0.9053
  192SLPC  C21422256   0.137   7.082   7.877  0.7417  0.6739  0.8311
  192SLPC  H14R22257   0.101   6.997   7.815  3.7878  0.1605 -0.3186
  192SLPC  H14S22258   0.246   7.066   7.865  0.5971  1.5963 -2.1018
  192SLPC  C21522259   0.100   7.209   7.806 -0.1330  0.2755 -0.3736
  192SLPC  H15R22260   0.114   7.307   7.856  0.7770  0.3655 -0.7823
  192SLPC  H15S22261  -0.010   7.195   7.801  0.2164 -2.5243 -1.0653
  192SLPC  C21622262   0.160   7.218   7.663  0.3179 -0.0345  0.5149
  192SLPC  H16R22263   0.145   7.132   7.594  0.6222  0.3406 -0.0279
  192SLPC  H16S22264   0.270   7.208   7.670  0.3214  0.4380  1.0959
  192SLPC  C21722265   0.137   7.348   7.602  0.1548 -0.2863  0.2843
  192SLPC  H17R22266   0.027   7.363   7.598  0.4912  1.8592 -3.5017
  192SLPC  H17S22267   0.166   7.433   7.667 -3.0706  0.6987  0.5370
  192SLPC  C21822268   0.198   7.378   7.464  0.0028  0.3102 -0.0496
  192SLPC  H18R22269   0.304   7.402   7.488 -0.5557  0.6418  2.1321
  192SLPC  H18S22270   0.161   7.478   7.432  1.6859  1.0115  0.1310
  192SLPC  H18T22271   0.179   7.306   7.382 -0.1280 -0.4947  0.6866
  192SLPC   C3322272   0.505   7.100   7.285  0.1238  0.1989 -0.9097
  192SLPC   H3X22273   0.613   7.089   7.265  0.0976 -1.1678 -0.3180
  192SLPC   H3Y22274   0.456   7.010   7.244 -3.3567  2.5414 -2.1054
  192SLPC   C3422275   0.498   7.108   7.436  0.4093  0.2595 -0.0895
  192SLPC   H4X22276   0.494   7.009   7.486 -0.7189  0.7589  0.8362
  192SLPC   H4Y22277   0.398   7.151   7.459  0.0573 -0.6628  0.1216
  192SLPC   C3522278   0.607   7.199   7.502 -0.4717  0.0522  0.2946
  192SLPC   H5X22279   0.620   7.294   7.444  0.2590 -0.9635 -1.2398
  192SLPC   H5Y22280   0.705   7.148   7.491 -0.7681 -0.8524  1.7957
  192SLPC   C3622281   0.573   7.241   7.640 -0.0332 -0.2350  0.4615
  192SLPC   H6X22282   0.478   7.297   7.639  1.0323  1.6293  0.8238
  192SLPC   H6Y22283   0.645   7.315   7.681 -1.3078  0.5501  1.2839
  192SLPC   C3722284   0.593   7.128   7.745  0.5543 -0.0085 -0.4649
  192SLPC   H7X22285   0.699   7.100   7.726  0.7405  1.1204 -1.1682
  192SLPC   H7Y22286   0.535   7.036   7.721 -0.6386  0.1670  1.6569
  192SLPC   C3822287   0.584   7.167   7.894 -0.5126  0.7786  0.1374
  192SLPC   H8X22288   0.478   7.194   7.914 -1.4355  0.0722 -3.3820
  192SLPC   H8Y22289   0.640   7.260   7.919  1.3861  0.7234 -3.5643
  192SLPC   C3922290   0.628   7.061   7.992 -0.0163  0.9835  0.6376
  192SLPC   H9X22291   0.591   6.964   7.953  0.9241  1.9769 -2.8881
  192SLPC   H9Y22292   0.578   7.073   8.090 -1.2826 -0.8760  0.2469
  192SLPC  C31022293   0.782   7.049   8.017 -0.1555  0.1561  0.6123
  192SLPC  H10X22294   0.809   7.141   8.074 -0.3652  1.2948 -1.0752
  192SLPC  H10Y22295   0.836   7.053   7.919 -2.1280 -0.7178 -0.5333
  192SLPC  C31122296   0.824   6.919   8.090 -0.6464 -0.1303  0.1915
  192SLPC  H11X22297   0.932   6.897   8.079 -0.5399  0.5766 -0.1977
  192SLPC  H11Y22298   0.778   6.832   8.040  0.3413 -0.5056 -0.0724
  192SLPC  C31222299   0.800   6.919   8.247 -0.4073  0.0446  0.5382
  192SLPC  H12X22300   0.699   6.957   8.274 -0.2222  1.0662 -0.1705
  192SLPC  H12Y22301   0.861   7.000   8.293 -0.7933  1.1542 -0.8668
  192SLPC  C31322302   0.838   6.788   8.320  0.4838 -0.9374 -0.3496
  192SLPC  H13X22303   0.948   6.772   8.313  0.3203 -1.4160 -1.7888
  192SLPC  H13Y22304   0.787   6.705   8.268  1.2743 -0.3520 -2.0892
  192SLPC  C31422305   0.796   6.766   8.467  0.0748  0.2756 -0.1144
  192SLPC  H14X22306   0.691   6.731   8.467 -0.2917  1.3239 -1.2441
  192SLPC  H14Y22307   0.806   6.861   8.524  1.7735  0.3026 -0.4045
  192SLPC  C31522308   0.881   6.656   8.541  0.5035 -0.5277  0.9142
  192SLPC  H15X22309   0.982   6.701   8.549 -0.5059  2.2715 -1.0171
  192SLPC  H15Y22310   0.876   6.561   8.484  1.8508  1.2033 -2.2587
  192SLPC  C31622311   0.845   6.630   8.693 -0.3321  0.3584  0.0153
  192SLPC  H16X22312   0.735   6.617   8.704 -0.0926 -1.8828 -0.1506
  192SLPC  H16Y22313   0.878   6.723   8.745  1.6263 -0.3574  0.0800
  192SLPC  C31722314   0.923   6.516   8.751 -0.2276 -0.2529 -0.0400
  192SLPC  H17X22315   0.887   6.427   8.695 -0.6133  2.0453 -3.5203
  192SLPC  H17Y22316   0.890   6.500   8.856  1.1946  0.7543  0.5711
  192SLPC  C31822317   1.074   6.506   8.748  0.3974 -0.3022  0.6083
  192SLPC  H18X22318   1.122   6.406   8.750 -2.9009 -2.1069 -2.8219
  192SLPC  H18Y22319   1.114   6.567   8.832 -0.2744  1.7532 -0.5281
  192SLPC  H18Z22320   1.112   6.564   8.660  1.1461  0.2150  1.2640
  193SOD    SOD22321   1.755   6.467  11.993 -0.0621  0.1337  0.8629
  194SOD    SOD22322   4.156   0.155   5.018  0.5183  0.0553  0.2955
  195SOD    SOD22323   1.225   6.535   1.208 -0.2894 -0.1833  0.2089
  196SOD    SOD22324   2.010   6.714   0.957  0.3491  0.0020  0.6547
  197SOD    SOD22325   2.256   3.085  12.632 -0.4220 -0.1032  0.0009
  198SOD    SOD22326   0.152   2.381  15.014  0.0017  0.0523  0.0488
  199SOD    SOD22327   2.165   2.920  15.714  0.3586  0.6027 -0.1268
  200SOD    SOD22328   4.003   6.166  11.063  0.1586 -0.0157 -0.4082
  201SOD    SOD22329   5.671   3.560   1.838  0.2062 -0.3775 -0.5686
  202SOD    SOD22330   1.216   1.428  16.662  0.2136 -0.3974  0.0837
  203SOD    SOD22331   3.095   1.632   1.132  0.7579 -0.2779  0.4114
  204SOD    SOD22332   2.165   4.235  16.606  0.2434  0.3394  0.4268
  205SOD    SOD22333   5.060   6.184   3.047  0.2740 -0.4524  0.2627
  206SOD    SOD22334   1.084   5.773  13.008 -0.6812  0.5293  0.1549
  207SOD    SOD22335   4.412   5.080  15.966 -0.0659  0.3353  0.2626
  208SOD    SOD22336   2.663   2.453   0.729 -0.2121  0.0372 -0.0271
  209SOD    SOD22337   1.996   0.695   5.815 -0.0959  0.1581  0.0746
  210SOD    SOD22338   0.237   2.357  16.033  0.4780 -0.5099  0.0545
  211SOD    SOD22339   4.520   4.318  10.600  0.0444 -0.2575  0.9824
  212SOD    SOD22340   6.807   2.589  11.903  0.3670  0.6285 -0.2566
  213SOD    SOD22341   4.762   3.775   3.142  0.4490 -0.0724  0.6186
  214SOD    SOD22342   5.715   1.553   6.410 -0.3251 -0.1187 -0.4308
  215SOD    SOD22343   2.490   6.068   0.087  0.3483  0.0718  0.5676
  216SOD    SOD22344   5.723   0.922   0.624  0.4089 -0.3838  0.2700
  217SOD    SOD22345   2.904   3.459   5.725  0.2266  0.5021 -0.0326
  218SOD    SOD22346   3.391   6.795   0.647 -0.1292 -0.2962  0.0696
  219SOD    SOD22347   2.673   4.908   6.489 -0.5410  0.1650  0.5124
  220SOD    SOD22348   5.719   6.667   2.437 -0.5117 -0.1287  0.3456
  221SOD    SOD22349   3.491   3.582  12.930  0.2371  0.1532 -0.2573
  222SOD    SOD22350   5.356   5.766  12.439 -0.3150  0.3720  0.6822
  223SOD    SOD22351   0.160   2.461   4.403 -0.4403 -0.2232 -0.1389
  224SOD    SOD22352   1.466   1.995   4.851  0.4853 -0.1216  0.0883
  225SOD    SOD22353   5.305   4.209   6.221  0.4339 -1.1325 -0.0609
  226SOD    SOD22354   4.771   0.890  10.629  0.1565  0.5028 -0.4162
  227SOD    SOD22355   1.788   4.463  11.069 -0.0279 -0.0021 -0.6698
  228SOD    SOD22356   0.469   2.576   6.239  0.2121 -0.0254  0.1833
  229SOD    SOD22357   6.529   0.429   4.194 -0.8085 -0.0454 -0.1507
  230SOD    SOD22358   0.934   5.124   2.420  0.5563  0.0005 -0.3195
  231SOD    SOD22359   2.933   3.481  10.543  0.3993 -0.4921 -0.3111
  232SOD    SOD22360   0.522   5.034   6.134  0.2902  0.0560  0.2984
  233SOD    SOD22361   5.003   1.600   5.692  0.3078  0.1080  0.3229
  234SOD    SOD22362   3.660   1.981  13.473  0.2210 -0.5383  0.5369
  235SOD    SOD22363   2.147   4.558  11.639 -0.0626 -0.2704  0.4119
  236SOD    SOD22364   5.886   3.745  13.490  0.0971  0.3519 -0.1110
  237SOD    SOD22365   5.842   2.028  12.879  0.1650 -0.1612 -0.2991
  238SOD    SOD22366   6.264   2.541  10.691  0.1482 -0.5481  0.1756
  239SOD    SOD22367   6.724   3.574   5.534 -0.1188 -0.1695 -0.4174
  240SOD    SOD22368   1.811   3.023   1.213 -0.4190  0.2112 -0.3137
  241SOD    SOD22369   5.468   2.831  17.047 -0.3583  0.4922 -0.3366
  242SOD    SOD22370   0.075   1.344   4.810 -0.4052  0.0068  0.1710
  243SOD    SOD22371   1.355   3.235   5.460  0.0231 -0.3569  0.0743
  244SOD    SOD22372   5.132   5.789  11.551  0.3173  0.1357  0.1414
  245SOD    SOD22373   0.035   6.146  12.003 -0.3142 -0.4823  0.7082
  246SOD    SOD22374   4.615   1.045   4.863  0.0889 -0.2481 -0.0745
  247SOD    SOD22375   1.567   5.617   3.593  0.2924  0.0482 -0.8249
  248SOD    SOD22376   3.901   0.771   1.573 -0.3117 -0.1472 -0.1873
  249SOD    SOD22377   6.533   4.760   2.664  0.4819  0.0478 -0.1508
  250SOD    SOD22378   3.210   5.244  12.736  0.0384 -0.0319 -0.1350
  251SOD    SOD22379   1.778   5.345   5.018 -0.0564 -0.3643 -0.1228
  252SOD    SOD22380   0.810   6.425  10.556 -0.1013  0.5680 -0.2401
  253SOD    SOD22381   0.151   6.426   0.707 -0.3841 -0.0163  0.5536
  254SOD    SOD22382   2.988   5.652   1.601  0.0715 -0.9417  0.6589
  255SOD    SOD22383   3.691   5.448   5.400  0.2329  0.2194  0.1195
  256SOD    SOD22384   1.226   6.605  12.937 -0.6108 -0.1773 -0.0006
  257SOD    SOD22385   4.832   0.278  15.935 -0.0403  0.3430 -0.1262
  258SOD    SOD22386   5.853   6.571  15.522  0.0620  0.2159 -0.2571
  259SOD    SOD22387   6.305   0.632   5.734 -0.2079  0.0927  0.3083
  260SOD    SOD22388   4.080   4.090   5.115 -0.2389  0.1666  0.9003
  261SOD    SOD22389   5.496   4.774   1.797  0.0048  0.2990 -0.1058
  262SOD    SOD22390   1.819   6.623   5.623 -0.1132  0.3924 -0.0668
  263SOD    SOD22391   1.835   1.382   6.866  0.3108  0.5120  0.1828
  264SOD    SOD22392   2.230   3.517   3.006 -0.1751 -0.2707  0.0283
  265SOD    SOD22393   2.238   3.485   2.137  0.0360 -0.0838  0.2099
  266CLA    CLA22394   6.625   3.426   5.745 -0.0591 -0.2136  0.3012
  267CLA    CLA22395   0.829   3.500  12.324  0.1161 -0.2884  0.3109
  268CLA    CLA22396   5.378   5.523  15.540  0.0287  0.2970  0.0894
  269CLA    CLA22397   3.522   4.450   4.760  0.0004 -0.3266  0.1866
  270CLA    CLA22398   5.232   2.771  15.551 -0.0041  0.1303 -0.0666
  271CLA    CLA22399   2.755   2.248   1.125 -0.4437 -0.1138 -0.0012
  272CLA    CLA22400   3.195   4.995   0.829  0.0015 -0.3249 -0.0796
  273CLA    CLA22401   5.499   2.709   1.388 -0.1500 -0.1464  0.0427
  274CLA    CLA22402   0.414   2.340  14.985 -0.2136  0.3491  0.0214
  275CLA    CLA22403   3.802   0.312   0.377 -0.1440 -0.0288 -0.4826
  276CLA    CLA22404   1.622   0.050   5.906  0.0920  0.0463 -0.5445
  277CLA    CLA22405   5.454   6.796   4.395 -0.4663 -0.1470  0.3949
  278CLA    CLA22406   1.912   1.328   5.954 -0.4110 -0.1106  0.3374
  279CLA    CLA22407   3.445   6.425  16.640 -0.1240 -0.3115 -0.0225
  280CLA    CLA22408   6.075   6.240  14.484  0.1147  0.1308 -0.1135
  281CLA    CLA22409   0.527   0.684   1.091 -0.0647 -0.0689 -0.0665
  282CLA    CLA22410   5.742   5.675   2.667  0.2817 -0.3399 -0.1350
  283CLA    CLA22411   2.951   5.890  13.577  0.0198 -0.2537 -0.0805
  284CLA    CLA22412   1.789   5.048   1.408  0.0890  0.1249  0.2578
  285CLA    CLA22413   5.502   0.869  13.357  0.6227 -0.2543 -0.4275
  286CLA    CLA22414   1.285   0.675  16.472 -0.3222 -0.1067  0.1786
  287CLA    CLA22415   1.230   2.581   0.445  0.2989 -0.2831 -0.0480
  288CLA    CLA22416   3.316   4.193   5.469 -0.1922  0.1061 -0.1717
  289CLA    CLA22417   5.362   5.797   5.303 -0.0877 -0.1472 -0.4078
  290CLA    CLA22418   3.153   3.659   2.282  0.4610  0.1589 -0.1131
  291CLA    CLA22419   0.899   1.696   5.188 -0.0451 -0.1639 -0.1888
  292CLA    CLA22420   6.750   3.506  11.877 -0.1992 -0.1676  0.2814
  293CLA    CLA22421   1.342   6.266  16.809 -0.3991 -0.4637  0.1990
  294CLA    CLA22422   4.748   2.015   3.953  0.0400  0.2536 -0.0906
  295CLA    CLA22423   0.084   2.762  11.433  0.2556 -0.4193 -0.0283
  296CLA    CLA22424   3.163   2.141   1.231 -0.5545 -0.2482 -0.2794
  297CLA    CLA22425   1.113   0.931   3.127 -0.0750  0.8560 -0.2342
  298CLA    CLA22426   1.669   5.451  12.452  0.2312 -0.3240  0.0608
  299CLA    CLA22427   4.406   5.000  12.843 -0.1042  0.0459 -0.1050
  300CLA    CLA22428   0.072   2.239   4.276  0.1511  0.0832  0.3332
  301CLA    CLA22429   2.457   0.693   0.426  0.1657 -0.2616  0.1720
  302CLA    CLA22430   1.983   0.509  15.377  0.0315  0.0465  0.0865
  303CLA    CLA22431   0.682   6.811   2.167 -0.1119 -0.0511  0.2088
  304CLA    CLA22432   2.038   3.510  14.673 -0.0932 -0.7436  0.0406
  305CLA    CLA22433   0.918   1.826   2.234 -0.0282  0.0177 -0.0584
  306CLA    CLA22434   2.312   4.157  17.004 -0.0903 -0.1569 -0.0027
  307CLA    CLA22435   3.565   4.469  15.945  0.3373 -0.1193  0.4157
  308CLA    CLA22436   0.472   5.717  14.309  0.3341 -0.2644 -0.3995
  309CLA    CLA22437   2.295   5.224   4.408  0.1362  0.4466  0.0278
  310CLA    CLA22438   1.479   5.811   2.738 -0.0232  0.1871  0.1714
  311CLA    CLA22439   6.670   3.227   1.650 -0.0915  0.1396 -0.0791
  312CLA    CLA22440   4.312   4.939  14.398  0.2912  0.0387 -0.0492
  313CLA    CLA22441   5.566   0.246   2.786  0.3194 -0.3474 -0.1067
  314CLA    CLA22442   4.790   6.166   4.397  0.0499  0.1805 -0.3891
  315CLA    CLA22443   4.464   4.195   1.945  0.3226  0.0058  0.3111
  316CLA    CLA22444   6.308   0.759  12.840  0.2413  0.2129  0.1473
  317CLA    CLA22445   5.075   4.940  11.337  0.0379 -0.2730  0.1235
  318CLA    CLA22446   0.250   3.330  15.529  0.2881 -0.2913  0.1631
  319TIP3   OH222447   4.030   2.540  11.403 -0.3408 -0.7177  0.1056
  319TIP3    H122448   4.066   2.505  11.485 -0.7475 -0.6847  0.3008
  319TIP3    H222449   3.989   2.623  11.428  1.7697  0.5467 -0.5926
  320TIP3   OH222450   3.729   1.959  11.476 -0.3881 -0.1658  0.1826
  320TIP3    H122451   3.640   1.977  11.509  0.4155  0.0977  2.3073
  320TIP3    H222452   3.756   2.040  11.434 -1.0429 -0.1642 -0.2568
  321TIP3   OH222453   3.571   1.066   0.057 -0.6838 -0.1388  0.3323
  321TIP3    H122454   3.628   1.043  -0.017 -1.3631  2.8928 -1.2162
  321TIP3    H222455   3.615   1.140   0.099 -1.3897 -0.4616  1.6682
  322TIP3   OH222456   2.576   5.324  14.968  0.1373  1.1943  0.5339
  322TIP3    H122457   2.638   5.342  14.896 -0.8807 -0.2387 -0.7410
  322TIP3    H222458   2.621   5.259  15.021  0.0007  0.6392 -0.0262
  323TIP3   OH222459   6.754   1.122  12.934 -0.2300 -0.4001 -0.1691
  323TIP3    H122460   6.820   1.097  12.998  1.8574 -1.3709 -2.5909
  323TIP3    H222461   6.670   1.108  12.978  1.1014 -3.0383  1.6270
  324TIP3   OH222462   6.017   1.427  16.820  0.4684 -0.1415  0.2528
  324TIP3    H122463   6.066   1.477  16.886 -1.9838  1.8709  0.6104
  324TIP3    H222464   5.939   1.396  16.867 -0.0127 -0.8898 -1.0221
  325TIP3   OH222465   3.259   6.800   3.322 -0.1962  0.2063  0.1274
  325TIP3    H122466   3.308   6.822   3.243  0.4060  2.5835  1.1383
  325TIP3    H222467   3.181   6.754   3.290  0.4976  0.3174 -1.7689
  326TIP3   OH222468   3.291   5.207  14.248 -0.4890 -0.3038  0.1825
  326TIP3    H122469   3.218   5.231  14.192 -0.6602 -0.7288  0.2224
  326TIP3    H222470   3.277   5.256  14.329  0.2735  1.0610 -0.4850
  327TIP3   OH222471   6.813   0.341  17.074  0.1858 -0.0723  0.0151
  327TIP3    H122472   6.855   0.423  17.049  0.1303  0.6409  2.1951
  327TIP3    H222473   6.868   0.273  17.035 -0.9549  0.9931 -3.6396
  328TIP3   OH222474   1.795   2.996  17.129  0.1099 -0.1248 -0.0365
  328TIP3    H122475   1.740   3.074  17.118 -0.0241 -0.5049 -2.3589
  328TIP3    H222476   1.734   2.923  17.118  0.3283 -0.5916  1.6439
  329TIP3   OH222477   3.012   6.420  13.333  0.4146 -0.7424 -0.9278
  329TIP3    H122478   3.086   6.395  13.388 -0.3671 -0.5856  0.2288
  329TIP3    H222479   2.971   6.337  13.309 -1.0097 -0.7111  1.2545
  330TIP3   OH222480   0.052   6.672  17.166  0.4851 -0.8845 -0.1489
  330TIP3    H122481   0.080   6.624  17.088  2.3346  0.3004 -0.2511
  330TIP3    H222482   0.123   6.660  17.229  0.2490  0.3719  0.3844
  331TIP3   OH222483   1.136   6.217  12.813 -0.5423  0.6541  0.7897
  331TIP3    H122484   1.168   6.148  12.755 -0.0692  1.8080 -0.3562
  331TIP3    H222485   1.206   6.282  12.814 -0.8727  0.9940  2.0615
  332TIP3   OH222486   5.382   0.800  11.850 -0.0142  0.4312 -0.2319
  332TIP3    H122487   5.442   0.873  11.836  0.9044 -0.4329 -0.8918
  332TIP3    H222488   5.438   0.729  11.881 -0.6665 -0.4194 -0.9676
  333TIP3   OH222489   1.298   4.494  15.384 -0.0922 -0.2016 -0.1214
  333TIP3    H122490   1.334   4.407  15.370 -0.2295 -0.4730  1.2020
  333TIP3    H222491   1.226   4.482  15.446  0.5728  0.9922  0.9054
  334TIP3   OH222492   2.616   2.522   1.126  0.4553 -0.0351  0.5804
  334TIP3    H122493   2.636   2.428   1.127 -1.4736 -0.4783  0.1243
  334TIP3    H222494   2.617   2.546   1.033 -1.6177 -0.2163  0.4812
  335TIP3   OH222495   2.509   3.376   1.686  0.0794 -0.6226  0.5483
  335TIP3    H122496   2.524   3.447   1.748 -1.0144 -0.3747  0.5276
  335TIP3    H222497   2.424   3.395   1.647 -0.1116 -1.8061  0.3680
  336TIP3   OH222498   0.579   5.490   2.931  0.3393 -0.4251  0.1864
  336TIP3    H122499   0.484   5.496   2.921  0.3390 -0.3616  0.2263
  336TIP3    H222500   0.600   5.559   2.994  0.4398 -0.2843 -0.0002
  337TIP3   OH222501   5.291   1.498  13.160  0.0070  0.3011  0.3515
  337TIP3    H122502   5.294   1.402  13.149 -0.2091  0.4138 -0.7704
  337TIP3    H222503   5.365   1.518  13.216  1.0851 -0.3590 -0.8089
  338TIP3   OH222504   4.901   1.623   1.915  0.8370 -0.5026  0.6781
  338TIP3    H122505   4.921   1.698   1.859  1.2794  0.2278  1.7719
  338TIP3    H222506   4.827   1.652   1.968 -0.9296 -1.9518 -0.9638
  339TIP3   OH222507   4.691   6.797   1.885 -0.1039 -0.0542  0.0185
  339TIP3    H122508   4.655   6.816   1.972  1.3091  2.1211  0.1866
  339TIP3    H222509   4.657   6.867   1.830 -0.8915 -1.3643 -1.1573
  340TIP3   OH222510   1.850   0.012  14.214 -0.5992  0.3571  0.0284
  340TIP3    H122511   1.933   0.036  14.255 -1.1696  2.6008 -0.0606
  340TIP3    H222512   1.859  -0.081  14.194  1.4059  0.2828  1.1616
  341TIP3   OH222513   4.616   0.887  13.152  0.4922  0.4569 -0.5628
  341TIP3    H122514   4.663   0.831  13.214 -0.2103  2.2102  1.6692
  341TIP3    H222515   4.559   0.828  13.103  0.4894 -0.9102  1.0520
  342TIP3   OH222516   2.270   1.929  10.983  0.2027 -0.7610  0.2671
  342TIP3    H122517   2.201   1.979  11.026  1.5514 -0.7313  2.4596
  342TIP3    H222518   2.340   1.993  10.968  0.8113 -1.3684  0.5026
  343TIP3   OH222519   5.678   0.401   5.369 -0.2765 -0.7271 -0.0253
  343TIP3    H122520   5.750   0.349   5.404  1.9311  0.8278 -2.0911
  343TIP3    H222521   5.641   0.347   5.299 -3.2702 -2.8898  3.0824
  344TIP3   OH222522   5.007   3.546  13.170 -0.0344 -0.1414 -0.0760
  344TIP3    H122523   5.048   3.554  13.256 -0.5447  0.8487  0.0911
  344TIP3    H222524   5.007   3.453  13.152  0.0442 -0.3633  1.0148
  345TIP3   OH222525   3.855   5.474  15.317 -0.6518  0.0206  0.1125
  345TIP3    H122526   3.866   5.394  15.367  0.9077  0.1740  0.0365
  345TIP3    H222527   3.872   5.544  15.380 -0.3364  0.2513 -0.2270
  346TIP3   OH222528   5.482   3.499   3.122 -0.1134 -0.0566  0.3241
  346TIP3    H122529   5.416   3.517   3.189  0.1981 -0.7334  0.8188
  346TIP3    H222530   5.566   3.513   3.166  0.1099 -1.2964  0.3268
  347TIP3   OH222531   5.411   6.464   3.240  0.5901  0.4261  0.3768
  347TIP3    H122532   5.395   6.480   3.333  0.0300  0.1705  0.3261
  347TIP3    H222533   5.382   6.374   3.226 -1.0826  1.0656 -0.4394
  348TIP3   OH222534   5.966   0.572  16.513 -0.0686 -0.3555 -0.0448
  348TIP3    H122535   5.874   0.594  16.502 -0.1211  0.3852  1.6921
  348TIP3    H222536   5.991   0.613  16.596  1.5203 -1.4898  0.0684
  349TIP3   OH222537   6.039   4.192  16.473  0.0868 -0.0675 -0.0259
  349TIP3    H122538   6.098   4.161  16.405 -1.1967 -0.5918 -0.9188
  349TIP3    H222539   6.027   4.117  16.531  3.2138  1.1075  2.2937
  350TIP3   OH222540   4.646   0.498  11.894  0.0076 -0.3841  0.0909
  350TIP3    H122541   4.676   0.510  11.804 -0.8185  0.0161 -0.1322
  350TIP3    H222542   4.721   0.458  11.939  0.2311 -1.0843 -0.8969
  351TIP3   OH222543   4.623   0.496   5.004  0.5699 -0.4426 -0.4552
  351TIP3    H122544   4.612   0.440   4.927 -1.2960 -1.5259  0.5616
  351TIP3    H222545   4.688   0.450   5.058  1.8000  0.2643 -1.3341
  352TIP3   OH222546   0.682   1.004  12.572 -0.3039 -0.0756  0.8714
  352TIP3    H122547   0.724   0.992  12.487  0.0149  2.9668  0.5347
  352TIP3    H222548   0.750   0.983  12.636  0.0004 -0.6461  0.3606
  353TIP3   OH222549   5.381   0.969  10.911  0.1043  0.0295 -0.4870
  353TIP3    H122550   5.468   0.941  10.882 -0.6099  1.5134 -4.3027
  353TIP3    H222551   5.337   0.888  10.936  2.0885 -0.8757  0.2520
  354TIP3   OH222552   0.355   5.652   5.543  0.0035 -0.5797  0.3828
  354TIP3    H122553   0.276   5.699   5.571 -1.6666 -2.2302 -1.4060
  354TIP3    H222554   0.355   5.572   5.596  0.2731 -0.7735  0.0879
  355TIP3   OH222555   1.804   2.549   3.240 -0.1533 -0.0942 -0.0683
  355TIP3    H122556   1.786   2.643   3.239  2.1214  0.3809  0.3266
  355TIP3    H222557   1.855   2.535   3.320  2.4228 -1.0523 -1.7887
  356TIP3   OH222558   2.833   0.691   1.955 -0.0321  0.4651  0.5207
  356TIP3    H122559   2.770   0.750   1.914 -0.1616 -1.0626 -1.5735
  356TIP3    H222560   2.787   0.607   1.959  1.3557 -0.3147  0.2713
  357TIP3   OH222561   3.294   4.873  14.956  0.0768 -0.1290  0.3446
  357TIP3    H122562   3.287   4.807  14.887 -1.3695  0.9273 -0.5476
  357TIP3    H222563   3.204   4.886  14.986  0.4153  1.0441  0.8797
  358TIP3   OH222564   0.630   5.693  15.278  0.3617  0.2175  0.6178
  358TIP3    H122565   0.596   5.782  15.289 -1.0793 -0.2384 -0.0370
  358TIP3    H222566   0.609   5.670  15.188  2.8562  0.0831  0.0436
  359TIP3   OH222567   4.478   4.103  10.528  0.1038 -0.3242 -1.1658
  359TIP3    H122568   4.389   4.068  10.525 -0.8248  1.6228  1.3172
  359TIP3    H222569   4.516   4.066  10.608  0.8294  0.4031 -1.1673
  360TIP3   OH222570   5.437   4.062  11.864  0.4384 -0.3793 -0.3338
  360TIP3    H122571   5.497   4.028  11.797  2.3062 -1.4132  1.7958
  360TIP3    H222572   5.494   4.110  11.924 -1.1288  0.0880  0.7949
  361TIP3   OH222573   1.812   3.728   3.937 -0.5225 -0.4896 -0.0190
  361TIP3    H122574   1.740   3.666   3.925 -0.7113 -0.2046 -0.3679
  361TIP3    H222575   1.773   3.801   3.985  0.0520 -1.2896  1.6773
  362TIP3   OH222576   0.507   5.135  16.542  0.5439  0.2996 -0.4932
  362TIP3    H122577   0.553   5.218  16.528  1.6569 -0.2808 -0.3179
  362TIP3    H222578   0.488   5.133  16.636 -0.4295  0.8298 -0.6657
  363TIP3   OH222579   3.229   0.320   4.137  0.1738 -0.0796 -0.3661
  363TIP3    H122580   3.267   0.248   4.186  0.3974  0.9218  0.9565
  363TIP3    H222581   3.293   0.338   4.067 -0.6886 -2.2479 -1.7509
  364TIP3   OH222582   4.046   5.209  13.966 -0.5432 -0.4985  0.4347
  364TIP3    H122583   3.963   5.166  13.945  0.0254 -1.5014  0.2091
  364TIP3    H222584   4.109   5.138  13.969  0.4657  0.3636 -0.1968
  365TIP3   OH222585   2.306   3.104   2.507 -0.4068  0.1172 -0.1426
  365TIP3    H122586   2.220   3.082   2.471 -1.6132  0.9415  2.1054
  365TIP3    H222587   2.298   3.196   2.532  1.1695  0.2199  0.0251
  366TIP3   OH222588   5.616   4.700  12.171 -0.2583  0.0647  0.5004
  366TIP3    H122589   5.578   4.630  12.118  2.3821 -0.3607 -0.9543
  366TIP3    H222590   5.553   4.772  12.166 -1.6805 -1.2227 -0.3448
  367TIP3   OH222591   5.614   5.620  12.829  0.9343 -0.2647 -0.2818
  367TIP3    H122592   5.700   5.663  12.829  0.8524 -0.0995 -0.8244
  367TIP3    H222593   5.633   5.530  12.803  1.0656 -0.4891  0.5610
  368TIP3   OH222594   6.487   6.756  12.919  0.3452  0.6498  0.0922
  368TIP3    H122595   6.569   6.742  12.872 -0.3387  0.0052 -0.9069
  368TIP3    H222596   6.510   6.742  13.011  1.4595  0.9484 -0.1303
  369TIP3   OH222597   6.094   5.412   3.153  0.4703  0.1488  0.1698
  369TIP3    H122598   6.117   5.501   3.181  0.0220  0.2996  0.0604
  369TIP3    H222599   6.047   5.425   3.071 -2.5290  0.0399  1.8149
  370TIP3   OH222600   4.040   0.546  17.263  0.0514  0.0546  0.8316
  370TIP3    H122601   4.129   0.510  17.272  0.2130  0.4408  0.8074
  370TIP3    H222602   3.984   0.485  17.311  0.1106 -1.0602 -0.4860
  371TIP3   OH222603   5.832   2.566  11.635  0.6799 -0.4906 -0.2193
  371TIP3    H122604   5.844   2.640  11.576 -0.6392 -1.0797 -1.2455
  371TIP3    H222605   5.892   2.584  11.708  1.7866  0.6168 -1.3618
  372TIP3   OH222606   5.203   1.712   3.717 -0.1867  0.5055  0.0093
  372TIP3    H122607   5.132   1.754   3.765  0.6759  0.1383  1.6285
  372TIP3    H222608   5.159   1.663   3.647 -1.4610  0.8813  0.5276
  373TIP3   OH222609   3.090   4.580   3.611  0.0971 -0.2400  0.3211
  373TIP3    H122610   3.108   4.674   3.610 -2.9463  0.5216  4.2248
  373TIP3    H222611   3.009   4.570   3.562  0.9260 -1.0114 -0.9275
  374TIP3   OH222612   1.295   0.016  16.914  0.1957  0.8830  1.1289
  374TIP3    H122613   1.385   0.047  16.925  0.6396  0.5450 -1.2193
  374TIP3    H222614   1.298  -0.076  16.940  1.2504  0.0475 -1.6973
  375TIP3   OH222615   1.725   6.012  12.295  0.1476 -0.4578  0.2412
  375TIP3    H122616   1.726   5.958  12.217  0.9451 -1.4557  0.9351
  375TIP3    H222617   1.654   5.977  12.348  0.8520 -1.0353  0.8221
  376TIP3   OH222618   0.866   1.429  17.257  0.6255  0.5430 -0.4810
  376TIP3    H122619   0.920   1.461  17.329  0.3560 -0.4393  0.1694
  376TIP3    H222620   0.784   1.401  17.299 -0.3915  1.9736 -1.4345
  377TIP3   OH222621   6.586   2.686  15.684  0.2983  0.3340 -0.0080
  377TIP3    H122622   6.662   2.742  15.698  1.2154 -0.6849 -0.8484
  377TIP3    H222623   6.519   2.724  15.741  1.8908  0.3129  1.9658
  378TIP3   OH222624   1.956   6.087   3.503 -0.2359  0.5145 -0.7720
  378TIP3    H122625   1.992   6.169   3.467  0.7607  1.0816  1.4318
  378TIP3    H222626   1.999   6.078   3.588 -1.6479 -1.4166 -0.2475
  379TIP3   OH222627   4.293   6.003  14.044  0.2136 -0.1696  0.1473
  379TIP3    H122628   4.224   5.938  14.056 -0.6630  0.7906  0.3318
  379TIP3    H222629   4.303   6.011  13.949  0.2970 -0.5478  0.1249
  380TIP3   OH222630   2.821   3.949  14.374  0.2561  0.1387  0.2287
  380TIP3    H122631   2.882   3.894  14.324 -0.1565  0.9155 -1.1792
  380TIP3    H222632   2.761   3.887  14.415 -0.5918 -0.4732 -1.8457
  381TIP3   OH222633   1.805   1.179  11.538  1.0045 -0.6125 -0.0113
  381TIP3    H122634   1.834   1.095  11.573 -0.9916 -0.5291  1.9510
  381TIP3    H222635   1.745   1.156  11.467 -0.2294 -0.8679  1.1042
  382TIP3   OH222636   5.090   0.474   4.183  0.1675 -0.0842 -0.2895
  382TIP3    H122637   5.141   0.462   4.263 -1.2292 -1.4561  0.4284
  382TIP3    H222638   5.130   0.415   4.120 -0.7089 -1.4172  0.3736
  383TIP3   OH222639   1.042   2.029   2.013  0.4056  0.0590 -0.0751
  383TIP3    H122640   0.997   1.962   2.065 -1.3793  0.3486 -1.2019
  383TIP3    H222641   1.098   2.074   2.076 -1.5512  0.2755  1.5945
  384TIP3   OH222642   1.542   3.442  15.985 -0.3998  0.1063  0.4669
  384TIP3    H122643   1.515   3.531  15.960  1.2963  0.6251  0.3879
  384TIP3    H222644   1.462   3.390  15.979 -1.0281  1.2342 -1.3710
  385TIP3   OH222645   1.737   4.145   5.172  0.1517  0.0451 -0.0498
  385TIP3    H122646   1.648   4.135   5.205  0.0942  3.1182  0.8341
  385TIP3    H222647   1.793   4.130   5.249  0.2878  0.3515 -0.0868
  386TIP3   OH222648   6.017   3.982   2.123 -0.1652  0.2158  0.1179
  386TIP3    H122649   5.958   4.055   2.102  1.2404  1.3488  0.0100
  386TIP3    H222650   6.089   3.992   2.062  0.1714 -1.1327  0.2852
  387TIP3   OH222651   4.120   1.912  13.183 -0.6120  0.4057  0.7195
  387TIP3    H122652   4.093   2.003  13.195 -0.3355  0.3269  1.9970
  387TIP3    H222653   4.215   1.913  13.195 -0.0725  0.5577 -3.0301
  388TIP3   OH222654   0.931   0.329  17.236 -0.0772  0.3169  0.2387
  388TIP3    H122655   0.962   0.267  17.171 -1.1508  0.4779 -0.4478
  388TIP3    H222656   0.850   0.365  17.198  0.2918  1.7939  0.8203
  389TIP3   OH222657   0.241   1.957  14.997  0.2645  0.2838 -0.4200
  389TIP3    H122658   0.160   1.908  14.984  1.3287 -1.9188  0.9764
  389TIP3    H222659   0.248   2.013  14.920 -2.0150 -0.2819 -1.0812
  390TIP3   OH222660   5.753   6.152   4.060  0.0235 -0.4140  0.2758
  390TIP3    H122661   5.830   6.121   4.013 -0.3828 -0.2386 -0.5268
  390TIP3    H222662   5.780   6.235   4.099 -0.0189  0.1065 -0.7684
  391TIP3   OH222663   1.938   4.815  12.001 -0.3953 -0.1419  0.7651
  391TIP3    H122664   1.847   4.840  12.015  0.0360  1.2988  1.1154
  391TIP3    H222665   1.988   4.883  12.047  0.8614 -0.5632  0.0292
  392TIP3   OH222666   0.810   2.332  12.467  0.2798 -0.2614 -0.0224
  392TIP3    H122667   0.738   2.345  12.405  0.9784  0.1808 -0.7515
  392TIP3    H222668   0.887   2.320  12.411  1.1332  1.3651  0.7691
  393TIP3   OH222669   6.692   3.160  16.159 -0.1519  0.0622 -0.2812
  393TIP3    H122670   6.665   3.154  16.250 -0.8186  1.1148 -0.3947
  393TIP3    H222671   6.618   3.124  16.109 -0.1680  0.3214 -0.4478
  394TIP3   OH222672   5.421   3.586  16.174 -0.2828 -0.1324 -0.3907
  394TIP3    H122673   5.493   3.526  16.193 -0.2177  0.3283  0.8074
  394TIP3    H222674   5.350   3.529  16.144  0.2849 -0.6658 -0.7320
  395TIP3   OH222675   2.408   1.121  17.027  0.0033  0.0393 -0.2062
  395TIP3    H122676   2.498   1.090  17.036  0.5689  1.2143 -1.5711
  395TIP3    H222677   2.409   1.207  17.070 -0.5259 -0.0456 -0.0264
  396TIP3   OH222678   0.957   2.271   5.269  0.3413 -0.5313  0.1079
  396TIP3    H122679   0.992   2.216   5.339 -2.6542 -2.4566  0.1555
  396TIP3    H222680   0.886   2.320   5.310  1.9749  2.3088 -0.3294
  397TIP3   OH222681   6.053   5.390  16.921  0.7161  0.7342  0.0982
  397TIP3    H122682   6.144   5.376  16.897  1.1838  2.5837  0.7009
  397TIP3    H222683   6.010   5.413  16.838  0.8065  0.0048 -0.1624
  398TIP3   OH222684   4.436   2.388  11.096  0.5600 -0.2886 -0.3526
  398TIP3    H122685   4.366   2.392  11.162 -0.2783  1.6768 -1.3384
  398TIP3    H222686   4.478   2.303  11.112 -0.9971 -0.7897  1.3187
  399TIP3   OH222687   2.907   5.215  11.610 -0.0717  0.2022  0.6450
  399TIP3    H122688   2.866   5.142  11.564 -0.0621  0.2993  0.4793
  399TIP3    H222689   2.983   5.238  11.556  0.4332 -0.2410  1.1648
  400TIP3   OH222690   6.483   6.510   3.818 -0.3441 -0.3450  0.1883
  400TIP3    H122691   6.473   6.419   3.793  0.9889 -0.5561  0.3849
  400TIP3    H222692   6.419   6.523   3.888 -1.2545 -0.8437 -0.5538
  401TIP3   OH222693   6.387   6.417   1.245  0.3820 -0.3708 -0.0203
  401TIP3    H122694   6.399   6.340   1.190 -0.7241  0.0841 -0.9266
  401TIP3    H222695   6.318   6.467   1.201 -0.4434  0.0538  1.7107
  402TIP3   OH222696   1.735   4.979  14.306  0.4726 -0.5186  0.5626
  402TIP3    H122697   1.710   4.933  14.387 -1.0587  0.6827  0.7855
  402TIP3    H222698   1.681   5.058  14.305  1.4073  0.1281 -0.9997
  403TIP3   OH222699   2.693   5.494   4.653  0.3600  0.1627 -1.0203
  403TIP3    H122700   2.726   5.415   4.611  2.0405  1.2811 -1.8380
  403TIP3    H222701   2.599   5.493   4.635  0.1075 -2.4008  0.2514
  404TIP3   OH222702   5.117   0.175  16.183  0.6032 -0.3132 -0.6093
  404TIP3    H122703   5.041   0.223  16.151 -0.3086 -1.4771 -0.2070
  404TIP3    H222704   5.098   0.083  16.163  1.6201 -0.6759  0.0452
  405TIP3   OH222705   4.724   3.407   2.417 -0.0389 -0.3497 -0.1852
  405TIP3    H122706   4.691   3.319   2.399 -3.1817  0.8711 -0.7036
  405TIP3    H222707   4.762   3.435   2.334  0.6843 -1.0985 -0.1125
  406TIP3   OH222708   2.608   6.738  12.862  0.6702 -0.0287 -0.6467
  406TIP3    H122709   2.677   6.758  12.926 -1.2390 -2.9863  2.5125
  406TIP3    H222710   2.545   6.809  12.873  0.2151 -0.6634  1.0428
  407TIP3   OH222711   4.140   2.708  12.360  0.5299  0.3550  0.4936
  407TIP3    H122712   4.218   2.701  12.415  2.2502  0.8458 -1.8356
  407TIP3    H222713   4.074   2.750  12.417  1.7886 -0.4640  2.6137
  408TIP3   OH222714   6.327   1.992  11.853 -0.2722  1.0764  0.2188
  408TIP3    H122715   6.290   2.045  11.782  1.4032 -1.1257 -2.3603
  408TIP3    H222716   6.420   2.010  11.851  0.3351 -1.9025 -0.7051
  409TIP3   OH222717   5.556   5.352  12.210 -0.4552  0.2331  0.4065
  409TIP3    H122718   5.553   5.406  12.131  0.9141 -0.4424 -0.1301
  409TIP3    H222719   5.465   5.347  12.240 -1.1337 -0.2199 -1.6468
  410TIP3   OH222720   3.635   4.371  14.170 -0.0749 -0.0763  0.1133
  410TIP3    H122721   3.598   4.311  14.235 -0.2810 -0.4524 -0.3560
  410TIP3    H222722   3.566   4.435  14.156  0.0051  0.0608  0.3275
  411TIP3   OH222723   6.075   3.998  16.975  0.4231  0.4388  0.3200
  411TIP3    H122724   6.100   4.072  16.920 -0.4119  0.8354  0.4656
  411TIP3    H222725   5.982   4.013  16.994 -0.3436 -1.7907 -1.4303
  412TIP3   OH222726   1.851   1.647   5.603 -0.0569  0.0570  0.0564
  412TIP3    H122727   1.943   1.650   5.578 -0.7021  1.7817 -2.3110
  412TIP3    H222728   1.835   1.730   5.648  0.2445 -1.5467  3.2244
  413TIP3   OH222729   5.910   2.879  12.971 -0.2059  0.0410  0.5950
  413TIP3    H122730   5.874   2.883  12.883 -0.7913 -0.7682  0.7862
  413TIP3    H222731   5.962   2.958  12.980 -1.4519  0.9323  0.0915
  414TIP3   OH222732   2.791   1.543   2.521 -0.1409 -0.3413 -0.5316
  414TIP3    H122733   2.695   1.546   2.518 -0.1039 -0.3329 -1.5472
  414TIP3    H222734   2.811   1.453   2.546 -0.4610  0.2505  2.0925
  415TIP3   OH222735   3.425   6.313  11.153 -0.0046  0.1129  0.6092
  415TIP3    H122736   3.370   6.320  11.074 -1.0918 -0.9204  1.2559
  415TIP3    H222737   3.377   6.252  11.209  2.2050 -1.4094  0.8649
  416TIP3   OH222738   4.925   3.523   3.861 -0.4365 -0.2461 -0.2713
  416TIP3    H122739   5.012   3.536   3.822  0.8350 -2.4914  1.6367
  416TIP3    H222740   4.892   3.612   3.876  1.5786  0.6480 -0.9157
  417TIP3   OH222741   3.967   1.860   2.135 -0.4313 -0.0914 -0.3781
  417TIP3    H122742   4.022   1.938   2.144 -0.8872  0.3627 -1.4160
  417TIP3    H222743   3.878   1.895   2.125 -0.7908 -0.7878  0.3356
  418TIP3   OH222744   3.310   5.124   0.168 -0.4051  0.6345 -0.0440
  418TIP3    H122745   3.253   5.097   0.096 -1.0893  2.9449 -0.4312
  418TIP3    H222746   3.393   5.147   0.127 -1.7235  4.8873 -0.6360
  419TIP3   OH222747   4.403   0.478  12.789 -0.4943 -0.1994  0.3115
  419TIP3    H122748   4.347   0.409  12.754  0.0379  0.2320 -1.4101
  419TIP3    H222749   4.385   0.477  12.883 -1.1960 -2.0472  0.1859
  420TIP3   OH222750   5.809   6.731  13.719 -0.3297  0.2733 -0.1929
  420TIP3    H122751   5.795   6.636  13.716  0.0975  0.2059 -0.0765
  420TIP3    H222752   5.852   6.751  13.636 -0.3031  0.3483 -0.1599
  421TIP3   OH222753   2.081   0.710  11.999 -0.0618 -0.1671  0.1838
  421TIP3    H122754   2.137   0.742  11.928 -1.5329  0.0977 -0.8736
  421TIP3    H222755   1.997   0.754  11.985 -1.0148 -1.7268  0.8373
  422TIP3   OH222756   3.208   1.783  16.950  0.3089  0.2352 -0.9924
  422TIP3    H122757   3.146   1.821  17.012  0.1684  1.0535 -1.6419
  422TIP3    H222758   3.294   1.806  16.986  0.2393  0.0306 -0.6856
  423TIP3   OH222759   2.078   6.444  12.149 -0.4299 -0.1370  0.1800
  423TIP3    H122760   2.134   6.384  12.200  0.5339  0.0028 -0.6931
  423TIP3    H222761   2.140   6.503  12.106 -1.2873  0.3465 -0.3969
  424TIP3   OH222762   4.797   2.233   1.558  0.0923 -0.4312 -0.1327
  424TIP3    H122763   4.833   2.265   1.475 -0.4018 -0.8994 -0.5359
  424TIP3    H222764   4.835   2.146   1.568 -3.5308 -2.3650 -2.2930
  425TIP3   OH222765   6.031   2.475   5.381 -0.0390  0.8640  0.4474
  425TIP3    H122766   6.002   2.386   5.364  2.3167  0.4339 -1.5507
  425TIP3    H222767   6.098   2.466   5.449 -1.4942  1.4020  1.9932
  426TIP3   OH222768   2.098   3.074  14.184 -0.3637 -0.4216 -0.1155
  426TIP3    H122769   2.010   3.106  14.164 -0.4351 -1.2781 -1.2339
  426TIP3    H222770   2.121   3.019  14.109  1.0018 -0.4621  0.3150
  427TIP3   OH222771   6.003   5.643  17.080 -0.2204 -0.2810  0.2326
  427TIP3    H122772   6.026   5.566  17.028  0.4175 -1.4491  2.1640
  427TIP3    H222773   5.929   5.682  17.035  1.6858  0.0404 -2.7785
  428TIP3   OH222774   1.547   2.602   5.207 -0.0102 -0.0174  0.2193
  428TIP3    H122775   1.553   2.506   5.209  0.3701  0.0041  0.2137
  428TIP3    H222776   1.456   2.620   5.184 -0.2418 -0.3771  0.8375
  429TIP3   OH222777   6.803   3.429  12.180 -0.1291 -0.1403 -0.2501
  429TIP3    H122778   6.784   3.451  12.089  0.6836 -1.3798 -0.7384
  429TIP3    H222779   6.763   3.499  12.231  0.2049  1.0697 -1.6171
  430TIP3   OH222780   2.814   5.606  16.025 -1.0023  0.4328  0.1646
  430TIP3    H122781   2.822   5.654  15.943 -2.3121 -0.3286 -0.4285
  430TIP3    H222782   2.839   5.669  16.092 -1.3409  1.5185 -0.7073
  431TIP3   OH222783   0.065   4.069   3.842 -0.0663  0.2648  0.0817
  431TIP3    H122784   0.099   4.010   3.910 -4.1803 -2.6144 -0.1682
  431TIP3    H222785   0.004   4.126   3.889 -1.6926 -0.6507 -0.8896
  432TIP3   OH222786   4.625   3.984  10.951  0.0661 -0.6332 -0.2685
  432TIP3    H122787   4.661   4.071  10.935 -1.3674 -0.3046 -1.8737
  432TIP3    H222788   4.675   3.926  10.894  0.1498 -0.6588 -0.1685
  433TIP3   OH222789   6.802   5.834  11.697 -0.0735 -0.4044 -0.3799
  433TIP3    H122790   6.860   5.820  11.622  0.0139  1.3383 -0.6465
  433TIP3    H222791   6.722   5.871  11.660 -0.5796 -0.8868  0.2261
  434TIP3   OH222792   3.766   6.624  13.321 -0.1314 -0.0725  0.2850
  434TIP3    H122793   3.792   6.640  13.231  0.5098 -0.4583  0.4024
  434TIP3    H222794   3.778   6.708  13.365 -0.4169  0.1090  0.0258
  435TIP3   OH222795   2.216   2.345   1.612 -0.5785  0.0087  0.1254
  435TIP3    H122796   2.311   2.334   1.613 -0.4064  0.7624 -3.0925
  435TIP3    H222797   2.198   2.403   1.686  1.9789  3.3214 -1.7037
  436TIP3   OH222798   1.652   0.999   6.548 -0.1638  0.2450 -0.2299
  436TIP3    H122799   1.645   1.092   6.529 -2.8477  0.0735 -0.2709
  436TIP3    H222800   1.705   0.994   6.628 -3.8386  2.1283  2.4275
  437TIP3   OH222801   6.808   3.604  14.544 -0.2321 -0.3136 -0.0252
  437TIP3    H122802   6.860   3.684  14.555  0.2521 -0.7957  1.2101
  437TIP3    H222803   6.810   3.562  14.630 -1.1571 -1.2535 -0.4572
  438TIP3   OH222804   5.111   4.630  15.964 -0.2076  0.7626 -0.0129
  438TIP3    H122805   5.163   4.565  15.916 -0.6634  1.9545 -2.2123
  438TIP3    H222806   5.173   4.671  16.024  0.0015 -1.9198  1.6689
  439TIP3   OH222807   2.745   5.059   1.071  0.0664  0.1945  0.1041
  439TIP3    H122808   2.658   5.069   1.110  0.2088  1.7875  0.0375
  439TIP3    H222809   2.803   5.109   1.129  0.6342  0.7223 -0.9073
  440TIP3   OH222810   5.144   4.712  12.058 -0.1399  0.2271 -0.3037
  440TIP3    H122811   5.176   4.798  12.031  1.4859 -0.5021 -0.7969
  440TIP3    H222812   5.150   4.659  11.979 -0.5538 -0.5017  0.1545
  441TIP3   OH222813   4.711   3.924  15.439  0.6558  0.2155  0.7893
  441TIP3    H122814   4.741   3.938  15.529  0.8716  0.5047  0.6704
  441TIP3    H222815   4.710   4.011  15.400  1.3566 -0.0122  0.2612
  442TIP3   OH222816   2.695   4.124   2.759  0.5535 -0.5134  0.2679
  442TIP3    H122817   2.662   4.151   2.673  0.6683 -1.4478 -0.0865
  442TIP3    H222818   2.634   4.161   2.822  0.9283  0.8840 -0.1692
  443TIP3   OH222819   2.905   3.632   3.320 -0.6976  0.0687  0.3717
  443TIP3    H122820   2.991   3.630   3.361 -0.6956  0.4143  0.3831
  443TIP3    H222821   2.877   3.540   3.318  0.3278 -0.2209 -1.0298
  444TIP3   OH222822   3.290   6.468  15.341  0.2073  0.3843 -0.3814
  444TIP3    H122823   3.330   6.445  15.257 -0.0983  0.3385 -0.5139
  444TIP3    H222824   3.214   6.522  15.318  1.1746  1.9104 -0.0523
  445TIP3   OH222825   4.678   3.316  12.323  0.3130  0.1531  0.2740
  445TIP3    H122826   4.673   3.372  12.401  1.2469  0.6066  0.0159
  445TIP3    H222827   4.752   3.350  12.274  1.8050 -2.1688  0.7968
  446TIP3   OH222828   1.588   3.158  14.840 -0.1085  1.0923  0.3468
  446TIP3    H122829   1.534   3.161  14.761  0.8437  3.2086 -0.2623
  446TIP3    H222830   1.581   3.246  14.877  0.2353  0.3931  2.0978
  447TIP3   OH222831   4.644   2.289   6.242  0.7622 -0.2575 -0.5272
  447TIP3    H122832   4.634   2.324   6.153 -0.3905  0.7899 -0.0174
  447TIP3    H222833   4.713   2.224   6.235 -1.3721 -2.3858 -2.8133
  448TIP3   OH222834   6.073   3.403  13.713  0.0146  0.5868 -0.0941
  448TIP3    H122835   6.082   3.395  13.808  0.4631 -0.1255 -0.1940
  448TIP3    H222836   6.003   3.342  13.690 -0.5868  1.2912 -0.1282
  449TIP3   OH222837   3.991   2.934  16.864 -0.1297  0.0499  0.0835
  449TIP3    H122838   3.947   2.863  16.910 -0.4109  0.4729  0.4831
  449TIP3    H222839   3.941   3.012  16.889  1.4237  0.6723  1.3103
  450TIP3   OH222840   4.691   1.448  16.598 -0.3229  0.0136  0.4906
  450TIP3    H122841   4.757   1.397  16.551  0.1213  0.5027  0.5750
  450TIP3    H222842   4.631   1.383  16.634 -0.1927 -0.4035 -0.0566
  451TIP3   OH222843   1.046   1.787  15.148 -0.0444 -0.1650  0.0052
  451TIP3    H122844   0.955   1.788  15.118 -0.0240  0.4585 -0.0514
  451TIP3    H222845   1.097   1.766  15.069 -0.1162 -0.1759 -0.0383
  452TIP3   OH222846   0.068   0.827  16.989  0.5382  0.6763 -0.3395
  452TIP3    H122847   0.135   0.819  17.056 -0.4580  1.5580  0.7679
  452TIP3    H222848   0.116   0.851  16.910  1.7757 -0.9093 -0.1002
  453TIP3   OH222849   4.990   5.030  14.617 -0.4490 -0.1130  0.7564
  453TIP3    H122850   5.084   5.046  14.616 -0.8527  2.6860 -2.2767
  453TIP3    H222851   4.971   5.000  14.706  3.1491  0.1423  1.6701
  454TIP3   OH222852   4.679   3.957  11.233 -0.3057 -0.8593 -0.0041
  454TIP3    H122853   4.640   3.948  11.146  0.6422 -0.7598 -0.4511
  454TIP3    H222854   4.605   3.973  11.292 -0.8944 -0.3301 -0.8832
  455TIP3   OH222855   6.472   4.198  16.299 -0.2904  0.4528 -0.0542
  455TIP3    H122856   6.498   4.260  16.367  0.6217 -1.3653  1.2769
  455TIP3    H222857   6.532   4.215  16.227  0.7024  0.3338  0.7421
  456TIP3   OH222858   4.245   1.660   4.844  0.5050  0.1453 -0.6320
  456TIP3    H122859   4.291   1.576   4.837  0.5284  0.2365 -1.5566
  456TIP3    H222860   4.314   1.726   4.835  0.4924  0.2719  0.1298
  457TIP3   OH222861   1.439   3.273  15.631 -0.3528  0.2077  0.5262
  457TIP3    H122862   1.387   3.289  15.552  0.0081 -1.0987  0.0166
  457TIP3    H222863   1.418   3.183  15.656 -0.1512  0.4797  1.6908
  458TIP3   OH222864   5.898   2.943  16.853 -0.0735 -0.7973 -0.4078
  458TIP3    H122865   5.964   2.873  16.856 -0.6952 -1.4622 -1.8912
  458TIP3    H222866   5.932   3.009  16.913  1.4609 -1.5649 -0.3798
  459TIP3   OH222867   0.340   5.435   5.709  0.5971  0.7004  0.3691
  459TIP3    H122868   0.316   5.351   5.669 -0.2896  1.8849 -1.6870
  459TIP3    H222869   0.317   5.424   5.801  1.7792 -1.7793  0.4110
  460TIP3   OH222870   6.189   5.443   3.763 -0.5177 -0.7292 -0.7667
  460TIP3    H122871   6.160   5.512   3.822  0.6180 -1.1745  0.3464
  460TIP3    H222872   6.166   5.362   3.808  0.6392 -1.0742 -0.7845
  461TIP3   OH222873   6.313   6.596  14.659 -0.3816  0.5806  0.7828
  461TIP3    H122874   6.329   6.648  14.580 -0.7795 -0.7000 -0.1516
  461TIP3    H222875   6.348   6.509  14.638 -0.0364  0.3599  2.2049
  462TIP3   OH222876   4.342   2.036  14.207 -0.2016 -0.2627 -0.1610
  462TIP3    H122877   4.264   2.054  14.260  0.9496 -0.7350  1.7203
  462TIP3    H222878   4.415   2.041  14.269  1.1630 -0.9400 -1.6813
  463TIP3   OH222879   1.425   2.327   4.252 -0.2083  0.2802  0.3405
  463TIP3    H122880   1.410   2.261   4.185 -1.3407  1.8676 -1.0311
  463TIP3    H222881   1.345   2.328   4.304  0.6860 -0.9788  1.7618
  464TIP3   OH222882   5.024   5.764   2.036  0.1988 -0.3781 -0.4011
  464TIP3    H122883   4.936   5.799   2.021  0.2895  0.2511  0.4672
  464TIP3    H222884   5.083   5.832   2.004  0.3859 -1.5206 -2.5592
  465TIP3   OH222885   1.552   3.153   2.994  0.1350  0.1872 -0.2519
  465TIP3    H122886   1.467   3.114   2.972  0.7003 -1.4380  0.3362
  465TIP3    H222887   1.602   3.148   2.913 -0.1137  0.5824 -0.4336
  466TIP3   OH222888   0.548   1.684  16.862  0.0314 -0.7376 -0.5951
  466TIP3    H122889   0.460   1.646  16.855  0.8169 -2.5837 -0.7619
  466TIP3    H222890   0.606   1.619  16.822  1.6303 -0.0836  0.6005
  467TIP3   OH222891   5.309   3.483   4.234  0.5395  0.0845  0.0893
  467TIP3    H122892   5.376   3.526   4.286  2.1547  0.9097 -2.5577
  467TIP3    H222893   5.296   3.541   4.159 -3.0378 -0.1513  0.4655
  468TIP3   OH222894   5.347   6.358  12.528 -0.0058  0.7871  0.4148
  468TIP3    H122895   5.349   6.358  12.432 -0.5681  1.0093  0.4005
  468TIP3    H222896   5.439   6.366  12.554  0.5465 -2.9642 -0.0914
  469TIP3   OH222897   4.847   0.426   3.083  0.1713 -0.0354 -0.7138
  469TIP3    H122898   4.867   0.333   3.098 -0.8899  0.0188  1.1697
  469TIP3    H222899   4.785   0.448   3.152 -0.4216  1.8077 -1.8178
  470TIP3   OH222900   4.939   1.020  16.561 -0.1677 -0.6135 -0.2942
  470TIP3    H122901   4.939   1.109  16.598 -1.2641 -0.1960 -1.2716
  470TIP3    H222902   5.031   0.997  16.553  0.1233  0.5280 -0.2533
  471TIP3   OH222903   5.738   3.694   5.496  0.5900  1.0098 -0.2724
  471TIP3    H122904   5.808   3.671   5.434 -0.7205 -1.6407 -0.8228
  471TIP3    H222905   5.756   3.641   5.573 -2.4816 -2.0351 -1.5424
  472TIP3   OH222906   2.753   2.579   2.422 -0.3094  0.1725  0.5306
  472TIP3    H122907   2.838   2.613   2.394 -0.4352  0.5306  0.5821
  472TIP3    H222908   2.728   2.517   2.353 -0.9780  1.6352 -0.5752
  473TIP3   OH222909   6.061   2.517  11.372  0.2060 -0.1035  0.7636
  473TIP3    H122910   6.142   2.485  11.333  0.2490  0.4496  0.3988
  473TIP3    H222911   6.020   2.439  11.410  1.3109 -0.2352  1.6888
  474TIP3   OH222912   2.645   5.070  12.507 -0.1489  0.2629  0.2370
  474TIP3    H122913   2.560   5.089  12.465 -0.1817  1.7071  0.9290
  474TIP3    H222914   2.705   5.057  12.434 -0.7823  0.0539 -0.2593
  475TIP3   OH222915   1.549   2.767  12.336 -0.0348  0.4100  0.3110
  475TIP3    H122916   1.489   2.720  12.278 -0.9939  0.8341  0.9511
  475TIP3    H222917   1.634   2.761  12.292 -0.8038  1.0284 -1.3322
  476TIP3   OH222918   5.805   3.954  17.043  0.8655  0.2485 -0.1734
  476TIP3    H122919   5.800   3.867  17.083 -1.6224  0.1565 -0.6371
  476TIP3    H222920   5.756   3.945  16.961  3.6451  1.1427 -2.0033
  477TIP3   OH222921   5.524   0.956   1.443  0.5073  0.3227 -0.5449
  477TIP3    H122922   5.606   0.910   1.460  0.3396 -0.1504 -0.9839
  477TIP3    H222923   5.474   0.895   1.388 -0.0965  0.6438 -0.3589
  478TIP3   OH222924   0.788   5.237   2.576 -0.1745  0.1232 -0.3747
  478TIP3    H122925   0.810   5.220   2.667  1.9019 -1.4560 -1.1420
  478TIP3    H222926   0.721   5.306   2.580  0.5614  0.7265  2.2752
  479TIP3   OH222927   2.002   4.557  11.152 -0.0545  0.4734  0.0976
  479TIP3    H122928   2.066   4.619  11.117 -0.3643 -1.0037 -3.2472
  479TIP3    H222929   2.052   4.477  11.167 -0.7606 -0.1585 -0.8904
  480TIP3   OH222930   2.600   4.688  10.789 -0.5881 -0.0627  0.0286
  480TIP3    H122931   2.689   4.659  10.772 -0.8092 -1.1663  0.6786
  480TIP3    H222932   2.578   4.745  10.716  0.9666  0.9292  0.3299
  481TIP3   OH222933   6.445   2.804   5.820 -0.0106  0.4584 -0.2604
  481TIP3    H122934   6.486   2.798   5.906  0.0375  0.6953 -0.2661
  481TIP3    H222935   6.515   2.838   5.763  0.0061  0.1493 -0.4258
  482TIP3   OH222936   3.572   2.312   5.634  0.1930 -0.3006 -0.2060
  482TIP3    H122937   3.554   2.318   5.728 -2.2217 -1.1391 -0.5992
  482TIP3    H222938   3.625   2.233   5.626 -0.5509 -0.8620  0.3227
  483TIP3   OH222939   4.534   6.409  15.905 -0.0316 -0.0861  0.1451
  483TIP3    H122940   4.562   6.493  15.943 -1.2180 -0.4524  1.9043
  483TIP3    H222941   4.507   6.432  15.816 -2.1264  1.7862  1.2042
  484TIP3   OH222942   5.467   5.196  13.540 -0.4469 -0.3099 -0.7215
  484TIP3    H122943   5.483   5.160  13.452  0.5926 -0.3238 -0.5338
  484TIP3    H222944   5.412   5.273  13.525 -0.0241 -0.1385 -1.4210
  485TIP3   OH222945   4.178   1.262  15.979 -0.1772  0.2068 -0.5760
  485TIP3    H122946   4.159   1.183  15.927  2.4778 -0.9892  0.1832
  485TIP3    H222947   4.141   1.243  16.065 -2.3057  1.1311 -1.2456
  486TIP3   OH222948   0.334   5.119   4.894  0.4744  0.0718  0.0820
  486TIP3    H122949   0.295   5.050   4.841 -1.5254  1.7388 -0.6804
  486TIP3    H222950   0.361   5.186   4.831 -1.4575  1.8370  1.0557
  487TIP3   OH222951   5.709   1.601   5.550  0.0865  0.6506  0.2458
  487TIP3    H122952   5.751   1.650   5.480 -1.1769  1.2005 -0.1326
  487TIP3    H222953   5.636   1.556   5.508 -1.4570  1.9865  1.4273
  488TIP3   OH222954   4.749   1.686  14.513  0.1574  0.4706  0.5106
  488TIP3    H122955   4.670   1.726  14.477  1.1684  0.7174 -1.4946
  488TIP3    H222956   4.720   1.600  14.544 -0.9705  0.7120  0.1651
  489TIP3   OH222957   4.746   3.125  11.555 -0.3876 -0.1398 -0.2970
  489TIP3    H122958   4.832   3.121  11.598  0.0798 -0.4042 -1.2490
  489TIP3    H222959   4.697   3.189  11.607  0.4708  0.2045  0.1059
  490TIP3   OH222960   5.972   0.844  14.483 -0.2884  0.7259  0.2797
  490TIP3    H122961   5.988   0.852  14.577 -3.5683 -0.6006  1.0376
  490TIP3    H222962   6.022   0.916  14.444  0.6147  1.7058  3.0998
  491TIP3   OH222963   5.039   3.697  11.075  0.3170 -0.2934  0.1261
  491TIP3    H122964   5.017   3.784  11.108  1.3691  0.7371 -1.7991
  491TIP3    H222965   4.954   3.657  11.057 -0.2322 -0.3226  2.5644
  492TIP3   OH222966   0.479   0.226   2.595 -0.0537  0.3757 -0.3887
  492TIP3    H122967   0.542   0.155   2.609 -0.9688 -0.3620 -0.0295
  492TIP3    H222968   0.462   0.224   2.501 -0.7791 -0.4611 -0.2323
  493TIP3   OH222969   4.517   5.211  13.087 -0.2353  0.2805  0.4492
  493TIP3    H122970   4.441   5.168  13.045  0.4789  0.2603 -0.8612
  493TIP3    H222971   4.585   5.208  13.020  0.4784  1.5894  1.1144
  494TIP3   OH222972   3.725   3.448   2.424  0.5953  0.4355  0.1051
  494TIP3    H122973   3.635   3.483   2.425  0.1263 -0.6336 -1.6643
  494TIP3    H222974   3.741   3.420   2.514 -0.8632  0.6089  0.4433
  495TIP3   OH222975   4.377   0.932  12.627  0.7485 -0.5252  0.0879
  495TIP3    H122976   4.434   0.913  12.553 -0.4928  0.7938 -1.2601
  495TIP3    H222977   4.289   0.936  12.589 -0.0294 -0.7613  1.8067
  496TIP3   OH222978   5.532   6.636  11.416 -0.0069 -0.4525 -0.3174
  496TIP3    H122979   5.584   6.667  11.490 -0.2142 -0.3374 -0.2220
  496TIP3    H222980   5.597   6.624  11.346  0.1283 -0.1552 -0.2464
  497TIP3   OH222981   5.789   1.268   3.707  0.0466 -0.3470 -0.2816
  497TIP3    H122982   5.836   1.329   3.764  1.6897 -1.5422 -0.3363
  497TIP3    H222983   5.739   1.325   3.648  2.6006  1.0238 -1.2129
  498TIP3   OH222984   3.285   6.765  11.249  0.4168  0.4304  0.3726
  498TIP3    H122985   3.215   6.824  11.276 -0.0562 -0.4429  1.0801
  498TIP3    H222986   3.332   6.745  11.330  0.6548 -0.0583  0.1139
  499TIP3   OH222987   3.104   2.050   0.062  0.3569 -0.9957 -0.2369
  499TIP3    H122988   3.123   2.001   0.142  0.9359  2.9734  2.2448
  499TIP3    H222989   3.185   2.099   0.045 -1.5455  2.4904  0.1006
  500TIP3   OH222990   1.834   6.424   5.472 -0.3750 -0.2390  0.0077
  500TIP3    H122991   1.867   6.343   5.508  1.4027 -0.1393 -1.3481
  500TIP3    H222992   1.844   6.415   5.377 -0.6532  1.3481 -0.1975
  501TIP3   OH222993   5.817   4.743  16.717 -0.1770  0.4489 -0.1925
  501TIP3    H122994   5.886   4.750  16.651 -0.3167  3.3286 -0.0864
  501TIP3    H222995   5.736   4.744  16.667 -0.2583  1.6719 -0.0377
  502TIP3   OH222996   4.125   5.303  13.709  0.1635 -0.0705 -0.2938
  502TIP3    H122997   4.088   5.321  13.795 -0.9098  3.0026 -1.3399
  502TIP3    H222998   4.062   5.242  13.669 -0.4672  0.1925  0.2807
  503TIP3   OH222999   1.710   3.833  13.030  0.2409  0.9969 -0.1306
  503TIP3    H123000   1.780   3.817  12.966 -1.0017  2.3274 -1.8756
  503TIP3    H223001   1.699   3.928  13.030 -0.0658  0.9781  1.7785
  504TIP3   OH223002   2.070   3.013  15.226 -0.1425  0.1436 -0.0471
  504TIP3    H123003   2.131   3.085  15.211  0.6730  0.0293  2.4439
  504TIP3    H223004   1.991   3.055  15.259  0.3251 -0.0649  1.3863
  505TIP3   OH223005   1.020   2.424  13.530  0.0468  0.3388 -0.4910
  505TIP3    H123006   1.066   2.499  13.569  0.1169 -0.6471  1.3637
  505TIP3    H223007   0.933   2.458  13.510 -0.6136  0.3953  2.2599
  506TIP3   OH223008   3.099   0.939   1.201 -0.1811  0.0032  0.2623
  506TIP3    H123009   3.180   0.904   1.239  0.0536  1.6037  1.2746
  506TIP3    H223010   3.058   0.988   1.272 -0.3567  1.9982 -1.1793
  507TIP3   OH223011   0.120   4.340   5.825 -0.2285  0.5364  0.3962
  507TIP3    H123012   0.208   4.325   5.791 -0.3852  0.0750  0.1816
  507TIP3    H223013   0.133   4.387   5.907  0.1740  1.3071 -0.1100
  508TIP3   OH223014   4.074   1.098   1.253 -0.1623 -0.3333 -0.3980
  508TIP3    H123015   4.116   1.082   1.169 -1.1694  1.8273 -1.3641
  508TIP3    H223016   4.139   1.146   1.304 -0.2153 -0.0067 -0.6356
  509TIP3   OH223017   1.975   2.424   0.656  0.3100 -0.0759  0.2690
  509TIP3    H123018   1.966   2.500   0.714  1.9538  0.2327  0.1486
  509TIP3    H223019   1.920   2.443   0.581 -0.4718  0.3131  0.9387
  510TIP3   OH223020   4.991   1.773   3.235 -0.1214 -0.1858 -0.9208
  510TIP3    H123021   4.933   1.820   3.175  0.4155  1.9255  0.1517
  510TIP3    H223022   4.972   1.812   3.321  1.0871 -1.2342 -0.1706
  511TIP3   OH223023   3.111   4.875  13.870  0.6713  0.1591  0.4412
  511TIP3    H123024   3.058   4.800  13.897  0.3897  0.0340 -0.4597
  511TIP3    H223025   3.092   4.942  13.936 -1.9315  0.7128 -0.7853
  512TIP3   OH223026   1.536   3.557  10.826 -0.1371 -0.8435  0.4190
  512TIP3    H123027   1.491   3.473  10.837 -1.2504 -0.1700  1.1649
  512TIP3    H223028   1.487   3.601  10.757 -0.4016 -0.2539  0.9802
  513TIP3   OH223029   6.403   3.331  14.246  0.2165  0.2907  0.0228
  513TIP3    H123030   6.450   3.401  14.202  0.7574 -0.2266 -0.2351
  513TIP3    H223031   6.464   3.257  14.245  0.2732  0.2799  1.7068
  514TIP3   OH223032   0.320   3.670  12.130 -0.3235 -0.5321 -0.6699
  514TIP3    H123033   0.393   3.731  12.119  0.7860 -1.7142 -0.1232
  514TIP3    H223034   0.306   3.665  12.225 -0.9987 -0.4492 -0.7613
  515TIP3   OH223035   4.797   1.018   5.407 -0.3946  0.4450  0.3855
  515TIP3    H123036   4.845   0.944   5.370  0.0659  0.1281  1.5977
  515TIP3    H223037   4.865   1.082   5.429 -0.4649 -0.1547  2.4599
  516TIP3   OH223038   3.974   5.571  14.706 -0.4020  0.5837 -0.2574
  516TIP3    H123039   4.001   5.490  14.663 -1.0479  0.3232 -0.1613
  516TIP3    H223040   4.038   5.636  14.676  0.7929 -0.2032  0.5684
  517TIP3   OH223041   5.999   1.144  13.467 -0.5447  0.1657 -0.4755
  517TIP3    H123042   6.002   1.051  13.447 -0.2138 -0.2882  1.5398
  517TIP3    H223043   6.043   1.152  13.552 -0.8985  2.0990 -0.4443
  518TIP3   OH223044   2.308   3.855  12.737 -0.1489  0.3701  0.0210
  518TIP3    H123045   2.280   3.837  12.648 -0.9101  0.9891  0.1282
  518TIP3    H223046   2.341   3.772  12.769  0.4246  0.2234 -0.9449
  519TIP3   OH223047   3.328   0.307   5.126 -0.2483  0.0904  0.8689
  519TIP3    H123048   3.420   0.333   5.132 -0.6258  1.1588  2.1574
  519TIP3    H223049   3.313   0.292   5.032  0.6080  2.2048  0.3872
  520TIP3   OH223050   0.322   1.904   1.437  0.0453  0.5420 -0.0421
  520TIP3    H123051   0.253   1.872   1.378  1.7774 -0.3822 -1.6376
  520TIP3    H223052   0.324   1.841   1.508  0.5159 -0.5127 -0.9730
  521TIP3   OH223053   4.837   4.816   1.981  0.1749  0.0135  0.1260
  521TIP3    H123054   4.774   4.783   2.045 -0.2209 -1.0540 -0.8150
  521TIP3    H223055   4.915   4.837   2.033  0.3079 -2.0304  0.8048
  522TIP3   OH223056   1.439   2.329   0.301 -0.2689  1.0091  0.1232
  522TIP3    H123057   1.479   2.390   0.240 -1.4210  1.2508 -0.4059
  522TIP3    H223058   1.403   2.384   0.370  2.5519  0.6352  1.9763
  523TIP3   OH223059   6.403   1.043  14.774 -0.8792 -0.2569 -0.2465
  523TIP3    H123060   6.434   1.083  14.692  2.0554  0.5310  1.1738
  523TIP3    H223061   6.318   1.083  14.789 -0.0551  1.9923 -1.2875
  524TIP3   OH223062   3.194   5.307  10.694  0.3601 -0.0971  0.4963
  524TIP3    H123063   3.174   5.316  10.787 -2.0979 -0.4989  0.0366
  524TIP3    H223064   3.217   5.215  10.682  1.3958  0.1094  0.8083
  525TIP3   OH223065   3.606   5.781   3.888  0.0775  0.2901  0.3940
  525TIP3    H123066   3.516   5.756   3.868 -0.1777  0.1629  1.6629
  525TIP3    H223067   3.634   5.832   3.812 -0.4542 -1.1781 -0.8030
  526TIP3   OH223068   4.650   4.105  14.473  0.3018 -0.0366 -0.6509
  526TIP3    H123069   4.680   4.033  14.528  1.8758 -0.0123 -1.4339
  526TIP3    H223070   4.648   4.181  14.531  1.7545 -0.0497 -0.5494
  527TIP3   OH223071   1.380   1.142   0.173 -0.0346  0.0936  0.6778
  527TIP3    H123072   1.379   1.222   0.121 -1.4041 -1.0433 -1.1099
  527TIP3    H223073   1.471   1.112   0.169  0.2092  0.8766  0.2828
  528TIP3   OH223074   5.308   4.233  14.257 -0.4043  0.4538  0.0770
  528TIP3    H123075   5.288   4.269  14.170 -1.8095 -1.1860 -0.3110
  528TIP3    H223076   5.250   4.281  14.316  1.5210  2.5360  0.3375
  529TIP3   OH223077   4.459   4.140  14.257  0.3426  0.1148  0.0214
  529TIP3    H123078   4.431   4.231  14.268  0.8771  0.1898  0.8118
  529TIP3    H223079   4.518   4.124  14.331  0.5733 -0.7482 -0.3424
  530TIP3   OH223080   0.751   3.861  17.249  0.5668 -0.0652 -0.1341
  530TIP3    H123081   0.705   3.804  17.187  0.2840  0.3530 -0.3069
  530TIP3    H223082   0.838   3.823  17.255  0.3566 -0.5635 -0.1966
  531TIP3   OH223083   4.495   0.433  13.383  0.0214 -0.1578 -0.2379
  531TIP3    H123084   4.488   0.480  13.467  0.7660 -0.9827  0.2925
  531TIP3    H223085   4.573   0.469  13.342  0.7128 -1.0487  0.2628
  532TIP3   OH223086   3.033   3.958  13.979  0.0403  0.8045  0.1540
  532TIP3    H123087   2.967   3.935  14.044 -1.0306  1.5296 -0.6611
  532TIP3    H223088   3.074   4.038  14.013  1.6147 -0.5086  1.4391
  533TIP3   OH223089   0.979   2.296   0.224  0.1604 -0.0911  0.0005
  533TIP3    H123090   1.062   2.250   0.209 -0.6784 -2.0484  1.2350
  533TIP3    H223091   0.933   2.290   0.140 -1.0478 -3.8887  0.8167
  534TIP3   OH223092   5.207   3.304   2.006 -0.1917 -0.5052 -0.5525
  534TIP3    H123093   5.171   3.393   2.000  1.3359  0.0243 -2.6032
  534TIP3    H223094   5.295   3.316   2.041  0.2340 -1.1327 -1.3803
  535TIP3   OH223095   0.190   2.115   5.227  0.3655  0.7332 -0.3011
  535TIP3    H123096   0.172   2.084   5.139 -0.0670 -0.6467  0.2599
  535TIP3    H223097   0.273   2.073   5.251  0.0536  0.4228  0.2597
  536TIP3   OH223098   0.100   1.620   3.746 -0.4091 -0.5668  0.6416
  536TIP3    H123099   0.026   1.628   3.685  0.8243 -0.1067 -0.8211
  536TIP3    H223100   0.108   1.707   3.785 -0.4680 -0.5317  0.5769
  537TIP3   OH223101   5.080   4.782   2.140 -0.1712 -0.4540 -0.2938
  537TIP3    H123102   5.144   4.715   2.114  1.1108  0.2658  0.9343
  537TIP3    H223103   5.126   4.865   2.127 -1.2976  0.1404 -0.5492
  538TIP3   OH223104   1.513   2.320  11.896 -1.0001 -0.2733 -0.7848
  538TIP3    H123105   1.472   2.234  11.884 -0.7166 -0.3075 -1.4692
  538TIP3    H223106   1.448   2.382  11.863 -1.8335 -0.1142  1.0676
  539TIP3   OH223107   4.291   2.342   1.272 -0.1179  0.5676 -0.1757
  539TIP3    H123108   4.371   2.295   1.251 -0.7716 -1.1900  1.1943
  539TIP3    H223109   4.320   2.414   1.330  0.3246 -0.8096  1.3514
  540TIP3   OH223110   5.098   0.025  13.429  0.2893  0.2938  0.5589
  540TIP3    H123111   5.187   0.053  13.448  0.5369 -0.1089  0.0273
  540TIP3    H223112   5.061   0.095  13.375  1.3319 -0.9477 -1.8519
  541TIP3   OH223113   5.958   3.917   1.838  0.5522  0.0206 -0.0221
  541TIP3    H123114   5.940   3.839   1.786  0.9282 -1.0716  1.4541
  541TIP3    H223115   5.873   3.944   1.872  0.1772  1.2212 -1.8225
  542TIP3   OH223116   0.775   5.669  14.688  0.0361  0.4979  0.0969
  542TIP3    H123117   0.751   5.687  14.778 -0.1830 -1.5500  0.4808
  542TIP3    H223118   0.868   5.649  14.691 -0.2246 -0.7688  0.0747
  543TIP3   OH223119   2.579   0.656  16.086 -0.6222 -0.0371 -0.1460
  543TIP3    H123120   2.611   0.729  16.140 -0.6759  0.1556 -0.3736
  543TIP3    H223121   2.515   0.697  16.027  0.0152 -0.1132 -0.8826
  544TIP3   OH223122   3.210   6.680   4.226 -0.1595 -0.5448 -0.4629
  544TIP3    H123123   3.133   6.723   4.189  1.1240  0.0930 -2.4728
  544TIP3    H223124   3.188   6.587   4.223 -0.4205 -0.4426 -2.0514
  545TIP3   OH223125   3.075   3.194   1.532  0.0104  0.2727  0.7000
  545TIP3    H123126   3.163   3.213   1.563 -0.0872  0.4333  0.8837
  545TIP3    H223127   3.087   3.138   1.455  0.2492 -0.1883  1.0777
  546TIP3   OH223128   0.481   5.821  15.048  0.1688 -0.2829 -0.4996
  546TIP3    H123129   0.535   5.838  14.971 -0.9338  0.7602 -1.0511
  546TIP3    H223130   0.494   5.898  15.104 -1.1702  0.2139 -0.8752
  547TIP3   OH223131   1.952   5.821   5.499  0.2921  0.6086 -0.1558
  547TIP3    H123132   1.998   5.865   5.427 -1.7829  1.5946 -0.9227
  547TIP3    H223133   1.982   5.865   5.578 -1.2702  3.0395 -0.8642
  548TIP3   OH223134   4.896   5.685   4.071  0.7840  0.2833 -0.3395
  548TIP3    H123135   4.883   5.776   4.100 -1.7965  0.2449 -1.3160
  548TIP3    H223136   4.849   5.633   4.136 -3.1214  0.0620 -3.1796
  549TIP3   OH223137   6.517   3.872  14.225 -0.6734 -0.1793  0.0852
  549TIP3    H123138   6.592   3.912  14.270 -0.6112 -1.0285  0.7489
  549TIP3    H223139   6.539   3.879  14.132 -0.0232  0.0677  0.2521
  550TIP3   OH223140   4.393   6.668   0.343 -0.7703  0.0929 -0.3378
  550TIP3    H123141   4.344   6.734   0.294 -1.4039 -0.7662 -0.8848
  550TIP3    H223142   4.326   6.615   0.385 -0.2697 -0.2660  0.0121
  551TIP3   OH223143   3.743   4.669   2.150 -0.1037  0.4191 -0.2073
  551TIP3    H123144   3.761   4.591   2.203  0.3558  1.1323  0.6962
  551TIP3    H223145   3.825   4.719   2.153 -0.5870  1.2216 -0.2907
  552TIP3   OH223146   2.336   5.662  16.229 -0.1888 -0.1968  0.3610
  552TIP3    H123147   2.252   5.705  16.213 -0.0849 -0.0700  0.1502
  552TIP3    H223148   2.400   5.732  16.218 -0.1466  0.0015  1.7788
  553TIP3   OH223149   4.580   0.042   2.143  0.3773 -0.5165  0.2210
  553TIP3    H123150   4.622   0.128   2.134  0.3826 -0.5660 -0.2583
  553TIP3    H223151   4.497   0.060   2.186  0.4164 -0.2795  0.2002
  554TIP3   OH223152   4.477   3.409  14.456  0.1123  0.3686  0.2483
  554TIP3    H123153   4.557   3.369  14.489  0.5872  1.2301  0.1644
  554TIP3    H223154   4.478   3.498  14.493 -0.6289  0.4934 -0.0289
  555TIP3   OH223155   6.524   1.640  15.088  0.0042  0.1520 -0.1682
  555TIP3    H123156   6.544   1.591  15.008  0.0311  0.9914 -0.6838
  555TIP3    H223157   6.444   1.689  15.068 -0.4359 -0.2521  0.5923
  556TIP3   OH223158   4.980   4.100   5.547 -0.1793 -0.3522 -0.1062
  556TIP3    H123159   5.066   4.125   5.579  0.4366  0.3035 -2.2088
  556TIP3    H223160   4.974   4.140   5.460 -1.9551 -1.7214 -0.6452
  557TIP3   OH223161   5.589   5.612  11.510 -0.6364  0.5444  0.5957
  557TIP3    H123162   5.596   5.633  11.603  0.3451  0.3105  0.5779
  557TIP3    H223163   5.654   5.667  11.467  0.1210 -0.5967  0.2551
  558TIP3   OH223164   5.215   5.903   0.667  0.6825  0.3090  0.6279
  558TIP3    H123165   5.235   5.866   0.581 -0.9291  0.5946  0.1084
  558TIP3    H223166   5.292   5.884   0.720  1.6584  0.0543 -0.8586
  559TIP3   OH223167   5.379   2.662  17.265 -0.0184 -0.5645 -0.1176
  559TIP3    H123168   5.318   2.602  17.308  0.3263 -0.7882  0.0647
  559TIP3    H223169   5.466   2.625  17.284  0.2447  0.4210  0.6619
  560TIP3   OH223170   0.445   4.651  12.772  0.1636 -0.1902 -0.6499
  560TIP3    H123171   0.441   4.558  12.750  1.6933 -1.0193  2.2876
  560TIP3    H223172   0.515   4.685  12.717  0.6842 -1.1225 -0.5767
  561TIP3   OH223173   5.020   2.094  11.741 -0.3661 -0.2168  0.5025
  561TIP3    H123174   5.111   2.072  11.761  0.6972  3.0655 -0.3439
  561TIP3    H223175   4.994   2.153  11.811 -1.1208  0.5761 -0.4430
  562TIP3   OH223176   1.040   1.681   3.335 -0.3085 -0.3996 -0.4464
  562TIP3    H123177   0.986   1.758   3.317 -0.0837 -0.3956 -1.1321
  562TIP3    H223178   0.977   1.609   3.340 -0.6651  0.0499  1.6630
  563TIP3   OH223179   5.091   1.171  13.232 -0.4442  0.3862 -0.0288
  563TIP3    H123180   5.174   1.204  13.196  0.1226 -0.1425  0.7784
  563TIP3    H223181   5.089   1.079  13.206 -0.4377  0.2183  0.5572
  564TIP3   OH223182   6.530   2.918  12.048  0.9933  0.1930 -0.7336
  564TIP3    H123183   6.512   2.985  12.114  0.1440 -0.8604  0.1150
  564TIP3    H223184   6.566   2.967  11.973  1.7845  1.4137  0.4251
  565TIP3   OH223185   0.889   1.264  13.760  0.0105 -0.4701  0.8689
  565TIP3    H123186   0.944   1.341  13.773  0.1717 -0.6010  0.9647
  565TIP3    H223187   0.917   1.203  13.828  1.7511 -1.6546 -0.8384
  566TIP3   OH223188   2.417   5.440   6.703  0.0613  0.0351 -0.3494
  566TIP3    H123189   2.391   5.510   6.643 -0.8694  1.6560  1.8474
  566TIP3    H223190   2.495   5.474   6.746 -0.1350 -0.4652  0.4026
  567TIP3   OH223191   3.711   4.913   4.053 -0.1169  1.0389 -0.0052
  567TIP3    H123192   3.745   4.996   4.018  0.2151  0.6121 -0.7096
  567TIP3    H223193   3.626   4.936   4.090 -0.6981  1.4282 -1.5286
  568TIP3   OH223194   0.978   1.392  11.650 -0.6198 -0.8516  0.4030
  568TIP3    H123195   0.987   1.351  11.736 -0.8905 -0.6360  0.5331
  568TIP3    H223196   0.942   1.478  11.669 -0.7049 -0.8165  0.0694
  569TIP3   OH223197   3.776   0.818   1.176  0.0215  0.7761  0.4802
  569TIP3    H123198   3.739   0.903   1.197  0.5499  1.0002  0.5032
  569TIP3    H223199   3.703   0.770   1.136  0.0625  1.6925 -0.7478
  570TIP3   OH223200   1.434   1.421   5.142 -0.1190  0.1634  0.2351
  570TIP3    H123201   1.470   1.413   5.054 -0.6423 -0.7890  0.1048
  570TIP3    H223202   1.384   1.503   5.141 -0.2718  0.0612 -0.4058
  571TIP3   OH223203   0.655   1.206  13.576  0.2510  0.0677 -0.4839
  571TIP3    H123204   0.723   1.226  13.640  0.3162  0.7225 -0.7534
  571TIP3    H223205   0.701   1.202  13.492 -0.2392  1.7942 -0.8391
  572TIP3   OH223206   3.396   5.240   5.086  0.4061 -0.1830  0.3425
  572TIP3    H123207   3.488   5.234   5.061  0.0412  1.0051 -1.3238
  572TIP3    H223208   3.355   5.163   5.046  0.4671 -0.1422  0.2036
  573TIP3   OH223209   4.372   5.640   4.196 -0.1783 -1.2416 -0.2561
  573TIP3    H123210   4.373   5.719   4.142 -1.6247 -0.5529  0.6887
  573TIP3    H223211   4.295   5.650   4.252  1.2636 -1.9298  1.9339
  574TIP3   OH223212   2.012   4.720  17.257  0.3545  0.4347  0.1302
  574TIP3    H123213   1.945   4.788  17.259 -0.2629 -0.1888  1.3291
  574TIP3    H223214   2.080   4.751  17.317  1.9062  1.7909 -2.2236
  575TIP3   OH223215   5.054   6.753  13.684  0.8545  0.3040  0.0893
  575TIP3    H123216   4.963   6.781  13.690  0.2807 -1.3674 -0.4243
  575TIP3    H223217   5.066   6.729  13.592  1.8698  0.7118  0.1093
  576TIP3   OH223218   2.387   4.767   0.069  0.1489 -0.1231  0.1602
  576TIP3    H123219   2.447   4.697   0.042 -2.0915 -2.2063  0.3208
  576TIP3    H223220   2.426   4.803   0.148  2.0155 -0.3031 -0.6457
  577TIP3   OH223221   2.464   1.433   4.655  0.5244 -0.4797 -0.4704
  577TIP3    H123222   2.436   1.424   4.564 -0.7661 -1.1300 -0.0184
  577TIP3    H223223   2.492   1.524   4.663  1.8269 -0.7495 -1.8336
  578TIP3   OH223224   4.551   0.453   1.988  0.7980 -0.4449  0.8369
  578TIP3    H123225   4.470   0.407   1.965  0.2487  0.6612  0.4911
  578TIP3    H223226   4.606   0.445   1.911 -0.2714  1.5705 -0.1876
  579TIP3   OH223227   0.565   6.033  14.261 -0.1898  0.1771  0.0761
  579TIP3    H123228   0.554   5.940  14.284  1.1219  0.2030  0.8241
  579TIP3    H223229   0.571   6.078  14.345  0.1722  0.8214 -0.2913
  580TIP3   OH223230   5.309   3.816  13.211  0.1460 -0.4062  0.2132
  580TIP3    H123231   5.257   3.737  13.227  1.1359 -0.9034  1.0530
  580TIP3    H223232   5.272   3.854  13.131  0.4896 -2.4281 -0.9510
  581TIP3   OH223233   4.592   5.448   5.733  0.1202  0.2802 -0.3828
  581TIP3    H123234   4.519   5.507   5.714  0.1356  0.8979  1.3286
  581TIP3    H223235   4.551   5.363   5.744 -0.6493  0.9643  2.4798
  582TIP3   OH223236   0.050   5.228   1.688  0.0494  0.2048  0.0259
  582TIP3    H123237   0.070   5.265   1.603 -1.2549  0.1796 -0.3066
  582TIP3    H223238   0.032   5.305   1.744  2.3049  0.2925  0.6667
  583TIP3   OH223239   0.821   3.748   5.371  0.4398 -0.3545 -0.4713
  583TIP3    H123240   0.727   3.756   5.382  0.7995  2.1151  1.1327
  583TIP3    H223241   0.856   3.746   5.460  1.9951  0.0723 -1.0558
  584TIP3   OH223242   0.798   0.223   0.396  0.4381  0.5278 -0.2660
  584TIP3    H123243   0.847   0.267   0.327  0.5904 -0.6813 -0.9437
  584TIP3    H223244   0.844   0.140   0.409 -2.0436 -1.1347 -1.6833
  585TIP3   OH223245   2.789   3.379   1.550  0.4193  0.5042 -0.5223
  585TIP3    H123246   2.715   3.398   1.606  0.5499 -1.0348  0.1809
  585TIP3    H223247   2.864   3.374   1.609  0.4930 -1.5383 -0.7495
  586TIP3   OH223248   3.577   1.314   1.081 -0.1093 -0.2707 -0.4259
  586TIP3    H123249   3.578   1.290   0.989  1.0166 -0.0391 -0.4786
  586TIP3    H223250   3.603   1.406   1.082 -1.4544  0.1164  0.0146
  587TIP3   OH223251   1.988   4.854   2.618 -0.3919  0.2905 -0.2020
  587TIP3    H123252   2.070   4.813   2.644 -0.4661 -0.4557 -1.1339
  587TIP3    H223253   1.932   4.847   2.695 -0.1934 -0.8080 -0.1594
  588TIP3   OH223254   4.525   2.674  11.811 -0.3167  0.3133  0.1970
  588TIP3    H123255   4.482   2.723  11.881 -1.1232 -0.4100  0.2045
  588TIP3    H223256   4.578   2.609  11.857  1.3780  1.6525  0.2177
  589TIP3   OH223257   5.764   6.747  16.537  0.2930  0.4948 -0.5976
  589TIP3    H123258   5.799   6.733  16.625 -0.4236  2.2388 -0.0275
  589TIP3    H223259   5.678   6.787  16.551  0.6924  1.9352 -2.1047
  590TIP3   OH223260   6.260   2.117   2.574  0.3141  0.0094 -0.4649
  590TIP3    H123261   6.338   2.172   2.569  0.1863  0.2776  0.2951
  590TIP3    H223262   6.200   2.154   2.510 -0.3613  1.7391  1.1030
  591TIP3   OH223263   1.225   1.864   0.206  0.1824 -0.1683 -0.0904
  591TIP3    H123264   1.230   1.960   0.205  2.0823 -0.2545 -1.3173
  591TIP3    H223265   1.314   1.836   0.229 -0.5427 -1.6504  1.0063
  592TIP3   OH223266   1.390   1.984   2.767 -0.3505  0.3677 -0.6337
  592TIP3    H123267   1.354   1.909   2.720  1.5595 -1.1338  0.2077
  592TIP3    H223268   1.464   1.947   2.817 -0.0464  2.6098  0.6190
  593TIP3   OH223269   6.059   0.866  12.122 -0.6394 -0.4481  0.1609
  593TIP3    H123270   5.976   0.884  12.080 -1.4635 -0.8675  1.5805
  593TIP3    H223271   6.086   0.951  12.159 -3.1053 -1.3079  4.3348
  594TIP3   OH223272   1.110   2.191  15.031  0.6805  0.0851  0.3403
  594TIP3    H123273   1.014   2.189  15.034  0.6845 -1.0686 -0.1620
  594TIP3    H223274   1.133   2.276  15.069 -0.4767 -0.2803  1.9000
  595TIP3   OH223275   0.851   1.373   0.491 -0.1007  0.2906 -0.2512
  595TIP3    H123276   0.873   1.308   0.423 -2.7669 -2.3718  1.3081
  595TIP3    H223277   0.910   1.351   0.563  0.6731  1.2044 -0.5972
  596TIP3   OH223278   6.051   2.686   5.217 -0.7065 -0.1147  0.0818
  596TIP3    H123279   6.114   2.745   5.258 -1.1847  1.5462 -1.5003
  596TIP3    H223280   6.034   2.619   5.283  3.3102 -1.0637  0.2611
  597TIP3   OH223281   5.584   3.200  16.881  0.4719 -0.4291  0.3675
  597TIP3    H123282   5.666   3.199  16.832 -0.6044 -3.1392 -1.4839
  597TIP3    H223283   5.567   3.108  16.902 -1.8399  0.1422  1.1854
  598TIP3   OH223284   1.206   6.248  13.130 -0.0575  0.4340  0.0019
  598TIP3    H123285   1.137   6.229  13.066 -1.6650 -0.3655  1.9106
  598TIP3    H223286   1.204   6.174  13.190  2.1598  0.6545  0.3786
  599TIP3   OH223287   2.348   2.875   2.775 -0.0524 -0.0424  0.3107
  599TIP3    H123288   2.339   2.798   2.831 -0.8070 -0.3350 -0.2118
  599TIP3    H223289   2.337   2.842   2.686  0.5438  0.5196  0.0193
  600TIP3   OH223290   0.746   5.454   5.999  0.7650 -0.3032  0.1985
  600TIP3    H123291   0.800   5.375   5.992  0.4367 -0.4115 -1.2043
  600TIP3    H223292   0.759   5.500   5.917 -2.0925 -0.8726 -0.6269
  601TIP3   OH223293   0.993   6.275  16.960 -0.5796 -0.1356  0.2056
  601TIP3    H123294   1.070   6.260  17.014 -0.1913 -0.3435 -0.4063
  601TIP3    H223295   1.001   6.366  16.931  0.9203 -0.9976 -2.1927
  602TIP3   OH223296   4.288   4.581   0.578  0.5284  0.2335 -0.2180
  602TIP3    H123297   4.256   4.623   0.499  0.2944 -2.1991 -1.4794
  602TIP3    H223298   4.303   4.490   0.552 -0.1485 -0.7649  2.6594
  603TIP3   OH223299   2.983   4.659  14.261 -0.9825  0.0549 -0.0493
  603TIP3    H123300   3.058   4.709  14.291 -1.4503  0.4148  0.5234
  603TIP3    H223301   2.975   4.587  14.323 -0.7080 -0.3611 -0.4937
  604TIP3   OH223302   2.963   3.057   3.094  0.3709 -0.3534 -0.6191
  604TIP3    H123303   2.944   2.984   3.035 -0.3672 -0.5650 -0.1170
  604TIP3    H223304   2.928   3.030   3.178 -1.1059  1.1291 -0.7436
  605TIP3   OH223305   4.415   2.487  14.547 -0.1411 -0.6344  0.4005
  605TIP3    H123306   4.452   2.496  14.635  2.7709 -0.2411 -0.8012
  605TIP3    H223307   4.377   2.572  14.528  1.1801 -0.0271  0.4386
  606TIP3   OH223308   5.843   6.607   0.150  0.1374 -0.6797  0.3045
  606TIP3    H123309   5.828   6.519   0.114  0.6056 -0.1605 -1.2270
  606TIP3    H223310   5.886   6.654   0.078 -0.2562  0.8431  1.0636
  607TIP3   OH223311   1.066   3.987   2.913 -0.4280  0.5641  0.0650
  607TIP3    H123312   1.040   3.924   2.846  0.8137  0.0147  0.0968
  607TIP3    H223313   1.135   4.039   2.873  0.0989  0.4459  0.8031
  608TIP3   OH223314   1.770   2.259   0.260  0.3975 -0.2493  0.0083
  608TIP3    H123315   1.722   2.267   0.177  0.6282  0.3026 -0.0724
  608TIP3    H223316   1.848   2.313   0.248  0.0689  0.4159  0.8492
  609TIP3   OH223317   2.510   3.148  13.691 -0.5251  0.0557  0.0707
  609TIP3    H123318   2.504   3.055  13.714 -2.0432  0.3547  0.9366
  609TIP3    H223319   2.592   3.177  13.731 -0.5747 -0.6639  0.7100
  610TIP3   OH223320   3.119   4.054  16.713 -0.5138 -0.3914 -0.0562
  610TIP3    H123321   3.148   4.145  16.722  0.6295 -0.7011 -0.5178
  610TIP3    H223322   3.168   4.021  16.637  1.2934 -2.2469  1.8681
  611TIP3   OH223323   3.210   2.298  14.280  0.6537 -0.3730  0.1279
  611TIP3    H123324   3.201   2.371  14.342 -0.1688  0.6720 -1.1981
  611TIP3    H223325   3.136   2.240  14.302  0.1974  0.1327 -0.0580
  612TIP3   OH223326   4.488   3.952  12.286 -0.3890 -0.0872  0.2588
  612TIP3    H123327   4.473   4.032  12.338  0.2201  0.4649 -0.4093
  612TIP3    H223328   4.492   3.882  12.351 -1.4251  0.3573  0.8106
  613TIP3   OH223329   3.047   3.086  13.803 -0.0005 -0.2165 -0.6007
  613TIP3    H123330   3.073   3.163  13.853  0.2852 -1.7446  1.6894
  613TIP3    H223331   2.954   3.100  13.784  0.1367  0.8385 -0.4894
  614TIP3   OH223332   6.716   3.706   4.603 -0.0981  0.2251 -0.0578
  614TIP3    H123333   6.717   3.616   4.570  0.6727  0.2270 -0.0433
  614TIP3    H223334   6.764   3.757   4.537  1.0320  0.3137  0.8175
  615TIP3   OH223335   1.757   2.348  13.409 -0.4558 -0.2233 -0.4915
  615TIP3    H123336   1.828   2.411  13.413 -1.6510  1.0812  0.9315
  615TIP3    H223337   1.687   2.388  13.461 -1.9527 -1.8080 -1.2501
  616TIP3   OH223338   2.824   6.307  11.758  0.2081 -0.0712 -0.2703
  616TIP3    H123339   2.855   6.280  11.844  0.7788 -0.8757 -0.7306
  616TIP3    H223340   2.892   6.366  11.726 -0.2791  0.6853  0.0615
  617TIP3   OH223341   3.626   6.173   1.869  0.0681  0.3841 -0.1887
  617TIP3    H123342   3.580   6.091   1.852 -1.1347  1.0631 -0.2655
  617TIP3    H223343   3.617   6.223   1.788  2.2466 -0.0758 -0.7308
  618TIP3   OH223344   5.491   3.698  12.429  0.1216  0.2023 -0.5136
  618TIP3    H123345   5.431   3.697  12.354  0.5524  0.6465 -0.8734
  618TIP3    H223346   5.574   3.728  12.392  0.3887  0.2298  0.1062
  619TIP3   OH223347   2.804   6.495  10.782  0.2356  0.4863  0.0012
  619TIP3    H123348   2.831   6.509  10.872 -0.7837  0.5793  0.2981
  619TIP3    H223349   2.850   6.415  10.755  0.3890  0.3493  0.6584
  620TIP3   OH223350   5.562   0.582   4.901 -0.0208  0.3815  0.2797
  620TIP3    H123351   5.652   0.609   4.885  0.0102  1.2942  1.9144
  620TIP3    H223352   5.555   0.575   4.996 -1.6295  0.1479  0.1639
  621TIP3   OH223353   4.281   0.193   5.432 -0.3270  0.5053  1.0687
  621TIP3    H123354   4.349   0.133   5.399 -0.1758  1.4579 -0.3978
  621TIP3    H223355   4.328   0.255   5.487 -0.2333  0.2368  1.2887
  622TIP3   OH223356   2.921   2.940  14.432  0.7953  0.3876 -0.1278
  622TIP3    H123357   2.870   2.908  14.357  2.3609 -1.9587 -0.2228
  622TIP3    H223358   2.950   3.027  14.405 -0.3579  0.4025 -1.4089
  623TIP3   OH223359   3.321   4.123   3.056  0.8588 -0.1630  0.5284
  623TIP3    H123360   3.338   4.131   3.150 -0.4112 -0.2908  0.7802
  623TIP3    H223361   3.336   4.031   3.037  1.9699  0.0295  0.4185
  624TIP3   OH223362   3.144   4.060  13.377  0.9244 -0.1676 -0.1785
  624TIP3    H123363   3.102   4.018  13.452 -1.9847  1.4911 -0.8148
  624TIP3    H223364   3.131   3.998  13.305  1.7147 -0.7269  0.1482
  625TIP3   OH223365   3.879   3.756   0.952 -0.3133  0.2583 -0.0236
  625TIP3    H123366   3.851   3.753   0.861  0.1809  1.0430 -0.1988
  625TIP3    H223367   3.865   3.847   0.979  2.7978  0.8511 -0.3266
  626TIP3   OH223368   1.392   5.464  14.084 -0.3412  0.0187 -0.4307
  626TIP3    H123369   1.314   5.421  14.118  0.0337 -0.3194  0.0211
  626TIP3    H223370   1.374   5.477  13.991  0.2153 -2.6749 -0.9525
  627TIP3   OH223371   5.801   6.128   1.509 -0.0868 -0.0849  0.6634
  627TIP3    H123372   5.869   6.065   1.531  0.1264 -0.2088 -0.3139
  627TIP3    H223373   5.787   6.117   1.414 -0.8644  0.5234  0.6951
  628TIP3   OH223374   3.416   0.394  12.281  0.4490 -0.2336  0.4594
  628TIP3    H123375   3.470   0.331  12.234  0.6071 -1.0625  1.7519
  628TIP3    H223376   3.464   0.477  12.273  0.6827 -0.4568 -0.4719
  629TIP3   OH223377   4.665   2.150  13.329 -0.6441 -0.1978 -0.3949
  629TIP3    H123378   4.593   2.207  13.356 -0.2896  0.5644 -1.0471
  629TIP3    H223379   4.736   2.172  13.389 -1.0581 -1.1952  0.4704
  630TIP3   OH223380   4.337   3.825  16.049 -0.9326  0.1779 -0.3656
  630TIP3    H123381   4.379   3.904  16.016  0.2236 -0.9383 -1.6756
  630TIP3    H223382   4.250   3.853  16.077 -1.4486  1.4731 -3.0515
  631TIP3   OH223383   4.522   5.392  11.687  0.4497 -0.0985  0.1201
  631TIP3    H123384   4.496   5.300  11.675  0.9367 -0.2220 -0.0261
  631TIP3    H223385   4.534   5.425  11.598  2.3155 -0.4987  0.1994
  632TIP3   OH223386   4.302   2.577   4.008  0.0794  0.2761  0.0405
  632TIP3    H123387   4.355   2.653   4.033  1.6115 -0.7314 -0.0817
  632TIP3    H223388   4.286   2.588   3.914 -0.5609  0.9584  0.2264
  633TIP3   OH223389   3.420   0.538   0.271 -0.0589  0.2963 -0.5872
  633TIP3    H123390   3.514   0.544   0.288  0.1127 -0.6158 -1.1853
  633TIP3    H223391   3.413   0.487   0.190 -1.1493 -1.5805  0.6459
  634TIP3   OH223392   3.935   2.825  12.508 -0.1209  0.2438 -0.4806
  634TIP3    H123393   3.955   2.841  12.600 -1.0865  0.7592 -0.3539
  634TIP3    H223394   3.891   2.740  12.508 -0.1915  0.2810 -0.4666
  635TIP3   OH223395   6.169   0.977   5.920  0.1802 -0.0937  0.2111
  635TIP3    H123396   6.096   0.981   5.982 -0.2280  0.0363 -0.2727
  635TIP3    H223397   6.246   1.001   5.971 -0.0861 -0.4401  0.7756
  636TIP3   OH223398   4.593   6.551   5.474  0.1165  0.1810  0.6024
  636TIP3    H123399   4.637   6.553   5.389  0.7923 -1.5292  0.8912
  636TIP3    H223400   4.657   6.585   5.535  1.0983 -2.3706  1.0331
  637TIP3   OH223401   4.441   4.009  11.411 -0.1441 -0.0520 -0.2607
  637TIP3    H123402   4.418   3.950  11.482  0.0206  0.4161  0.1861
  637TIP3    H223403   4.410   4.095  11.440 -1.1239 -0.0520 -1.2590
  638TIP3   OH223404   6.535   5.570   0.877  0.0755 -0.5880 -0.1234
  638TIP3    H123405   6.487   5.630   0.933  0.5279 -0.4079  0.0799
  638TIP3    H223406   6.472   5.543   0.810  0.0145  0.5338 -0.5277
  639TIP3   OH223407   4.942   6.275  10.990  0.7700  0.2962 -0.3625
  639TIP3    H123408   4.992   6.353  10.967  1.2675  0.3737  0.9508
  639TIP3    H223409   4.879   6.266  10.918 -0.9391  3.3326  0.6410
  640TIP3   OH223410   6.420   3.188  16.199  0.1843 -0.2562 -0.1140
  640TIP3    H123411   6.472   3.254  16.245  1.1990 -0.5924 -0.7639
  640TIP3    H223412   6.332   3.197  16.236  0.8570 -0.1703  1.5276
  641TIP3   OH223413   2.584   5.596   5.156 -0.1274  0.6680  0.4266
  641TIP3    H123414   2.545   5.531   5.216 -1.2684  0.8240 -0.1359
  641TIP3    H223415   2.611   5.545   5.080  3.9359  0.0140  2.2269
  642TIP3   OH223416   5.501   6.756   0.912 -0.1112  0.0415  0.1831
  642TIP3    H123417   5.495   6.742   0.817 -0.3937  0.5886  0.1153
  642TIP3    H223418   5.452   6.683   0.950  1.3592 -1.0756 -0.0286
  643TIP3   OH223419   4.400   6.122   0.311 -0.1274 -0.0321 -0.4128
  643TIP3    H123420   4.475   6.109   0.254 -0.0049 -1.5942  0.0795
  643TIP3    H223421   4.410   6.212   0.344  1.3654 -0.1283 -0.5751
  644TIP3   OH223422   6.370   0.736  13.983  0.3155 -0.2305 -0.3405
  644TIP3    H123423   6.337   0.647  13.978 -0.0923 -0.0677 -0.5555
  644TIP3    H223424   6.441   0.732  14.047  0.5400 -0.7819 -0.6231
  645TIP3   OH223425   4.740   2.695   1.561 -0.2042 -0.0444 -0.2405
  645TIP3    H123426   4.833   2.696   1.584 -0.1814 -0.1815 -0.3223
  645TIP3    H223427   4.704   2.775   1.601  0.5398  1.5653 -2.6884
  646TIP3   OH223428   1.860   6.272   4.526 -0.1972 -0.6860 -0.0803
  646TIP3    H123429   1.808   6.194   4.549  0.0428 -1.2003 -1.2691
  646TIP3    H223430   1.864   6.271   4.431  0.8818  0.0873 -0.0479
  647TIP3   OH223431   0.321   0.605  14.276  0.5547 -0.1386 -0.2255
  647TIP3    H123432   0.302   0.662  14.202  0.0529 -0.5194 -0.3905
  647TIP3    H223433   0.401   0.641  14.314 -0.0948  1.0441  0.0427
  648TIP3   OH223434   0.998   3.610   1.467  0.2952 -0.0480 -0.2512
  648TIP3    H123435   1.033   3.522   1.457  1.0480  0.1295  0.7873
  648TIP3    H223436   1.075   3.666   1.472 -0.1567  1.1250 -4.6382
  649TIP3   OH223437   5.046   3.127   3.721  0.3080 -0.5913 -0.0746
  649TIP3    H123438   5.099   3.180   3.662  0.2209 -1.4623 -0.9421
  649TIP3    H223439   5.052   3.038   3.686 -0.6014 -0.9359  0.6145
  650TIP3   OH223440   5.196   6.421   0.448  0.6849  0.1637  0.0258
  650TIP3    H123441   5.120   6.474   0.425  0.9019 -0.4836 -2.3129
  650TIP3    H223442   5.161   6.352   0.505  0.0402  1.5123  1.2965
  651TIP3   OH223443   3.883   3.278   1.447 -0.1130 -1.0060  0.0654
  651TIP3    H123444   3.974   3.291   1.420 -1.1005 -2.9266 -4.5732
  651TIP3    H223445   3.847   3.367   1.453  1.4979 -0.3270 -0.0294
  652TIP3   OH223446   5.951   0.707   2.370  0.1664  0.0316 -0.1414
  652TIP3    H123447   6.040   0.742   2.365  1.1849 -2.1329  1.9284
  652TIP3    H223448   5.953   0.631   2.312 -1.1604  1.5589 -2.2466
  653TIP3   OH223449   4.327   1.387   4.151  0.5847  0.2656 -0.5090
  653TIP3    H123450   4.295   1.353   4.067 -1.7004  2.1599 -0.4537
  653TIP3    H223451   4.422   1.389   4.140  0.3552  0.1853 -2.9623
  654TIP3   OH223452   5.626   2.139   2.091 -0.3765  0.6401 -0.8695
  654TIP3    H123453   5.559   2.080   2.056  0.1612 -2.7082  3.3352
  654TIP3    H223454   5.708   2.104   2.057 -0.1079 -0.8659  1.1836
  655TIP3   OH223455   1.441   3.100   0.017 -0.0404 -0.2383  0.2761
  655TIP3    H123456   1.358   3.063  -0.013 -0.1914  0.1815  0.1697
  655TIP3    H223457   1.504   3.030   0.004 -0.0174  0.0840 -1.5060
  656TIP3   OH223458   5.238   4.630   0.024  0.4641 -0.2170 -0.0081
  656TIP3    H123459   5.230   4.649   0.118  1.4030 -0.7235  0.1760
  656TIP3    H223460   5.193   4.547   0.013  0.1619 -0.0495 -0.0483
  657TIP3   OH223461   2.992   0.476  13.127 -0.1824 -0.3210  0.2201
  657TIP3    H123462   3.066   0.532  13.103  0.7810 -1.9931 -0.8069
  657TIP3    H223463   3.016   0.389  13.095 -2.9740 -0.7340 -0.9002
  658TIP3   OH223464   3.568   2.719   5.325  0.1251  0.0806 -0.2427
  658TIP3    H123465   3.492   2.760   5.367  0.6026  0.7660 -0.0342
  658TIP3    H223466   3.623   2.690   5.397  0.3912  0.2125 -0.3917
  659TIP3   OH223467   3.889   0.572  11.089 -0.0106 -0.4520  0.8449
  659TIP3    H123468   3.962   0.541  11.143  0.4412  0.7796  0.9541
  659TIP3    H223469   3.819   0.590  11.151 -0.1653 -0.9071  0.8106
  660TIP3   OH223470   4.209   6.180  16.567 -0.1881  0.2122 -0.0675
  660TIP3    H123471   4.276   6.128  16.610  0.2490  1.1815  0.4399
  660TIP3    H223472   4.195   6.137  16.483  1.0670 -0.0032 -0.1694
  661TIP3   OH223473   0.926   2.974  12.213 -0.5887  0.1587 -0.0346
  661TIP3    H123474   0.835   3.004  12.221 -0.6325 -0.1530  0.7567
  661TIP3    H223475   0.937   2.957  12.120 -1.8058 -1.1537  0.0299
  662TIP3   OH223476   5.476   0.332  11.945 -0.4289 -0.1835 -0.2287
  662TIP3    H123477   5.506   0.250  11.984 -1.8497 -0.9804 -0.7910
  662TIP3    H223478   5.415   0.305  11.877  1.1612  1.2394 -2.2725
  663TIP3   OH223479   5.197   0.684   2.859  0.1314  0.2815 -0.2207
  663TIP3    H123480   5.168   0.623   2.927 -0.0011  0.3354 -0.2282
  663TIP3    H223481   5.271   0.640   2.817 -0.5064 -0.2652 -0.8028
  664TIP3   OH223482   2.038   5.504  10.726 -0.6103 -0.4926 -0.8693
  664TIP3    H123483   2.040   5.470  10.637  0.8459  0.5935 -1.2760
  664TIP3    H223484   2.114   5.466  10.768 -1.3820 -1.1263 -0.0219
  665TIP3   OH223485   1.106   0.686   5.673 -0.1080 -0.0077  0.3653
  665TIP3    H123486   1.172   0.754   5.658  0.3893 -0.3898  0.8289
  665TIP3    H223487   1.156   0.608   5.694 -0.7551  0.2089  2.8383
  666TIP3   OH223488   3.168   4.434  17.121 -0.3632 -0.3366  0.3722
  666TIP3    H123489   3.144   4.351  17.081 -1.3758  0.4554 -0.7102
  666TIP3    H223490   3.085   4.469  17.154 -0.0086  0.4359  0.4547
  667TIP3   OH223491   6.283   2.424  11.220 -0.1674  0.3140 -0.1240
  667TIP3    H123492   6.291   2.335  11.254  0.3186 -0.7214 -2.7748
  667TIP3    H223493   6.285   2.413  11.125  0.3515  3.2133 -0.4948
  668TIP3   OH223494   3.791   5.169  10.903  0.3433 -0.0438  0.2870
  668TIP3    H123495   3.777   5.087  10.856  0.5580  0.7352 -1.1645
  668TIP3    H223496   3.713   5.222  10.884  0.7713  0.5622  0.1939
  669TIP3   OH223497   1.184   1.327   6.064 -0.5790 -0.5197 -0.2557
  669TIP3    H123498   1.223   1.407   6.098 -3.0491  0.5582  0.2039
  669TIP3    H223499   1.190   1.335   5.969  2.1952 -1.3776 -0.1717
  670TIP3   OH223500   2.852   4.931   5.116 -0.6657  0.4188 -0.2800
  670TIP3    H123501   2.902   5.004   5.152 -1.9125  0.5931  1.1473
  670TIP3    H223502   2.762   4.962   5.113 -0.9633 -0.5055 -1.1778
  671TIP3   OH223503   4.834   0.239   4.884 -0.4703  0.4759 -0.7558
  671TIP3    H123504   4.797   0.215   4.969  0.1653  0.8931 -0.3556
  671TIP3    H223505   4.767   0.215   4.821 -0.8893  0.0266 -0.1466
  672TIP3   OH223506   5.446   0.536   2.780 -0.5149  0.3948  0.3304
  672TIP3    H123507   5.410   0.562   2.696  0.0428  0.8098  0.2246
  672TIP3    H223508   5.472   0.444   2.767  0.5732  0.7859 -0.2701
  673TIP3   OH223509   4.135   1.144   0.396 -0.2510 -0.0656  0.4707
  673TIP3    H123510   4.065   1.191   0.443 -0.0374 -0.7450  1.4865
  673TIP3    H223511   4.172   1.085   0.462  0.6593 -0.3845 -0.3230
  674TIP3   OH223512   4.081   1.484   0.693 -0.4565 -0.7668 -0.1533
  674TIP3    H123513   4.054   1.531   0.614  2.4785  0.2461 -0.6016
  674TIP3    H223514   4.079   1.550   0.763 -0.3073 -0.9786  0.0529
  675TIP3   OH223515   5.652   1.743   8.661  0.0622 -0.0620 -0.1231
  675TIP3    H123516   5.713   1.812   8.688  0.3959 -0.4081  0.0109
  675TIP3    H223517   5.612   1.714   8.742 -1.1318  0.9500 -0.3261
  676TIP3   OH223518   5.227   0.086   5.789 -0.0007  0.6218  0.2299
  676TIP3    H123519   5.188   0.047   5.867 -1.2850 -1.4638 -1.4042
  676TIP3    H223520   5.313   0.044   5.782 -0.0973  0.4269  0.2184
  677TIP3   OH223521   4.392   0.479  16.995 -0.3165 -0.3613  0.0159
  677TIP3    H123522   4.452   0.430  16.939 -1.2156  1.3228 -2.4755
  677TIP3    H223523   4.305   0.450  16.968 -0.7378 -0.5741  1.5476
  678TIP3   OH223524   6.603   3.587   4.862 -0.0397  0.6026  0.5250
  678TIP3    H123525   6.678   3.642   4.842  1.1359 -1.2493 -0.2522
  678TIP3    H223526   6.559   3.576   4.778 -0.3021  0.3845  0.6908
  679TIP3   OH223527   4.566   0.730   6.740 -0.2000 -0.1588  0.5056
  679TIP3    H123528   4.546   0.685   6.657  1.5105 -0.6936  0.3781
  679TIP3    H223529   4.526   0.817   6.729 -0.0733 -0.2480 -0.8415
  680TIP3   OH223530   3.445   1.949   5.453 -0.3090 -0.0646  0.9877
  680TIP3    H123531   3.415   1.875   5.506  1.4841  0.6038  2.9718
  680TIP3    H223532   3.373   2.013   5.458 -0.8289 -0.6670  1.2631
  681TIP3   OH223533   5.197   0.951   5.202  0.4078  0.0699 -0.0314
  681TIP3    H123534   5.267   0.921   5.145  1.6929  0.4388  1.3415
  681TIP3    H223535   5.175   0.874   5.256  1.4906  0.6497  1.2612
  682TIP3   OH223536   5.977   1.511   1.615  0.2397 -0.9243  0.2064
  682TIP3    H123537   5.928   1.429   1.621 -1.4872  0.0951  0.4021
  682TIP3    H223538   6.043   1.495   1.547 -1.4057 -1.7830 -1.2146
  683TIP3   OH223539   2.285   2.061   5.929 -0.4821 -0.0214  0.1025
  683TIP3    H123540   2.248   2.099   6.009 -0.8625 -0.1529 -0.0102
  683TIP3    H223541   2.380   2.066   5.942 -0.5408 -0.6194  0.8373
  684TIP3   OH223542   2.551   2.783   5.340  0.0748 -0.8685 -0.0393
  684TIP3    H123543   2.474   2.814   5.292 -1.8856 -3.2745  1.4467
  684TIP3    H223544   2.539   2.816   5.429  1.2480 -0.4942 -0.0108
  685TIP3   OH223545   1.305   4.126   4.465  0.6439 -0.0163 -0.4542
  685TIP3    H123546   1.226   4.076   4.483  0.6432 -0.0852 -0.6517
  685TIP3    H223547   1.375   4.074   4.504  0.3397  1.1770  1.7632
  686TIP3   OH223548   2.796   0.586  13.315 -0.2174  0.0854 -0.6292
  686TIP3    H123549   2.751   0.502  13.326  1.5918 -0.8513 -0.2721
  686TIP3    H223550   2.875   0.565  13.265  2.1082  0.9108  2.5399
  687TIP3   OH223551   1.999   5.752  13.225  0.1900  0.4697  0.5028
  687TIP3    H123552   2.024   5.671  13.181 -0.0311 -0.0596  1.3391
  687TIP3    H223553   1.956   5.804  13.157  1.8861  0.6285 -0.4832
  688TIP3   OH223554   3.686   3.989   1.502 -0.4264 -0.0203  0.1790
  688TIP3    H123555   3.664   3.920   1.564 -0.5055 -0.0554  0.1117
  688TIP3    H223556   3.601   4.022   1.471 -0.4556  1.8281  2.1209
  689TIP3   OH223557   1.783   0.246   5.582  0.0486  0.6179  0.8529
  689TIP3    H123558   1.693   0.228   5.611 -0.2427 -1.7593 -1.3584
  689TIP3    H223559   1.820   0.160   5.564  3.1016  1.4964  2.4955
  690TIP3   OH223560   3.323   4.895  11.128  0.0508  0.2829  0.5004
  690TIP3    H123561   3.317   4.865  11.037 -0.4883 -1.3987  1.0900
  690TIP3    H223562   3.400   4.851  11.163  0.3029  0.9915  0.8456
  691TIP3   OH223563   3.562   3.093   3.600  0.2359 -0.0505  0.7156
  691TIP3    H123564   3.600   3.024   3.654 -0.2197  0.4557  1.7045
  691TIP3    H223565   3.486   3.123   3.650  0.8082  1.6061  0.6431
  692TIP3   OH223566   1.085   6.361  14.915 -0.0721  0.3802 -0.5016
  692TIP3    H123567   1.158   6.349  14.853  1.1730  0.8008  0.8596
  692TIP3    H223568   1.121   6.334  14.999 -1.6281  0.2359  0.1212
  693TIP3   OH223569   0.557   0.004  15.904  0.0029  0.1359  0.1623
  693TIP3    H123570   0.500   0.052  15.964  3.5238  1.8751  2.3388
  693TIP3    H223571   0.592   0.071  15.845 -0.3598 -0.9313 -1.3072
  694TIP3   OH223572   0.993   2.306  12.177  0.5129  0.3476  0.0933
  694TIP3    H123573   0.938   2.357  12.117  0.8308 -0.9463 -1.3528
  694TIP3    H223574   1.040   2.245  12.120  1.1488 -0.6380  1.6286
  695TIP3   OH223575   2.896   4.600   0.618 -0.8249 -0.0868 -0.6591
  695TIP3    H123576   2.909   4.688   0.584  1.7691 -0.1791  0.0126
  695TIP3    H223577   2.906   4.543   0.541  2.3549 -0.0944 -0.3202
  696TIP3   OH223578   0.150   5.807  13.558 -0.0302  0.4202 -0.0347
  696TIP3    H123579   0.060   5.788  13.530 -0.0566  1.0583 -0.3773
  696TIP3    H223580   0.199   5.818  13.477 -0.4789  4.0445  0.1378
  697TIP3   OH223581   5.547   5.167   0.460 -0.1807  0.1174  0.0537
  697TIP3    H123582   5.607   5.181   0.387 -0.0191  1.1742  0.3839
  697TIP3    H223583   5.470   5.125   0.421 -0.4160  1.3706 -0.8459
  698TIP3   OH223584   0.076   4.623   4.459  0.9716  0.3324 -0.0009
  698TIP3    H123585   0.045   4.709   4.488 -1.0128 -0.2771 -0.2654
  698TIP3    H223586   0.166   4.618   4.492  0.2413  1.4586  2.2575
  699TIP3   OH223587   3.252   2.890   3.150  0.1788  0.9168  0.2536
  699TIP3    H123588   3.256   2.983   3.125 -1.1515  0.6980 -0.8346
  699TIP3    H223589   3.304   2.885   3.230  0.8225  2.4825 -0.0374
  700TIP3   OH223590   1.795   3.622  14.861 -0.2584  0.0582  0.6796
  700TIP3    H123591   1.833   3.705  14.891 -0.2045 -0.7892  3.1036
  700TIP3    H223592   1.849   3.597  14.786  0.8423  1.3442  1.0089
  701TIP3   OH223593   4.518   0.270   1.095  0.5565 -0.3354 -0.3847
  701TIP3    H123594   4.577   0.240   1.164  0.1254 -2.3433 -0.8401
  701TIP3    H223595   4.551   0.229   1.015 -0.4730 -0.1504 -0.9218
  702TIP3   OH223596   5.290   6.814  11.883  0.7727 -0.0214  0.0200
  702TIP3    H123597   5.321   6.901  11.855  0.4054 -0.3868 -1.5906
  702TIP3    H223598   5.221   6.833  11.947 -1.0236  0.9657 -2.1426
  703TIP3   OH223599   5.117   1.805  14.829 -0.2406  0.5046 -0.8239
  703TIP3    H123600   5.138   1.712  14.824 -0.3508  0.4540 -0.2593
  703TIP3    H223601   5.023   1.810  14.815 -0.4628  0.4108  0.5791
  704TIP3   OH223602   1.373   6.658  13.614 -0.1028 -0.3227  0.4291
  704TIP3    H123603   1.421   6.593  13.666  0.1997 -0.8251 -0.4651
  704TIP3    H223604   1.369   6.735  13.670  3.1004  0.2422 -0.0458
  705TIP3   OH223605   3.616   6.382  10.390 -0.4746  0.6618  0.1983
  705TIP3    H123606   3.566   6.404  10.469  1.7057  0.2984  1.7348
  705TIP3    H223607   3.613   6.287  10.385  0.1300  0.6270  0.3754
  706TIP3   OH223608   4.786   1.624   2.905  0.2230 -0.2106 -0.2538
  706TIP3    H123609   4.771   1.535   2.935 -0.6391  0.0322  0.0337
  706TIP3    H223610   4.734   1.632   2.825 -0.2835  0.2678  0.1221
  707TIP3   OH223611   0.259   5.194  14.738  0.0510  0.2470 -0.5647
  707TIP3    H123612   0.183   5.142  14.763  1.0662 -0.8217  0.3977
  707TIP3    H223613   0.289   5.155  14.655  1.3835 -1.3810  0.6404
  708TIP3   OH223614   2.096   5.103   3.539 -0.0511 -0.5515 -0.5562
  708TIP3    H123615   2.154   5.042   3.494  1.3278  0.5063 -0.2445
  708TIP3    H223616   2.149   5.139   3.610 -1.6676 -0.9361  0.8845
  709TIP3   OH223617   5.050   3.880   3.513 -0.2158 -0.2972  0.1324
  709TIP3    H123618   4.990   3.807   3.514 -1.4443  0.6777 -1.0891
  709TIP3    H223619   5.000   3.953   3.550  0.0674  0.6262 -1.2848
  710TIP3   OH223620   0.081   4.655  16.523 -0.1264  0.2297  0.2505
  710TIP3    H123621   0.061   4.748  16.525 -0.6983  0.1229 -0.2157
  710TIP3    H223622   0.143   4.641  16.595 -0.1431  0.9404  0.3999
  711TIP3   OH223623   3.868   4.917  14.610  0.5180 -0.0180  0.1488
  711TIP3    H123624   3.776   4.901  14.630  0.6901 -1.1737  0.0637
  711TIP3    H223625   3.908   4.936  14.695  0.2203  0.3621  0.2003
  712TIP3   OH223626   2.958   0.076   6.638 -0.3139 -0.1760 -0.0666
  712TIP3    H123627   2.870   0.084   6.675 -0.8835  1.7059 -1.7400
  712TIP3    H223628   3.016   0.115   6.704 -0.8866 -0.1335  0.4165
  713TIP3   OH223629   0.540   5.289  12.199 -0.0241 -0.4162  0.1093
  713TIP3    H123630   0.626   5.307  12.237 -1.0601 -0.8438  2.7641
  713TIP3    H223631   0.509   5.212  12.247 -2.6589  0.8499  0.5245
  714TIP3   OH223632   6.263   5.560  14.446  0.0148  0.4511  0.6067
  714TIP3    H123633   6.200   5.626  14.419 -0.0451  1.0457  2.1934
  714TIP3    H223634   6.259   5.560  14.541  2.4481  0.5391  0.7353
  715TIP3   OH223635   4.363   0.325   5.821  0.1440 -0.1348 -0.3532
  715TIP3    H123636   4.412   0.293   5.745  1.9033 -0.5786  0.9395
  715TIP3    H223637   4.276   0.286   5.811  0.5113 -0.6323 -1.8289
  716TIP3   OH223638   0.299   0.353   2.728  0.2699 -0.4950 -0.3500
  716TIP3    H123639   0.231   0.361   2.661  1.3510  0.5267 -1.3600
  716TIP3    H223640   0.363   0.292   2.690 -0.6459 -2.4151  1.1003
  717TIP3   OH223641   0.473   0.417   5.098  0.3290  0.6326 -0.4616
  717TIP3    H123642   0.474   0.497   5.046 -1.3890  1.9288  1.4175
  717TIP3    H223643   0.397   0.369   5.067 -0.7388  1.4403  0.8484
  718TIP3   OH223644   4.633   3.797   2.699  0.4707 -0.0956 -0.8278
  718TIP3    H123645   4.582   3.827   2.774  1.9750  0.7327 -0.1097
  718TIP3    H223646   4.567   3.764   2.638 -0.6750 -2.0886  1.4049
  719TIP3   OH223647   6.218   3.820   3.435  0.4881 -0.1541  0.8420
  719TIP3    H123648   6.158   3.746   3.437  1.1662 -0.7141  0.9507
  719TIP3    H223649   6.304   3.781   3.454  0.6312  0.8905  2.3958
  720TIP3   OH223650   6.540   6.204   0.443 -0.2674 -0.2802  0.1470
  720TIP3    H123651   6.586   6.256   0.378 -0.0200 -0.6282  0.0404
  720TIP3    H223652   6.449   6.236   0.441 -0.0519  0.3515  0.3017
  721TIP3   OH223653   3.776   2.199  11.370  0.1634 -0.0288  0.4878
  721TIP3    H123654   3.732   2.259  11.310 -1.2262  0.7146  2.1815
  721TIP3    H223655   3.796   2.253  11.447  0.2557 -1.3817  1.4397
  722TIP3   OH223656   3.893   6.223   0.647  0.0802  0.2109  0.0145
  722TIP3    H123657   3.819   6.253   0.594  0.3437  0.6731 -0.0927
  722TIP3    H223658   3.895   6.283   0.722  0.0195 -0.1286  0.2871
  723TIP3   OH223659   4.346   3.171  13.264  0.0735 -1.0025  0.3236
  723TIP3    H123660   4.264   3.220  13.250  0.4267 -0.3772  0.4100
  723TIP3    H223661   4.414   3.227  13.227  0.2255 -2.5505 -1.8361
  724TIP3   OH223662   2.642   1.533   1.146  0.2383  0.2518  0.6827
  724TIP3    H123663   2.720   1.514   1.094  0.1038  0.9436  0.2186
  724TIP3    H223664   2.581   1.461   1.127  0.9652 -0.5894  1.4809
  725TIP3   OH223665   5.080   6.467   4.551 -0.6552  0.6612  0.9824
  725TIP3    H123666   5.069   6.373   4.569  0.4073 -0.1953 -2.5013
  725TIP3    H223667   4.994   6.496   4.520  0.0128 -0.1456 -1.7721
  726TIP3   OH223668   5.706   6.335   1.990 -0.3217 -0.3082  0.7445
  726TIP3    H123669   5.734   6.277   1.920  1.1923 -0.2386  1.2761
  726TIP3    H223670   5.767   6.317   2.062  0.4636  2.2329  0.7629
  727TIP3   OH223671   1.350   5.006   4.971 -0.1690  0.5173 -0.4105
  727TIP3    H123672   1.359   5.053   5.054 -3.2712  1.7890 -0.7356
  727TIP3    H223673   1.378   4.916   4.990  2.5225  1.6068  1.0782
  728TIP3   OH223674   5.549   0.758  12.853  0.3401 -0.0830  0.0870
  728TIP3    H123675   5.469   0.736  12.805  1.0845 -0.8173 -0.8506
  728TIP3    H223676   5.620   0.736  12.792  1.3193 -1.3485  1.6385
  729TIP3   OH223677   6.335   0.631  16.861  0.5364  0.3351  0.2653
  729TIP3    H123678   6.295   0.617  16.775 -0.1387 -2.6814  1.0035
  729TIP3    H223679   6.429   0.620  16.847  0.3964 -0.4848 -0.0265
  730TIP3   OH223680   0.947   0.723   0.749  0.1150 -0.3584 -0.0453
  730TIP3    H123681   0.928   0.677   0.831  0.9798  0.6083  0.7249
  730TIP3    H223682   0.932   0.816   0.769  0.1779 -0.1301 -1.0237
  731TIP3   OH223683   4.055   5.370  16.705 -0.1067 -0.3782 -0.1907
  731TIP3    H123684   4.091   5.412  16.784  0.7847 -2.1286  0.3555
  731TIP3    H223685   3.987   5.311  16.739 -0.9741  0.1898 -0.9100
  732TIP3   OH223686   5.014   5.457  14.252 -0.5455  0.3242 -0.2754
  732TIP3    H123687   4.922   5.480  14.236 -0.8117  0.0814  0.8330
  732TIP3    H223688   5.010   5.377  14.305  0.2669  1.0081  0.8512
  733TIP3   OH223689   0.722   0.792   5.911 -0.3455 -0.3147 -0.2271
  733TIP3    H123690   0.735   0.700   5.934  0.7359 -0.1542 -0.1665
  733TIP3    H223691   0.713   0.837   5.994 -2.7542 -0.6102 -0.2890
  734TIP3   OH223692   2.510   2.949  11.255  0.0905  0.3875  0.1652
  734TIP3    H123693   2.573   2.886  11.220 -0.6068 -0.1974 -0.0447
  734TIP3    H223694   2.528   3.030  11.208  0.9809  0.3465  0.4200
  735TIP3   OH223695   4.741   3.890  11.552  0.7308  0.4102 -0.3760
  735TIP3    H123696   4.687   3.821  11.590  0.1969  1.6350  1.1544
  735TIP3    H223697   4.802   3.844  11.494 -0.4036 -1.2102 -0.3208
  736TIP3   OH223698   1.649   6.431  14.375 -1.1466 -0.1271  0.0717
  736TIP3    H123699   1.676   6.498  14.437 -0.9152  0.1761 -0.3565
  736TIP3    H223700   1.707   6.357  14.392 -0.6728  0.1792 -0.2019
  737TIP3   OH223701   4.576   3.602   2.074  0.4157 -0.6067  0.0923
  737TIP3    H123702   4.624   3.522   2.097  0.2093 -1.0858 -1.1298
  737TIP3    H223703   4.544   3.586   1.986 -1.4798 -0.0567  0.6514
  738TIP3   OH223704   0.418   4.046  11.023  0.3609 -0.6088  0.0076
  738TIP3    H123705   0.326   4.020  11.030 -0.0892  0.9302  0.0124
  738TIP3    H223706   0.426   4.083  10.934  0.8458 -0.2701  0.1876
  739TIP3   OH223707   3.554   5.027  15.593  0.3119 -0.9508 -0.0486
  739TIP3    H123708   3.606   5.098  15.630  0.1719 -1.8286  1.9461
  739TIP3    H223709   3.502   5.068  15.524  1.5743  0.4972 -0.1506
  740TIP3   OH223710   6.099   4.485  15.133 -0.4479 -0.1958 -0.1138
  740TIP3    H123711   6.142   4.560  15.092  0.4500  0.8908  2.6773
  740TIP3    H223712   6.169   4.419  15.143 -0.4632 -0.1457  0.3575
  741TIP3   OH223713   0.923   1.401   0.964 -0.4897  0.0966  0.0140
  741TIP3    H123714   0.952   1.480   1.010  0.7106 -0.8243  0.8592
  741TIP3    H223715   0.876   1.350   1.030 -1.2791  0.1045 -0.5339
  742TIP3   OH223716   0.150   3.206  11.038 -0.0773  0.0570  0.0699
  742TIP3    H123717   0.128   3.153  10.962 -0.6602  1.8853 -1.0812
  742TIP3    H223718   0.108   3.163  11.111 -0.5906 -1.0188 -0.8495
  743TIP3   OH223719   6.547   2.031  15.532  0.0056 -0.0027 -0.0958
  743TIP3    H123720   6.526   1.967  15.600  0.4748  0.5122  0.5380
  743TIP3    H223721   6.631   2.003  15.497  0.2619  0.3308  0.2557
  744TIP3   OH223722   0.620   6.433  13.450 -0.7404 -0.8071 -0.0206
  744TIP3    H123723   0.659   6.348  13.429 -2.7038 -1.6737 -0.2743
  744TIP3    H223724   0.615   6.435  13.545  0.5918 -0.3657  0.0518
  745TIP3   OH223725   3.212   4.836  12.906  0.0672 -0.2501 -0.2486
  745TIP3    H123726   3.287   4.779  12.925  0.5521  0.6334  0.4996
  745TIP3    H223727   3.148   4.777  12.865  1.4096 -0.8780 -1.5103
  746TIP3   OH223728   3.555   3.086  14.754  0.8436  0.4399 -0.3909
  746TIP3    H123729   3.466   3.107  14.724  0.4979  1.6226  1.4142
  746TIP3    H223730   3.543   3.020  14.822  1.3606  0.6209 -0.1222
  747TIP3   OH223731   1.782   3.022   6.003 -0.8997  0.4036  0.1267
  747TIP3    H123732   1.737   2.939   6.019 -0.3380 -0.1302 -1.0172
  747TIP3    H223733   1.793   3.061   6.090 -0.2505 -1.2053  0.7759
  748TIP3   OH223734   0.306   4.561   1.766 -0.3077 -0.4032  0.4711
  748TIP3    H123735   0.253   4.485   1.744  0.1077 -1.1127  1.8789
  748TIP3    H223736   0.389   4.545   1.721 -0.7317 -0.0618 -0.4375
  749TIP3   OH223737   6.046   6.358   5.354 -0.1740  0.1293 -0.4942
  749TIP3    H123738   6.087   6.320   5.277  0.0874 -2.4806  0.8556
  749TIP3    H223739   5.959   6.317   5.358 -0.9203  1.6730 -0.4340
  750TIP3   OH223740   4.305   5.583   3.270  0.1669 -0.1207 -0.6875
  750TIP3    H123741   4.274   5.516   3.210  1.4080 -1.2362 -0.1171
  750TIP3    H223742   4.226   5.623   3.305 -0.6479 -2.6480  0.4815
  751TIP3   OH223743   5.493   0.107  12.104  0.0069  0.3963  0.0806
  751TIP3    H123744   5.578   0.145  12.126  0.0010  0.1483  0.5511
  751TIP3    H223745   5.452   0.090  12.189 -0.0073 -0.6148 -0.1172
  752TIP3   OH223746   4.476   5.788   5.212  0.0005 -0.1651 -0.3262
  752TIP3    H123747   4.454   5.881   5.204 -0.4036 -0.1589  0.8071
  752TIP3    H223748   4.565   5.786   5.248  0.0052 -0.2260 -0.3407
  753TIP3   OH223749   3.812   1.063   3.665 -0.0633 -0.0697 -0.0424
  753TIP3    H123750   3.789   1.047   3.574  1.5014 -1.4167 -0.2221
  753TIP3    H223751   3.755   1.004   3.715  1.2442 -1.6319 -0.3491
  754TIP3   OH223752   0.685   6.297  16.973 -0.2945 -0.0962  0.2812
  754TIP3    H123753   0.670   6.323  17.064  0.7436  1.2105  0.0968
  754TIP3    H223754   0.774   6.260  16.973 -1.0467 -1.9549  0.1680
  755TIP3   OH223755   1.986   1.029   2.140 -0.0461 -0.0926 -0.4561
  755TIP3    H123756   2.051   1.084   2.184 -0.6301 -0.9131  1.4683
  755TIP3    H223757   1.971   1.073   2.056 -0.0605  2.3774  0.7832
  756TIP3   OH223758   4.243   4.910  15.176  0.0276 -0.0564  0.2472
  756TIP3    H123759   4.209   4.841  15.119 -2.1987 -0.3658  1.8503
  756TIP3    H223760   4.173   4.976  15.178  0.0753 -0.0121  2.4874
  757TIP3   OH223761   4.455   3.798  11.072  0.5446  0.5265  0.2172
  757TIP3    H123762   4.494   3.864  11.015  2.0319 -0.0150  0.5909
  757TIP3    H223763   4.488   3.714  11.038  1.0796  0.1692  1.5731
  758TIP3   OH223764   5.032   5.498   1.881 -0.6651 -0.1748 -0.4495
  758TIP3    H123765   5.017   5.558   1.953 -1.3560  0.8170 -1.3978
  758TIP3    H223766   4.987   5.538   1.806  1.0313 -0.5715 -1.7227
  759TIP3   OH223767   3.991   1.202  12.969 -0.0532  0.4940 -0.3121
  759TIP3    H123768   4.002   1.278  13.026  0.4782 -1.0586  1.7092
  759TIP3    H223769   3.901   1.173  12.986  0.1954 -0.1314 -0.0642
  760TIP3   OH223770   2.421   5.706  15.877 -0.3471 -0.4760  0.0496
  760TIP3    H123771   2.426   5.612  15.894  2.7279 -0.5223 -0.8939
  760TIP3    H223772   2.367   5.714  15.799 -1.9743 -1.3122  1.0639
  761TIP3   OH223773   6.028   6.055   1.849  0.1720  0.0868 -0.0332
  761TIP3    H123774   6.106   6.075   1.797 -0.8559  3.2020 -0.4688
  761TIP3    H223775   5.986   6.140   1.863 -2.0070 -1.2714  2.0333
  762TIP3   OH223776   4.004   4.556  14.869 -0.4127  0.3383 -0.0096
  762TIP3    H123777   4.014   4.635  14.922 -1.0525 -0.2336  0.9699
  762TIP3    H223778   3.971   4.587  14.785 -3.8983  0.8272  1.4464
  763TIP3   OH223779   5.111   2.487   1.246 -0.1134 -0.5180  0.2976
  763TIP3    H123780   5.176   2.551   1.216 -0.7966  0.3151  0.5827
  763TIP3    H223781   5.076   2.450   1.165 -2.7551  2.5347 -0.0593
  764TIP3   OH223782   3.852   4.019   2.020  0.5782  0.0130 -0.6014
  764TIP3    H123783   3.845   4.078   2.095 -0.6311 -1.8606  0.8138
  764TIP3    H223784   3.944   3.993   2.018  0.8949  1.0960 -0.5962
  765TIP3   OH223785   2.393   0.106  16.556 -0.4610  0.5560 -0.5375
  765TIP3    H123786   2.331   0.065  16.615 -1.2973  2.8193  0.2153
  765TIP3    H223787   2.372   0.199  16.560  3.0810  1.4277 -0.1165
  766TIP3   OH223788   1.277   3.717  12.435  0.3948  0.4352  0.1961
  766TIP3    H123789   1.290   3.629  12.400 -1.5265  0.2353 -0.0673
  766TIP3    H223790   1.270   3.704  12.530 -2.4717 -0.0453 -0.0519
  767TIP3   OH223791   3.900   6.531  16.995  0.8241  0.1193  0.3851
  767TIP3    H123792   3.882   6.619  17.029  0.7766  0.0415  0.5656
  767TIP3    H223793   3.852   6.526  16.913 -1.0753 -0.5511  1.5110
  768TIP3   OH223794   4.198   2.198  16.080 -0.1552 -0.0946  0.4062
  768TIP3    H123795   4.155   2.114  16.092  0.0169 -0.1733  0.4705
  768TIP3    H223796   4.277   2.178  16.029 -1.0675  0.2814 -1.1919
  769TIP3   OH223797   4.997   3.123  14.692 -0.0610 -0.0064 -0.0137
  769TIP3    H123798   5.057   3.051  14.675 -0.6284 -1.1451  2.5636
  769TIP3    H223799   5.036   3.198  14.647  0.6864 -1.8112 -2.4926
  770TIP3   OH223800   0.758   2.935   5.061  0.0926 -0.0300  0.2109
  770TIP3    H123801   0.777   2.947   5.154  0.4143  1.0482  0.0092
  770TIP3    H223802   0.803   3.007   5.017 -2.0454  0.9061 -0.5399
  771TIP3   OH223803   6.026   1.098   1.630 -0.2988  0.5502  0.4355
  771TIP3    H123804   5.950   1.055   1.671  1.0778 -0.0874  2.3684
  771TIP3    H223805   6.007   1.094   1.536 -3.1108  1.2565  0.9187
  772TIP3   OH223806   4.573   4.231   0.610  0.1907 -0.3219  0.1287
  772TIP3    H123807   4.595   4.148   0.567  1.7186  0.0865  0.0655
  772TIP3    H223808   4.485   4.252   0.579 -0.6384 -2.4445  0.9853
  773TIP3   OH223809   0.022   6.435   2.595 -0.3226 -0.1890 -0.2676
  773TIP3    H123810   0.045   6.358   2.543 -0.5512 -0.7216  0.4133
  773TIP3    H223811  -0.031   6.489   2.536  0.0338 -0.4471 -0.8202
  774TIP3   OH223812   6.137   4.186  10.032 -0.1884  0.1733  0.5629
  774TIP3    H123813   6.084   4.111  10.060 -0.3468  0.0853  0.0271
  774TIP3    H223814   6.074   4.253  10.007 -0.0502 -0.0619 -0.4239
  775TIP3   OH223815   3.315   2.514   6.802 -0.4847 -0.1187  0.0339
  775TIP3    H123816   3.378   2.582   6.824 -1.0780  0.1261  1.0065
  775TIP3    H223817   3.338   2.488   6.713  0.9718 -0.0313  0.3825
  776TIP3   OH223818   3.237   6.143   5.267  0.0327 -0.7203  0.1293
  776TIP3    H123819   3.260   6.052   5.253 -1.0705 -0.9853  0.0036
  776TIP3    H223820   3.144   6.142   5.289 -0.6171  0.5788 -2.3458
  777TIP3   OH223821   1.557   5.346   4.298 -0.2436  0.1463  0.0693
  777TIP3    H123822   1.524   5.285   4.233  1.3260  0.2173 -0.8125
  777TIP3    H223823   1.652   5.345   4.287  0.0065  0.6661  1.9040
  778TIP3   OH223824   5.170   6.178  16.351  0.1257 -0.1014 -0.3854
  778TIP3    H123825   5.115   6.105  16.324 -0.1833  0.0742 -0.2306
  778TIP3    H223826   5.250   6.169  16.298 -0.5029  0.2878 -1.4128
  779TIP3   OH223827   3.762   2.755   6.719  0.1106 -0.0485 -0.3420
  779TIP3    H123828   3.797   2.810   6.789 -1.8993  0.6944  0.1147
  779TIP3    H223829   3.758   2.812   6.642 -2.3905  0.6516  0.2414
  780TIP3   OH223830   3.853   6.649   4.001  0.4921  0.0683  0.0591
  780TIP3    H123831   3.789   6.582   4.021 -0.1206  1.3071  2.4972
  780TIP3    H223832   3.932   6.601   3.976 -0.4999 -1.5051 -0.0674
  781TIP3   OH223833   4.152   5.732  14.044  0.8564  0.4415 -0.5512
  781TIP3    H123834   4.165   5.660  13.981  0.2978 -1.3187  1.2962
  781TIP3    H223835   4.148   5.689  14.129 -0.4669  2.5902  0.5179
  782TIP3   OH223836   1.930   4.976  17.022 -0.1911 -0.3121 -0.4403
  782TIP3    H123837   1.939   5.056  16.970 -1.9073  0.1329 -0.0844
  782TIP3    H223838   2.008   4.925  17.001  2.7140  2.8997  1.9030
  783TIP3   OH223839   1.406   3.320  16.420 -0.4862 -0.1542 -0.3651
  783TIP3    H123840   1.412   3.415  16.431 -3.5875  0.1476 -0.7279
  783TIP3    H223841   1.366   3.308  16.334  0.8759 -1.8369 -0.7959
  784TIP3   OH223842   3.326   6.700  12.000 -0.2634  0.7745  0.1724
  784TIP3    H123843   3.281   6.769  12.048 -0.9890 -0.2547  0.9909
  784TIP3    H223844   3.255   6.646  11.964  0.2889  0.6700 -0.8003
  785TIP3   OH223845   6.010   4.768   1.051  0.3183  0.5723 -0.1473
  785TIP3    H123846   6.099   4.775   1.085 -0.1031 -0.9626  1.3614
  785TIP3    H223847   5.955   4.765   1.129 -1.0960  1.9677 -1.0718
  786TIP3   OH223848   3.268   1.661  13.782 -0.2922  0.3134  0.2847
  786TIP3    H123849   3.303   1.585  13.829  1.2718  1.3030  0.7663
  786TIP3    H223850   3.173   1.651  13.788 -0.1075 -1.3848  0.6956
  787TIP3   OH223851   4.250   3.493  12.981  0.5037  0.0058  0.0407
  787TIP3    H123852   4.220   3.457  12.898 -1.1425 -1.7937  1.3504
  787TIP3    H223853   4.325   3.548  12.958 -0.3835  0.1420 -2.6885
  788TIP3   OH223854   5.418   0.467  10.877  0.2830  0.1115  0.2887
  788TIP3    H123855   5.385   0.536  10.934 -1.0464  1.0910 -1.6219
  788TIP3    H223856   5.341   0.413  10.858  0.9768 -0.9600  0.4388
  789TIP3   OH223857   5.791   4.092   2.718 -0.1227 -0.1398  0.2414
  789TIP3    H123858   5.834   4.111   2.802  0.5594 -0.4849 -0.0189
  789TIP3    H223859   5.764   4.177   2.685  0.2912  0.0812  0.4594
  790TIP3   OH223860   2.223   3.767   4.310 -0.6718  0.4574  0.1956
  790TIP3    H123861   2.223   3.698   4.243  0.1921  0.1829  0.4756
  790TIP3    H223862   2.267   3.728   4.385 -0.1374  1.3294  0.3459
  791TIP3   OH223863   4.140   4.142  15.497 -0.1297 -0.1070 -0.3171
  791TIP3    H123864   4.062   4.198  15.498 -0.1835 -0.1450 -1.6288
  791TIP3    H223865   4.214   4.203  15.492 -0.1785 -0.1224 -1.4752
  792TIP3   OH223866   1.637   3.460  13.154 -0.9085  0.0426  0.3243
  792TIP3    H123867   1.643   3.536  13.212 -0.4904  0.8662 -0.7778
  792TIP3    H223868   1.550   3.424  13.170 -1.3597  1.1445  0.3893
  793TIP3   OH223869   3.262   3.918  14.952 -0.3705  0.2414  0.1242
  793TIP3    H123870   3.319   3.845  14.977 -1.1907 -0.3853  0.1920
  793TIP3    H223871   3.227   3.951  15.034 -1.8717 -0.8358 -0.0669
  794TIP3   OH223872   3.899   4.633  10.315  0.9764 -0.5594  0.2125
  794TIP3    H123873   3.878   4.591  10.399 -1.4373  0.7008  0.2925
  794TIP3    H223874   3.992   4.616  10.302  1.6156  0.0281  3.6287
  795TIP3   OH223875   5.234   2.388  12.944 -0.2139  0.2012  0.3828
  795TIP3    H123876   5.214   2.296  12.926 -1.1097  0.1765  1.5073
  795TIP3    H223877   5.227   2.430  12.858  2.1349 -1.0961 -0.5090
  796TIP3   OH223878   4.526   0.448   6.173  0.2467  0.4377 -1.0883
  796TIP3    H123879   4.503   0.364   6.134 -0.1292 -0.5525  1.1987
  796TIP3    H223880   4.619   0.440   6.195  0.8046  1.4792 -2.8970
  797TIP3   OH223881   1.883   2.956   0.087  0.0058  0.1236  0.0111
  797TIP3    H123882   1.966   2.942   0.041  0.5162 -1.1367  1.2612
  797TIP3    H223883   1.825   2.994   0.021  0.7953 -1.3916 -1.6075
  798TIP3   OH223884   6.306   2.031  13.950  0.0348 -0.0382  0.2982
  798TIP3    H123885   6.289   1.971  13.877  0.8375  0.2860 -0.1635
  798TIP3    H223886   6.266   2.113  13.923  1.5782  0.4963 -0.4346
  799TIP3   OH223887   3.943   2.667  16.714 -0.3168 -0.1252  0.3188
  799TIP3    H123888   3.897   2.588  16.685  2.3836 -1.2688 -0.9516
  799TIP3    H223889   3.992   2.638  16.791  0.3360  0.4336  0.1092
  800TIP3   OH223890   2.490   4.660   2.864 -0.5066  0.3463  0.3718
  800TIP3    H123891   2.465   4.632   2.776 -2.6812 -0.5818  1.2143
  800TIP3    H223892   2.535   4.584   2.901 -1.6590 -0.1448  0.8186
  801TIP3   OH223893   1.071   1.999   1.472  0.3534  0.6938  0.0641
  801TIP3    H123894   1.127   1.976   1.398  1.0456 -1.4690  1.2411
  801TIP3    H223895   1.130   2.036   1.537  0.2441 -0.4769  0.8358
  802TIP3   OH223896   2.999   3.785   4.077  0.6754 -0.2467 -0.1125
  802TIP3    H123897   2.981   3.737   3.996  1.2488  0.0119 -0.3975
  802TIP3    H223898   3.016   3.717   4.142 -1.3281 -0.5026  0.1708
  803TIP3   OH223899   5.784   5.994  10.833 -0.0996  0.0787  0.1981
  803TIP3    H123900   5.748   5.906  10.825  0.0619 -0.0656  0.9952
  803TIP3    H223901   5.861   5.994  10.776 -0.5209 -0.0638 -0.3708
  804TIP3   OH223902   6.328   0.554   5.307 -0.3682  0.3061 -0.3840
  804TIP3    H123903   6.279   0.472   5.313 -0.4973  0.4503  0.6454
  804TIP3    H223904   6.266   0.621   5.336 -0.6836  0.9384 -2.4936
  805TIP3   OH223905   0.219   1.904   2.153 -0.1759  0.4239  0.6016
  805TIP3    H123906   0.131   1.930   2.128 -0.4667 -2.0091 -0.9847
  805TIP3    H223907   0.267   1.987   2.162 -2.0486  1.6618 -0.5940
  806TIP3   OH223908   4.909   4.898  14.841 -0.1173  0.3488 -0.1302
  806TIP3    H123909   4.833   4.842  14.856 -0.2789  0.8074  0.8225
  806TIP3    H223910   4.983   4.849  14.877 -0.1455  0.4285  0.0347
  807TIP3   OH223911   1.295   0.670   0.572 -0.4163  0.4713 -0.2598
  807TIP3    H123912   1.360   0.637   0.634 -0.6448  0.7257  0.1189
  807TIP3    H223913   1.238   0.596   0.553  0.0331  0.2242 -0.6597
  808TIP3   OH223914   1.041   5.803   4.946  0.4476  0.2923 -0.2721
  808TIP3    H123915   1.020   5.728   4.889  0.4258  0.0604  0.0411
  808TIP3    H223916   1.096   5.766   5.014 -0.0802  0.4367  0.2366
  809TIP3   OH223917   2.777   4.063   5.391  0.4416  0.0575 -0.0335
  809TIP3    H123918   2.854   4.070   5.447  1.1905  0.3761 -1.0915
  809TIP3    H223919   2.710   4.023   5.447  0.8226  1.4269  1.4415
  810TIP3   OH223920   1.643   0.850   1.805 -0.3870 -0.3896  0.2551
  810TIP3    H123921   1.709   0.900   1.758  0.2434 -1.3816  0.0646
  810TIP3    H223922   1.672   0.850   1.896  0.0240 -1.0332  0.1318
  811TIP3   OH223923   0.833   5.003   5.822  0.8014 -0.1468  0.2877
  811TIP3    H123924   0.853   5.037   5.909  1.3190  0.9779 -0.2638
  811TIP3    H223925   0.871   4.915   5.822 -1.6361 -1.2746  2.1506
  812TIP3   OH223926   5.775   1.057   5.106 -0.0979 -0.3687  0.2001
  812TIP3    H123927   5.726   1.044   5.187  0.4353  0.6522  0.6954
  812TIP3    H223928   5.866   1.067   5.134  0.2605 -1.2180 -0.6328
  813TIP3   OH223929   5.482   0.354  13.888  0.2643 -0.5777 -0.3765
  813TIP3    H123930   5.522   0.334  13.803  0.9234 -0.0131 -0.2036
  813TIP3    H223931   5.455   0.270  13.923  1.0657 -0.9317 -0.6117
  814TIP3   OH223932   6.108   2.848  15.107  0.7346  0.4567 -0.1898
  814TIP3    H123933   6.147   2.769  15.146  1.5968  1.3768  0.8749
  814TIP3    H223934   6.184   2.899  15.077  0.1563  0.6333 -1.3524
  815TIP3   OH223935   3.046   5.795   2.911 -0.1513 -0.1494 -0.4123
  815TIP3    H123936   3.092   5.740   2.848  0.3189  0.0269 -0.2179
  815TIP3    H223937   2.992   5.733   2.960  0.2393 -0.4145 -0.3146
  816TIP3   OH223938   1.508   4.329  13.404 -0.1784 -0.5745  0.3302
  816TIP3    H123939   1.471   4.280  13.330  0.0525 -0.6543  0.2656
  816TIP3    H223940   1.602   4.331  13.386 -0.0501 -1.1250  0.9315
  817TIP3   OH223941   0.627   2.459   6.069  0.1259 -0.4814  0.4368
  817TIP3    H123942   0.633   2.545   6.026  0.0567 -0.1932  0.9962
  817TIP3    H223943   0.597   2.400   6.000  0.7666 -0.1790 -0.1158
  818TIP3   OH223944   5.546   3.210  13.671 -0.4970  0.3701 -0.1043
  818TIP3    H123945   5.517   3.195  13.761  0.2781 -0.5358  0.0104
  818TIP3    H223946   5.532   3.126  13.628  1.4059  0.0648 -0.1848
  819TIP3   OH223947   6.540   4.058   4.520 -0.1152  0.5851 -0.8190
  819TIP3    H123948   6.479   4.131   4.508  0.1567  0.7749 -1.0407
  819TIP3    H223949   6.485   3.980   4.514 -0.6221  0.7991  0.6760
  820TIP3   OH223950   4.102   4.966  10.618 -0.7126 -0.3546 -1.3071
  820TIP3    H123951   4.086   4.872  10.604 -0.1037 -0.1785 -3.3233
  820TIP3    H223952   4.025   5.009  10.580 -1.1682 -0.0367 -0.0506
  821TIP3   OH223953   5.221   1.051  16.807  0.0443 -0.3951  0.2341
  821TIP3    H123954   5.278   1.012  16.874 -0.3185  0.9253  1.3296
  821TIP3    H223955   5.144   1.081  16.856 -0.4034  0.2163 -0.8407
  822TIP3   OH223956   3.911   1.681  15.201 -0.0871  0.3666  0.5549
  822TIP3    H123957   3.930   1.626  15.277  1.1323 -0.8145 -0.5547
  822TIP3    H223958   3.935   1.626  15.126 -2.5125  1.0161 -0.7455
  823TIP3   OH223959   4.772   0.763  13.368 -0.0145  0.0034  0.2945
  823TIP3    H123960   4.818   0.684  13.340 -0.2560 -0.0410  0.0265
  823TIP3    H223961   4.841   0.819  13.403  0.1766 -0.2708  0.3596
  824TIP3   OH223962   4.673   2.392   0.462 -0.0862 -0.5722  0.0279
  824TIP3    H123963   4.735   2.465   0.459  2.3754 -2.5631  0.2201
  824TIP3    H223964   4.588   2.433   0.481  0.9371  2.3544 -1.3435
  825TIP3   OH223965   4.746   0.186  12.399  0.4336 -0.3374  0.5585
  825TIP3    H123966   4.672   0.126  12.404  0.0631  0.0982  0.2902
  825TIP3    H223967   4.822   0.133  12.424  0.1908 -1.0680 -0.2395
  826TIP3   OH223968   0.361   4.952  11.893  0.1718  0.6439 -0.3822
  826TIP3    H123969   0.392   4.862  11.902 -0.3769  0.4449 -0.4773
  826TIP3    H223970   0.429   4.995  11.840 -0.8340 -0.4041 -2.6182
  827TIP3   OH223971   6.465   4.513  14.344  0.5226 -0.1980 -0.2289
  827TIP3    H123972   6.543   4.564  14.321  0.2505 -0.2457 -1.2472
  827TIP3    H223973   6.494   4.457  14.416  0.9438  1.0864  0.6251
  828TIP3   OH223974   4.598   1.253  11.134 -0.3561  0.2522  0.1538
  828TIP3    H123975   4.670   1.201  11.099  2.0348  3.2589  0.4204
  828TIP3    H223976   4.534   1.257  11.062  1.1300  0.1302 -1.1892
  829TIP3   OH223977   3.901   5.434   2.202 -0.3086 -0.1231 -0.5806
  829TIP3    H123978   3.882   5.509   2.146 -1.3498 -0.8351 -1.2112
  829TIP3    H223979   3.969   5.464   2.261 -0.2356  1.1028 -1.2776
  830TIP3   OH223980   3.231   0.778  16.761 -0.7228  0.2595  0.0122
  830TIP3    H123981   3.223   0.746  16.851 -0.0953  1.1662  0.3988
  830TIP3    H223982   3.163   0.844  16.753 -0.4637  0.5243 -0.0204
  831TIP3   OH223983   5.435   3.316   0.908  0.1868 -0.2976  0.5543
  831TIP3    H123984   5.365   3.363   0.953 -0.8928 -0.6542 -0.7396
  831TIP3    H223985   5.515   3.352   0.946 -0.6848 -0.8636  3.0452
  832TIP3   OH223986   6.372   5.176  14.000 -0.7113 -0.6023  0.1963
  832TIP3    H123987   6.373   5.265  14.034  2.2323 -0.8414  0.8801
  832TIP3    H223988   6.326   5.125  14.067  0.2699 -0.1197  1.2482
  833TIP3   OH223989   1.336   0.859  15.777 -0.0324 -0.1969  0.2976
  833TIP3    H123990   1.353   0.936  15.832  0.5164 -1.9992  2.7501
  833TIP3    H223991   1.380   0.787  15.823  0.0445 -1.8661 -2.3046
  834TIP3   OH223992   4.905   1.113  12.700 -0.2233 -0.4561  0.2097
  834TIP3    H123993   4.856   1.036  12.730  1.9030 -1.7741  0.4278
  834TIP3    H223994   4.916   1.099  12.606  0.1270 -0.4010  0.2420
  835TIP3   OH223995   5.595   6.272   3.586 -0.1466  0.3083  0.0065
  835TIP3    H123996   5.574   6.286   3.678 -0.1782  1.1043 -0.1193
  835TIP3    H223997   5.624   6.357   3.554  0.0280  0.0006 -0.6808
  836TIP3   OH223998   3.069   0.233   1.506 -0.0570  0.0324 -0.6583
  836TIP3    H123999   3.028   0.180   1.575  1.0152  1.4129  1.0854
  836TIP3    H224000   3.091   0.170   1.438 -0.8339 -1.4243  0.3988
  837TIP3   OH224001   0.622   4.543   2.250 -0.1940 -0.1858 -0.3200
  837TIP3    H124002   0.651   4.598   2.177 -1.0805  1.1139  0.2910
  837TIP3    H224003   0.526   4.549   2.247 -0.3005 -1.9375 -0.4235
  838TIP3   OH224004   6.007   0.948   1.029 -0.6164  0.0213 -0.0973
  838TIP3    H124005   6.082   0.893   1.051 -0.1499  0.3702 -0.8081
  838TIP3    H224006   6.032   1.036   1.058  0.0853  0.5259 -2.1643
  839TIP3   OH224007   2.459   1.965  13.080  0.3533 -0.3695  0.4366
  839TIP3    H124008   2.389   1.903  13.100  0.1183 -0.2915 -0.1629
  839TIP3    H224009   2.419   2.031  13.024  1.0076 -0.5728 -0.2877
  840TIP3   OH224010   0.626   6.285   1.586 -0.2793 -0.0102 -0.4572
  840TIP3    H124011   0.720   6.296   1.570  0.1206  0.7813  2.2044
  840TIP3    H224012   0.596   6.372   1.613 -1.4234 -0.6633  0.4187
  841TIP3   OH224013   0.034   1.877  16.128 -0.4486 -0.4518  0.2771
  841TIP3    H124014  -0.045   1.830  16.155 -1.6097  0.2617 -1.7399
  841TIP3    H224015   0.013   1.910  16.041  1.0084  2.3031  0.9219
  842TIP3   OH224016   5.857   5.253  12.684 -0.3516 -0.2193 -0.3265
  842TIP3    H124017   5.841   5.170  12.639  1.4865  0.4144 -2.2446
  842TIP3    H224018   5.814   5.319  12.629  0.9128  0.4279 -0.5613
  843TIP3   OH224019   2.886   3.037  12.557 -0.2870 -0.2511  0.0004
  843TIP3    H124020   2.921   2.960  12.602 -0.4999 -0.8977 -0.9350
  843TIP3    H224021   2.963   3.092  12.540  0.1214 -1.1392 -1.0381
  844TIP3   OH224022   0.178   6.662  15.646  0.1184  0.5058 -0.1408
  844TIP3    H124023   0.269   6.631  15.645 -0.0305  0.0373  0.4005
  844TIP3    H224024   0.170   6.710  15.729 -0.8875 -1.8235  1.1591
  845TIP3   OH224025   2.564   3.743   3.784  0.0487 -0.1354  0.3966
  845TIP3    H124026   2.502   3.671   3.770 -1.0982  0.8684  0.1858
  845TIP3    H224027   2.518   3.803   3.843  0.8680  0.5695  0.3319
  846TIP3   OH224028   3.417   6.592   0.355 -0.2782  0.7972 -0.0071
  846TIP3    H124029   3.406   6.660   0.289 -2.1103  0.5556  0.0438
  846TIP3    H224030   3.418   6.510   0.306 -2.5147  0.5522  0.3181
  847TIP3   OH224031   2.672   1.315   0.438 -0.1078  0.9010  0.6709
  847TIP3    H124032   2.703   1.225   0.436 -1.0811  0.5638 -2.2060
  847TIP3    H224033   2.674   1.340   0.530 -1.0794 -2.4925  1.6712
  848TIP3   OH224034   4.545   0.901  13.435  0.2379  0.0897  0.2295
  848TIP3    H124035   4.578   0.988  13.409  0.4844  0.1217  0.6453
  848TIP3    H224036   4.616   0.841  13.414  1.0635  0.3200  2.2770
  849TIP3   OH224037   5.752   5.734   4.903 -0.3237  0.3456  0.5087
  849TIP3    H124038   5.765   5.723   4.997  0.6469  2.0852  0.6062
  849TIP3    H224039   5.718   5.823   4.893 -0.6086  0.1120 -0.7718
  850TIP3   OH224040   2.951   3.540   0.005  0.4205 -0.0190  0.2979
  850TIP3    H124041   2.859   3.565   0.011  0.3603 -0.1696 -0.0140
  850TIP3    H224042   2.950   3.447  -0.015  0.6272  0.3172 -1.3114
  851TIP3   OH224043   0.163   2.601   4.220 -0.1079  0.0485 -0.2294
  851TIP3    H124044   0.244   2.632   4.180 -0.7886  0.2454 -1.4889
  851TIP3    H224045   0.110   2.570   4.146 -0.9736 -0.5524  0.6257
  852TIP3   OH224046   6.012   3.815   1.318  0.1163  0.0930  0.4182
  852TIP3    H124047   6.075   3.800   1.248  0.3533  1.0796  0.4181
  852TIP3    H224048   5.947   3.745   1.307 -1.6763  2.1396 -2.8077
  853TIP3   OH224049   6.153   3.220   1.512  0.2166  0.1694 -0.0654
  853TIP3    H124050   6.116   3.141   1.473 -0.6408  0.3259  0.4268
  853TIP3    H224051   6.083   3.255   1.566  0.7143  1.0752 -0.0013
  854TIP3   OH224052   3.816   0.079  13.523 -0.2117 -0.2122  0.2161
  854TIP3    H124053   3.871   0.127  13.585 -1.6452  0.0486  1.3048
  854TIP3    H224054   3.860   0.091  13.438  1.8631 -0.7345  1.1920
  855TIP3   OH224055   3.197   5.574  11.590 -0.4296 -0.4349 -0.0584
  855TIP3    H124056   3.233   5.600  11.506  0.3003  1.5719  0.8299
  855TIP3    H224057   3.200   5.654  11.643 -2.0423 -1.3440  1.4657
  856TIP3   OH224058   0.821   2.803  12.463  0.8248  0.3179  0.2869
  856TIP3    H124059   0.783   2.858  12.532  0.8821 -1.5587  1.8561
  856TIP3    H224060   0.916   2.815  12.474  0.8069  0.9064 -0.2050
  857TIP3   OH224061   4.156   4.747   2.947 -0.4390  0.5545 -0.0845
  857TIP3    H124062   4.141   4.753   3.041  3.3390  1.3574  0.5576
  857TIP3    H224063   4.194   4.660   2.933 -0.3262  0.7027 -0.7583
  858TIP3   OH224064   6.784   3.445  15.502  0.5352 -0.3193 -0.2597
  858TIP3    H124065   6.868   3.408  15.477 -0.5902 -2.1354 -1.5450
  858TIP3    H224066   6.785   3.446  15.597  1.1087 -2.5902 -0.2077
  859TIP3   OH224067   6.012   2.391  16.103  0.1225  0.0917 -0.2443
  859TIP3    H124068   6.104   2.412  16.092  0.9342 -1.7964  2.2115
  859TIP3    H224069   5.976   2.464  16.153  0.0835  1.1921 -1.8548
  860TIP3   OH224070   1.751   0.246  12.105 -0.3286 -0.9143  0.1516
  860TIP3    H124071   1.760   0.168  12.159  1.3592 -1.2015 -0.5082
  860TIP3    H224072   1.773   0.217  12.016 -4.0003 -0.6668 -0.9111
  861TIP3   OH224073   2.071   0.666   4.368 -0.1784 -0.6026 -0.0340
  861TIP3    H124074   2.138   0.687   4.302 -0.6332  0.7384 -0.0939
  861TIP3    H224075   2.110   0.596   4.420  1.4924  0.4782  0.2381
  862TIP3   OH224076   2.174   1.011  17.191 -0.0182  0.3972  0.5881
  862TIP3    H124077   2.169   1.106  17.185 -0.0057  0.4870  1.9092
  862TIP3    H224078   2.161   0.980  17.102 -2.3284  1.5307  0.5254
  863TIP3   OH224079   1.395   5.026   2.301  0.5599  0.4918 -0.3051
  863TIP3    H124080   1.410   4.933   2.285 -0.9922  0.5259 -2.1893
  863TIP3    H224081   1.302   5.039   2.283  0.5450  2.2345  0.8873
  864TIP3   OH224082   2.465   6.498  14.760  0.4794 -0.0445 -0.3864
  864TIP3    H124083   2.437   6.412  14.792 -0.0220  0.2450 -0.0460
  864TIP3    H224084   2.545   6.480  14.710  0.7656 -0.6110  0.2750
  865TIP3   OH224085   6.168   0.497   3.281  0.0428 -0.5152  0.0168
  865TIP3    H124086   6.241   0.450   3.323  0.2582  0.1356  0.3761
  865TIP3    H224087   6.138   0.438   3.212  0.9568 -0.7652 -0.1755
  866TIP3   OH224088   4.484   6.396  13.475  0.1717  0.2551 -0.4737
  866TIP3    H124089   4.475   6.318  13.420 -0.5219 -0.4205  0.5912
  866TIP3    H224090   4.539   6.368  13.548 -1.0989  0.3969  0.5615
  867TIP3   OH224091   4.006   3.362  12.464  0.2301 -0.7160 -0.4493
  867TIP3    H124092   3.971   3.392  12.380  0.6922 -0.6226 -0.6123
  867TIP3    H224093   4.101   3.356  12.449  0.3349 -0.4924  0.1291
  868TIP3   OH224094   3.457   0.792  12.346 -0.1248  0.1932  0.0378
  868TIP3    H124095   3.497   0.754  12.424  0.5077  0.9811  0.1011
  868TIP3    H224096   3.516   0.767  12.274 -0.4763 -0.1669 -0.1256
  869TIP3   OH224097   3.369   0.292  17.115  0.2342 -0.4049 -0.1593
  869TIP3    H124098   3.411   0.256  17.037  0.4354 -1.0752  0.2513
  869TIP3    H224099   3.304   0.226  17.139  1.6461 -1.2310  1.4883
  870TIP3   OH224100   4.703   3.099   0.699 -0.0033  0.3482  0.3293
  870TIP3    H124101   4.709   3.039   0.624 -1.6041  1.0036 -0.3486
  870TIP3    H224102   4.628   3.068   0.749  0.1590  0.8158  0.8700
  871TIP3   OH224103   6.138   4.627   3.893  0.5935  0.2497 -0.2739
  871TIP3    H124104   6.175   4.576   3.965  1.4625  1.1178 -0.0952
  871TIP3    H224105   6.050   4.651   3.923  0.0561 -1.3982 -0.4901
  872TIP3   OH224106   4.634   6.071   4.144  0.3325 -0.1733 -0.1333
  872TIP3    H124107   4.693   6.067   4.068 -0.5382  1.2726 -0.9032
  872TIP3    H224108   4.683   6.120   4.210 -1.1261  3.8392 -1.8746
  873TIP3   OH224109   0.035   3.169   0.555  0.1678 -0.1381 -0.0518
  873TIP3    H124110  -0.032   3.102   0.559  0.4790 -0.4348  0.2674
  873TIP3    H224111   0.111   3.125   0.518 -0.3530  0.6531 -2.1472
  874TIP3   OH224112   2.504   2.613   1.761 -0.0031  0.4862  0.1448
  874TIP3    H124113   2.563   2.548   1.800  0.2203  0.6777  0.1293
  874TIP3    H224114   2.420   2.599   1.805 -0.1780 -0.3641 -0.4512
  875TIP3   OH224115   2.320   6.183  15.061 -0.0399  0.1920  0.7051
  875TIP3    H124116   2.313   6.087  15.056 -0.2365  0.2487 -0.1426
  875TIP3    H224117   2.235   6.211  15.094 -0.6218  0.1966 -0.7491
  876TIP3   OH224118   5.910   2.260   5.621 -0.0628 -0.1586  0.2703
  876TIP3    H124119   5.858   2.264   5.701 -2.7583 -0.6730 -1.4014
  876TIP3    H224120   5.851   2.291   5.552  2.0180 -0.2575 -1.6272
  877TIP3   OH224121   3.566   0.917   0.385  0.8787 -0.1502  0.1952
  877TIP3    H124122   3.509   0.934   0.310 -1.2179 -0.0802  1.7678
  877TIP3    H224123   3.586   0.823   0.379  1.6893  0.0886 -1.0880
  878TIP3   OH224124   1.459   2.797  15.086  0.1135  0.3420  0.2896
  878TIP3    H124125   1.446   2.761  15.174 -0.0925 -1.1106 -0.3291
  878TIP3    H224126   1.380   2.774  15.038  1.0114 -0.4953 -0.8165
  879TIP3   OH224127   4.069   6.200   4.708 -0.4416 -0.2396 -0.2718
  879TIP3    H124128   4.141   6.262   4.697 -1.3396  0.7438 -0.8166
  879TIP3    H224129   4.105   6.115   4.683  0.7058  0.1357  0.1064
  880TIP3   OH224130   4.774   3.087  14.886  0.1054  0.2326  0.0208
  880TIP3    H124131   4.723   3.044  14.818 -0.0017 -0.3822  0.4805
  880TIP3    H224132   4.863   3.089  14.853 -0.2754  1.6804 -0.9726
  881TIP3   OH224133   1.955   6.594  14.925  0.0417  0.1050  0.5236
  881TIP3    H124134   1.920   6.591  15.014  0.6091  1.6154  0.8139
  881TIP3    H224135   1.991   6.506  14.910  0.2204 -0.0608  1.9030
  882TIP3   OH224136   1.413   6.309  11.823  0.3733  0.4170  0.1907
  882TIP3    H124137   1.383   6.348  11.740  1.1870  0.6455  0.0026
  882TIP3    H224138   1.446   6.223  11.798  0.3366  0.3632  0.3273
  883TIP3   OH224139   5.573   3.651  13.109  0.3214  0.4535  0.3767
  883TIP3    H124140   5.595   3.742  13.129 -1.0532  0.6109  1.3140
  883TIP3    H224141   5.483   3.642  13.140 -0.5054 -0.4730 -2.1807
  884TIP3   OH224142   0.576   1.600   6.001  0.8908  0.6578  0.0657
  884TIP3    H124143   0.488   1.603   6.038  0.3061  0.5778 -1.2722
  884TIP3    H224144   0.583   1.512   5.964  1.7308  0.4875  0.6194
  885TIP3   OH224145   3.530   4.434   0.892 -0.2841 -0.0882  0.0333
  885TIP3    H124146   3.594   4.366   0.868  1.7233  1.3722  1.1486
  885TIP3    H224147   3.519   4.486   0.812 -0.0563 -0.3215 -0.1512
  886TIP3   OH224148   4.507   5.060  14.057  0.5573 -0.3945 -0.2984
  886TIP3    H124149   4.501   5.149  14.093 -3.0928 -0.6720 -0.0002
  886TIP3    H224150   4.487   5.071  13.964  5.1778 -0.3126 -1.3869
  887TIP3   OH224151   5.975   1.460   4.711  0.5186  0.1561  0.0186
  887TIP3    H124152   5.947   1.388   4.654 -0.3088  0.5431 -0.0820
  887TIP3    H224153   6.070   1.451   4.717  0.2244 -2.3351  1.8822
  888TIP3   OH224154   6.598   0.009  14.844  0.0167 -0.1184  0.2544
  888TIP3    H124155   6.691  -0.015  14.850  0.2935  1.2180  1.5423
  888TIP3    H224156   6.598   0.084  14.784 -0.2208 -0.0540  0.3378
  889TIP3   OH224157   5.123   1.099   3.103 -0.1691 -0.6280  0.0811
  889TIP3    H124158   5.185   1.033   3.135  0.1196  0.0797  1.0078
  889TIP3    H224159   5.171   1.145   3.034  0.6486  0.4159  1.3030
  890TIP3   OH224160   6.395   4.123   1.652  0.2843 -0.7376 -0.3345
  890TIP3    H124161   6.418   4.185   1.721  1.4919 -0.6851 -0.7656
  890TIP3    H224162   6.307   4.148   1.625  0.4874  0.3403 -0.0175
  891TIP3   OH224163   1.195   6.199   0.198 -0.2458  0.1545  0.1469
  891TIP3    H124164   1.179   6.108   0.173  1.0395 -0.1888  0.5190
  891TIP3    H224165   1.277   6.196   0.248  1.1799  1.8332 -1.9800
  892TIP3   OH224166   2.565   2.191   4.063 -0.2175 -0.2608  0.0640
  892TIP3    H124167   2.472   2.167   4.069 -0.0267 -0.8490  0.7634
  892TIP3    H224168   2.569   2.282   4.094 -0.7366  0.1808 -1.1632
  893TIP3   OH224169   6.201   6.442  16.375  0.0394  0.0234  0.3601
  893TIP3    H124170   6.228   6.519  16.326 -0.7159  0.1255  0.0982
  893TIP3    H224171   6.262   6.374  16.347  1.3881  0.7909  1.4045
  894TIP3   OH224172   1.328   1.047  13.275  0.6787  0.1025 -0.4607
  894TIP3    H124173   1.250   1.099  13.293 -0.0488 -1.4260  0.9294
  894TIP3    H224174   1.390   1.073  13.344  0.5893 -0.2685 -0.2339
  895TIP3   OH224175   1.617   4.632   3.780  0.0249  0.1590 -0.1585
  895TIP3    H124176   1.567   4.636   3.698 -0.8984  1.4576  0.4413
  895TIP3    H224177   1.701   4.673   3.759  0.7384 -1.7745 -1.1006
  896TIP3   OH224178   6.044   1.938  14.592  0.2720  0.9971  0.2437
  896TIP3    H124179   6.066   2.030  14.611 -2.2411  1.7483 -0.3662
  896TIP3    H224180   5.950   1.932  14.606  0.2961 -1.3439 -0.4005
  897TIP3   OH224181   4.470   5.935   3.525  0.2280 -0.2756 -0.3476
  897TIP3    H124182   4.517   5.852   3.511  0.7084 -0.2072  0.8145
  897TIP3    H224183   4.387   5.909   3.565 -0.3560 -0.3183 -1.5432
  898TIP3   OH224184   0.410   4.968  11.237  0.1386  0.1171 -0.3787
  898TIP3    H124185   0.400   4.873  11.241 -0.5643  0.1368 -1.3255
  898TIP3    H224186   0.500   4.984  11.265  0.8901 -0.9944 -2.0778
  899TIP3   OH224187   0.493   0.651   4.910  0.2641 -0.0149 -0.6641
  899TIP3    H124188   0.561   0.620   4.851  0.5301  2.0914 -1.5224
  899TIP3    H224189   0.417   0.667   4.853 -0.6214 -1.3817  0.1232
  900TIP3   OH224190   3.265   1.425   0.611 -0.1666  0.0829  0.1780
  900TIP3    H124191   3.260   1.356   0.544  0.1590  0.8553 -0.6594
  900TIP3    H224192   3.248   1.380   0.693 -3.9075 -0.3827 -0.7210
  901TIP3   OH224193   2.724   4.976  16.277 -0.1870  0.0147  0.1920
  901TIP3    H124194   2.672   4.895  16.272 -0.9180  0.5122 -0.4407
  901TIP3    H224195   2.666   5.044  16.242  0.4262  0.8162  0.7065
  902TIP3   OH224196   0.021   3.939  13.251  0.3942  0.4531 -0.2328
  902TIP3    H124197  -0.061   3.979  13.224  0.1512 -0.5471 -0.9922
  902TIP3    H224198   0.058   3.901  13.171  0.3772 -1.2472  0.5292
  903TIP3   OH224199   4.399   1.074   0.802  0.2202  0.3400 -0.0108
  903TIP3    H124200   4.464   1.008   0.826 -0.2019  0.5012  1.6901
  903TIP3    H224201   4.434   1.156   0.836  0.1252  0.7835 -0.9602
  904TIP3   OH224202   2.110   4.182   1.971  0.1860 -0.4003 -0.1846
  904TIP3    H124203   2.184   4.153   1.918  0.6372 -0.8626  0.7065
  904TIP3    H224204   2.085   4.266   1.932  2.6464  0.9135  0.9317
  905TIP3   OH224205   6.636   5.222   5.270  0.2664 -1.1233 -0.0150
  905TIP3    H124206   6.616   5.249   5.180  2.1408 -1.4573 -0.5561
  905TIP3    H224207   6.645   5.303   5.319  0.8038 -0.9053 -0.4787
  906TIP3   OH224208   3.847   1.175  13.391 -0.5335  0.4973  0.1066
  906TIP3    H124209   3.942   1.170  13.381 -0.4377 -0.5994  1.4505
  906TIP3    H224210   3.828   1.269  13.391  0.2456  0.6991 -2.7255
  907TIP3   OH224211   2.004   4.140   2.436  0.0211  0.3404  0.4740
  907TIP3    H124212   2.093   4.176   2.442  0.2101  0.1750 -1.2746
  907TIP3    H224213   1.956   4.204   2.384 -0.0271 -1.1550 -1.3773
  908TIP3   OH224214   3.121   2.462   2.536  0.0697 -0.5518  0.0600
  908TIP3    H124215   3.102   2.470   2.443  0.1712 -4.4359 -0.3766
  908TIP3    H224216   3.215   2.480   2.543 -0.2825  1.5049 -0.2991
  909TIP3   OH224217   4.173   2.052   0.680  0.0422 -0.0582  0.7544
  909TIP3    H124218   4.172   2.039   0.775  0.2380 -0.1871  0.7387
  909TIP3    H224219   4.104   2.117   0.664  0.4692  0.4742  1.0580
  910TIP3   OH224220   5.549   2.242  12.235  0.0128  0.3526  0.3861
  910TIP3    H124221   5.637   2.207  12.222 -0.3624 -0.2938 -0.4492
  910TIP3    H224222   5.550   2.327  12.191  1.1997  1.8817  3.1889
  911TIP3   OH224223   2.947   3.557   4.500  0.5448  0.3397 -0.0559
  911TIP3    H124224   2.974   3.593   4.585  1.1299  1.9385 -0.8882
  911TIP3    H224225   3.011   3.592   4.438  0.5088 -1.3506 -1.0708
  912TIP3   OH224226   0.391   1.728  11.791 -0.1555 -0.5380  0.7049
  912TIP3    H124227   0.317   1.725  11.851  0.1971 -1.9097  1.0750
  912TIP3    H224228   0.468   1.731  11.847  0.1205 -0.3482  0.3189
  913TIP3   OH224229   3.466   2.901  14.440 -0.1030 -0.1066 -0.1764
  913TIP3    H124230   3.535   2.962  14.412 -0.5012  0.6130  0.4151
  913TIP3    H224231   3.392   2.957  14.464 -0.4364 -0.8161  0.4747
  914TIP3   OH224232   1.082   6.064   5.670  0.3744 -0.0832  0.1083
  914TIP3    H124233   1.116   5.978   5.645  1.8148  0.6181 -0.4662
  914TIP3    H224234   1.109   6.122   5.598 -2.1303  0.5248 -0.4031
  915TIP3   OH224235   2.985   0.320  12.606 -0.0070  0.2589  0.0800
  915TIP3    H124236   3.056   0.380  12.583  0.8921 -0.7026  0.3109
  915TIP3    H224237   3.028   0.251  12.656 -1.4042  0.6494  1.8670
  916TIP3   OH224238   5.967   6.385  15.416  0.0430  0.1665 -0.7560
  916TIP3    H124239   5.979   6.368  15.323 -1.2063 -1.5675 -0.6147
  916TIP3    H224240   5.945   6.300  15.454  0.3343  0.8862  1.0956
  917TIP3   OH224241   2.338   5.581   6.478  0.0564 -0.4330  0.0063
  917TIP3    H124242   2.245   5.572   6.501  0.6144  0.3469  2.7480
  917TIP3    H224243   2.338   5.634   6.399 -1.7727  1.3880  1.1761
  918TIP3   OH224244   5.807   1.212  16.000  0.1937  0.4251  0.1171
  918TIP3    H124245   5.891   1.184  16.038  0.5707  1.4012 -0.0036
  918TIP3    H224246   5.801   1.163  15.917  1.6068  1.8973 -0.8674
  919TIP3   OH224247   2.475   3.606  17.009  0.2214  0.2211 -0.2154
  919TIP3    H124248   2.420   3.683  17.025  1.5837  0.6848  2.5330
  919TIP3    H224249   2.558   3.643  16.976  1.1900  0.0553  1.9380
  920TIP3   OH224250   1.624   5.701   1.476  0.0167 -0.1706  0.4025
  920TIP3    H124251   1.718   5.689   1.463  0.2144  0.1072  1.4599
  920TIP3    H224252   1.585   5.684   1.391  1.0359 -0.2238 -0.0625
  921TIP3   OH224253   0.606   2.191  12.022  0.2934  0.0668  0.5581
  921TIP3    H124254   0.677   2.251  11.999  1.7997 -1.6999  0.4990
  921TIP3    H224255   0.643   2.135  12.090 -1.2842 -0.4001  1.0390
  922TIP3   OH224256   3.795   4.713  11.196 -0.4248 -0.2922  0.2484
  922TIP3    H124257   3.739   4.645  11.158 -1.1683  0.3480  0.1994
  922TIP3    H224258   3.753   4.796  11.172  0.6351  0.2006  0.0520
  923TIP3   OH224259   1.135   5.683   0.642  0.2259  0.7310 -0.1325
  923TIP3    H124260   1.111   5.592   0.659  1.4273  0.9797  3.2348
  923TIP3    H224261   1.075   5.711   0.572 -0.9625 -2.2531 -0.3764
  924TIP3   OH224262   2.340   1.459   1.261 -0.0800 -0.0714 -0.5325
  924TIP3    H124263   2.365   1.387   1.204 -0.0782 -0.9986  0.6270
  924TIP3    H224264   2.247   1.444   1.280 -0.0104  0.0703 -0.0662
  925TIP3   OH224265   4.112   0.892  14.548  0.2073 -0.5892  0.2847
  925TIP3    H124266   4.126   0.947  14.625 -1.2029  0.6767 -0.3276
  925TIP3    H224267   4.069   0.814  14.581  0.0772 -0.2748  0.8542
  926TIP3   OH224268   6.287   0.141   1.214 -0.2064 -0.1569 -0.1699
  926TIP3    H124269   6.344   0.065   1.226 -0.7318 -0.8750 -2.1983
  926TIP3    H224270   6.340   0.215   1.247  0.7502 -1.2074  0.7109
  927TIP3   OH224271   1.020   3.838   2.230 -0.5233 -0.3982 -0.8002
  927TIP3    H124272   0.930   3.861   2.250 -0.5148  0.4133 -1.6463
  927TIP3    H224273   1.055   3.916   2.187  1.2042  0.1064  1.4110
  928TIP3   OH224274   1.116   1.196  14.802  0.2445 -0.0779 -0.0975
  928TIP3    H124275   1.167   1.130  14.756  1.1789  1.3804 -1.2192
  928TIP3    H224276   1.046   1.219  14.741 -0.6497 -0.7150  0.6787
  929TIP3   OH224277   5.047   4.623   0.290  0.1219  0.8779 -0.6738
  929TIP3    H124278   5.025   4.558   0.356 -1.4837  2.0635 -0.0060
  929TIP3    H224279   4.974   4.622   0.229  0.9956  0.7013 -1.7402
  930TIP3   OH224280   6.202   0.496   3.678  0.6162 -0.2994 -0.1730
  930TIP3    H124281   6.217   0.420   3.733  1.1856 -0.4736 -0.5674
  930TIP3    H224282   6.167   0.562   3.738 -0.0065 -0.9098  0.1402
  931TIP3   OH224283   0.245   4.612   2.539  0.6435 -0.0541  0.3012
  931TIP3    H124284   0.285   4.699   2.544  0.1365  0.2392 -0.5970
  931TIP3    H224285   0.158   4.628   2.503  1.0085 -1.0676 -1.0711
  932TIP3   OH224286   3.848   6.772  12.060 -0.3348  0.1865  0.4176
  932TIP3    H124287   3.753   6.779  12.054 -0.1676  2.1023 -0.2885
  932TIP3    H224288   3.876   6.854  12.099  1.3175  1.3188 -2.9333
  933TIP3   OH224289   3.467   5.787  16.956 -0.0800  0.3960 -0.0587
  933TIP3    H124290   3.499   5.723  16.892  1.1854  0.4307  0.5217
  933TIP3    H224291   3.446   5.865  16.904 -2.4443 -0.7370 -0.8905
  934TIP3   OH224292   0.555   1.021   4.306 -0.4323  0.8012  0.1237
  934TIP3    H124293   0.502   1.063   4.373 -2.0010  0.2797 -0.7685
  934TIP3    H224294   0.645   1.028   4.338 -1.2400 -0.3382  2.7754
  935TIP3   OH224295   4.233   1.370   2.233  0.0939 -0.4026 -0.2225
  935TIP3    H124296   4.165   1.428   2.267  0.3421  0.5922 -1.3807
  935TIP3    H224297   4.284   1.425   2.173  0.5066 -1.7439 -1.1309
  936TIP3   OH224298   4.824   3.968   3.647 -0.9875 -0.1030  0.8822
  936TIP3    H124299   4.826   3.886   3.597 -2.3895  0.3381  0.0623
  936TIP3    H224300   4.732   3.979   3.671 -0.8606  1.3927  0.7157
  937TIP3   OH224301   4.739   5.134  15.534  0.1329  0.0137  0.2952
  937TIP3    H124302   4.663   5.193  15.540 -0.3739 -0.6574  0.5608
  937TIP3    H224303   4.753   5.104  15.623 -0.3045 -1.1324 -0.0183
  938TIP3   OH224304   4.587   1.412   5.942 -0.3834  0.1151 -0.2217
  938TIP3    H124305   4.500   1.384   5.914 -0.1294  0.1383 -1.0458
  938TIP3    H224306   4.577   1.505   5.962 -0.7020 -0.0369  0.3551
  939TIP3   OH224307   0.478   4.003   5.566  0.1233  0.2304 -0.4954
  939TIP3    H124308   0.511   3.931   5.620  3.7037  2.7474  0.8179
  939TIP3    H224309   0.397   4.030   5.610  0.7734 -0.5101  1.2300
  940TIP3   OH224310   1.263   2.509  16.986 -0.3590 -0.0395 -0.4272
  940TIP3    H124311   1.309   2.425  16.989  0.8248  0.5569 -1.5203
  940TIP3    H224312   1.324   2.568  16.943 -1.9966  0.8936 -1.5054
  941TIP3   OH224313   0.152   0.342  16.050 -0.1004 -0.5374  0.2194
  941TIP3    H124314   0.144   0.318  16.143 -0.5953  0.1031  0.3509
  941TIP3    H224315   0.073   0.392  16.032  0.3694  0.0097 -0.3436
  942TIP3   OH224316   0.174   5.960  16.838 -0.4458 -0.0282 -0.6115
  942TIP3    H124317   0.110   5.930  16.773 -0.8944 -1.2354  0.3830
  942TIP3    H224318   0.186   6.053  16.818 -1.8388  0.0010 -1.3675
  943TIP3   OH224319   3.634   3.791  16.540  0.9185 -0.7082 -0.5203
  943TIP3    H124320   3.721   3.814  16.572  0.7854 -1.3947  0.3642
  943TIP3    H224321   3.604   3.722  16.600 -1.0587  0.9056  0.4086
  944TIP3   OH224322   1.749   0.451   2.420  0.0982 -0.4387  0.3075
  944TIP3    H124323   1.683   0.394   2.459 -0.2571 -0.8197 -0.8288
  944TIP3    H224324   1.767   0.412   2.335 -0.4799  1.3718 -0.6807
  945TIP3   OH224325   3.798   4.582   3.061 -0.2442  0.0146 -0.3065
  945TIP3    H124326   3.759   4.639   2.994 -1.3974 -0.2436  0.1408
  945TIP3    H224327   3.752   4.604   3.141  0.2324 -0.6133  0.1436
  946TIP3   OH224328   6.648   1.887   5.758  0.0614 -0.6002  0.2487
  946TIP3    H124329   6.578   1.896   5.823 -0.9851 -0.1279 -0.9136
  946TIP3    H224330   6.651   1.972   5.714  0.4269 -1.0655 -0.6504
  947TIP3   OH224331   2.003   3.508   2.153  0.0481  0.0377 -0.3881
  947TIP3    H124332   1.916   3.468   2.151  0.3573 -0.5996 -1.1591
  947TIP3    H224333   1.989   3.599   2.127 -0.3085 -0.2101 -1.0539
  948TIP3   OH224334   6.401   3.057   1.636  0.4767 -0.1134 -0.4940
  948TIP3    H124335   6.349   3.099   1.568 -0.8560  0.7010  0.9938
  948TIP3    H224336   6.483   3.106   1.638 -1.0414  2.4785  1.1850
  949TIP3   OH224337   4.837   0.901  12.960 -0.0385  0.1100  0.3459
  949TIP3    H124338   4.770   0.898  12.892  1.3793 -1.5548 -1.0353
  949TIP3    H224339   4.799   0.956  13.029 -2.2542  0.3031 -0.9740
  950TIP3   OH224340   4.465   4.115  15.476  0.3495  0.2174  0.2656
  950TIP3    H124341   4.426   4.096  15.391 -0.4709  0.3313  0.6156
  950TIP3    H224342   4.559   4.124  15.457  0.1887  0.1488 -0.6089
  951TIP3   OH224343   5.038   4.379  13.712 -0.1498 -0.0590  0.0825
  951TIP3    H124344   5.072   4.297  13.749  0.0227 -0.2369 -0.4818
  951TIP3    H224345   5.086   4.392  13.631 -4.0202 -2.3613 -2.7702
  952TIP3   OH224346   2.296   5.210  13.131  0.1644 -0.1446  0.1540
  952TIP3    H124347   2.251   5.164  13.060  0.4747  0.3508 -0.3658
  952TIP3    H224348   2.389   5.190  13.117  0.3919  1.4536 -0.6630
  953TIP3   OH224349   0.602   0.252  13.072  0.5443 -0.1079  0.2179
  953TIP3    H124350   0.627   0.240  12.980  0.8828 -0.7275  0.3853
  953TIP3    H224351   0.685   0.272  13.117  0.4419 -0.2156  0.4553
  954TIP3   OH224352   6.278   2.659  13.607  0.1649  0.3101 -0.2444
  954TIP3    H124353   6.338   2.725  13.572 -0.0273  1.1453  0.9587
  954TIP3    H224354   6.197   2.708  13.624 -0.0401 -0.2730  0.4768
  955TIP3   OH224355   3.420   2.118  14.290 -0.1181  0.6545  0.3372
  955TIP3    H124356   3.329   2.149  14.287 -0.8263 -1.3115  1.1548
  955TIP3    H224357   3.440   2.112  14.383  0.8698  1.1038  0.1594
  956TIP3   OH224358   0.710   5.989  15.679  0.8830  0.1932  0.5088
  956TIP3    H124359   0.659   5.967  15.601 -0.9839 -2.0225  2.2979
  956TIP3    H224360   0.767   6.061  15.650 -0.3124 -0.0359 -2.6610
  957TIP3   OH224361   2.777   0.777  15.347  0.0923 -0.8304  0.0908
  957TIP3    H124362   2.740   0.784  15.259  1.3332 -0.0679 -0.3719
  957TIP3    H224363   2.714   0.822  15.404  0.5467  0.8939 -0.7605
  958TIP3   OH224364   3.127   2.572  15.768 -0.6650 -0.1431 -0.0259
  958TIP3    H124365   3.095   2.489  15.734  0.1232 -0.3093 -0.3869
  958TIP3    H224366   3.065   2.596  15.837 -1.5387 -0.4465 -0.7051
  959TIP3   OH224367   1.936   2.482  11.316 -0.1053  0.7848  0.2758
  959TIP3    H124368   1.986   2.434  11.251 -0.7304 -2.1435  1.8402
  959TIP3    H224369   1.903   2.559  11.270  1.3883 -0.0095 -2.1892
  960TIP3   OH224370   0.794   1.897   4.120  0.4993 -0.2308 -0.6358
  960TIP3    H124371   0.849   1.818   4.118  1.3103  0.3320 -1.0842
  960TIP3    H224372   0.771   1.911   4.028  1.2110  0.6366 -0.6846
  961TIP3   OH224373   0.273   4.932  13.843  1.1966 -0.0373  0.0490
  961TIP3    H124374   0.222   5.009  13.867  0.7557 -0.1393 -0.5438
  961TIP3    H224375   0.362   4.964  13.832  1.0851  0.3141  0.1674
  962TIP3   OH224376   0.622   4.233  13.534 -0.1093 -0.1105  0.5617
  962TIP3    H124377   0.536   4.197  13.512 -0.9314  1.6571  0.8584
  962TIP3    H224378   0.663   4.165  13.589 -0.9947 -1.2835 -0.2029
  963TIP3   OH224379   6.302   5.161  12.297 -0.4794 -0.8415 -0.9396
  963TIP3    H124380   6.302   5.191  12.206  0.1879 -0.3320 -0.7725
  963TIP3    H224381   6.385   5.192  12.333 -0.4286 -1.6344 -0.3509
  964TIP3   OH224382   3.310   3.555  14.317 -0.1809 -0.5487  0.1482
  964TIP3    H124383   3.343   3.631  14.364 -0.0360 -0.6503  0.2112
  964TIP3    H224384   3.285   3.493  14.385 -1.2270 -0.1699  0.1205
  965TIP3   OH224385   5.102   0.385   0.615  0.3575  0.0750  0.3405
  965TIP3    H124386   5.152   0.447   0.669  1.1855 -0.4117  0.1480
  965TIP3    H224387   5.066   0.323   0.679  1.0057 -0.2684  0.3841
  966TIP3   OH224388   6.144   0.777  14.130  0.3415 -0.6211 -0.4781
  966TIP3    H124389   6.232   0.773  14.093  0.4848 -1.0537 -0.0986
  966TIP3    H224390   6.150   0.841  14.201  0.3255 -0.5702 -0.5227
  967TIP3   OH224391   0.119   1.728  15.307 -0.2468  0.0843 -0.1439
  967TIP3    H124392   0.039   1.735  15.256 -0.0907 -2.4196 -0.7906
  967TIP3    H224393   0.185   1.697  15.245  1.0895  1.5165  0.5277
  968TIP3   OH224394   5.146   6.720   4.403 -0.2996 -0.3552 -0.2515
  968TIP3    H124395   5.237   6.735   4.376 -0.4330  0.4701 -0.2631
  968TIP3    H224396   5.145   6.746   4.496 -0.0497 -2.3149  0.3198
  969TIP3   OH224397   0.790   4.719   6.344  0.2166 -0.2129 -0.2374
  969TIP3    H124398   0.880   4.733   6.374 -0.0041  1.8442 -0.4173
  969TIP3    H224399   0.737   4.731   6.422 -0.1706  2.5958 -0.8838
  970TIP3   OH224400   4.249   3.197  11.488 -0.3378 -0.4632 -0.1731
  970TIP3    H124401   4.185   3.176  11.420 -0.3777  0.2003 -0.3427
  970TIP3    H224402   4.293   3.114  11.506 -2.6345 -1.4186  1.3855
  971TIP3   OH224403   4.014   3.094   2.023  0.2355  0.5406 -0.0160
  971TIP3    H124404   3.927   3.132   2.007  0.6134  2.2783  1.8704
  971TIP3    H224405   4.071   3.170   2.033  1.5374 -0.5717  1.0689
  972TIP3   OH224406   6.174   0.153   4.289  0.2120  0.2205 -0.0056
  972TIP3    H124407   6.107   0.119   4.349 -0.4394 -0.1631 -0.9277
  972TIP3    H224408   6.250   0.096   4.303  0.5158  0.9511  1.3903
  973TIP3   OH224409   4.949   5.456  14.738  0.1961 -0.1148  0.4989
  973TIP3    H124410   4.943   5.501  14.822  1.7943  1.3239 -0.1255
  973TIP3    H224411   5.014   5.387  14.753  1.1547  0.7149  0.2148
  974TIP3   OH224412   0.929   4.320   6.318 -0.0120 -0.1946 -0.1530
  974TIP3    H124413   0.879   4.277   6.388 -1.8772  0.4320 -1.0689
  974TIP3    H224414   0.980   4.387   6.363 -0.6386 -0.2745  0.6945
  975TIP3   OH224415   3.442   5.040   2.264 -0.0238  0.4232 -0.3738
  975TIP3    H124416   3.483   4.972   2.210  3.3349  0.3025  2.1638
  975TIP3    H224417   3.362   4.999   2.298  0.6944 -1.4013 -0.8246
  976TIP3   OH224418   5.381   1.983   2.788 -0.5962  0.2195 -0.1178
  976TIP3    H124419   5.316   2.047   2.814  0.2710  0.3866  1.7274
  976TIP3    H224420   5.341   1.898   2.806  0.3429  0.3294  2.8506
  977TIP3   OH224421   1.816   0.287  15.045  0.2853 -0.3039  0.3327
  977TIP3    H124422   1.798   0.270  14.952  0.3297 -2.3845  0.6846
  977TIP3    H224423   1.906   0.319  15.047 -0.2373  1.2790 -0.4848
  978TIP3   OH224424   2.053   6.172   0.187  0.3967 -0.4724 -0.1658
  978TIP3    H124425   2.006   6.144   0.266  0.1788 -1.5713 -0.6722
  978TIP3    H224426   1.989   6.222   0.137  0.4471 -0.0259  0.2209
  979TIP3   OH224427   6.770   0.468  11.331 -0.0705  0.1267 -0.1970
  979TIP3    H124428   6.726   0.454  11.414  0.8968  1.1228  0.4882
  979TIP3    H224429   6.780   0.563  11.324 -1.0348  0.1388 -1.9239
  980TIP3   OH224430   3.501   1.971   4.777  0.3477 -0.0406  0.0008
  980TIP3    H124431   3.478   1.967   4.684  0.6036  0.9625 -0.1047
  980TIP3    H224432   3.450   1.900   4.817  0.0546 -0.3201 -0.8653
  981TIP3   OH224433   4.934   1.374   6.175  0.0269 -0.2183 -0.5817
  981TIP3    H124434   4.863   1.316   6.149  1.2157 -1.7936 -0.3780
  981TIP3    H224435   5.014   1.327   6.150  1.0396  0.6271  0.9759
  982TIP3   OH224436   0.984   4.709  10.672 -0.1281 -0.5946 -0.0299
  982TIP3    H124437   0.968   4.716  10.578 -0.9177 -1.4540  0.0336
  982TIP3    H224438   0.947   4.625  10.697  1.2190 -0.9443  0.8334
  983TIP3   OH224439   5.580   2.766   0.326  0.4561  0.3033 -0.5627
  983TIP3    H124440   5.612   2.696   0.383 -1.8768 -2.0196 -2.0079
  983TIP3    H224441   5.540   2.830   0.386 -0.7935 -1.4702  0.5514
  984TIP3   OH224442   5.618   4.321   3.833  0.2837 -0.3128  0.1339
  984TIP3    H124443   5.598   4.289   3.921 -3.0659  1.8138  0.2166
  984TIP3    H224444   5.610   4.244   3.777  1.4051 -1.4673  1.5166
  985TIP3   OH224445   4.558   0.714  12.895 -0.1812  0.5093  0.6247
  985TIP3    H124446   4.481   0.666  12.864  0.9392 -0.0102 -1.4064
  985TIP3    H224447   4.598   0.749  12.816  0.1264  3.1698  1.9248
  986TIP3   OH224448   2.056   2.020  11.974  0.3175  0.0343  0.6343
  986TIP3    H124449   2.136   1.973  12.000 -0.1420 -0.0951  1.8718
  986TIP3    H224450   1.989   1.987  12.034 -0.5146  0.6305  0.0339
  987TIP3   OH224451   3.267   1.292  14.694  0.6718 -0.3906 -0.3980
  987TIP3    H124452   3.356   1.303  14.729  0.6720 -1.0684 -0.1659
  987TIP3    H224453   3.212   1.286  14.772  0.7685 -2.6872 -0.4818
  988TIP3   OH224454   3.156   2.337  11.798 -0.1754  0.4464  0.2522
  988TIP3    H124455   3.062   2.323  11.799 -0.2475  0.8702 -0.1388
  988TIP3    H224456   3.190   2.280  11.866 -0.5525 -0.9252 -0.6936
  989TIP3   OH224457   4.934   6.773  15.046 -0.2075 -0.0052 -0.1749
  989TIP3    H124458   4.963   6.804  15.132 -2.1052  2.0694 -0.2411
  989TIP3    H224459   4.848   6.813  15.033 -0.6958 -1.6151 -2.3458
  990TIP3   OH224460   4.131   0.716  11.927  0.1798 -0.1439  0.6162
  990TIP3    H124461   4.160   0.794  11.879  1.0263 -0.0942  1.1998
  990TIP3    H224462   4.210   0.664  11.938  0.3855  0.6812  3.5171
  991TIP3   OH224463   5.335   6.438  17.109  0.4893  0.0888 -0.1783
  991TIP3    H124464   5.341   6.445  17.014 -0.9917  0.9199 -0.2272
  991TIP3    H224465   5.317   6.527  17.139 -0.2071 -0.3576  0.7726
  992TIP3   OH224466   1.797   5.024  16.673  0.0577  0.0562  0.1745
  992TIP3    H124467   1.739   4.976  16.614 -0.8159  3.4953 -1.9694
  992TIP3    H224468   1.746   5.036  16.753 -0.5962 -0.6051 -0.1426
  993TIP3   OH224469   6.678   6.201   3.934 -0.2108 -0.2710 -0.0661
  993TIP3    H124470   6.742   6.141   3.973 -0.0355  0.2804  0.5041
  993TIP3    H224471   6.637   6.244   4.009 -0.9523 -0.3087 -0.4430
  994TIP3   OH224472   2.936   5.399   4.285 -0.5189 -0.4885 -0.3524
  994TIP3    H124473   2.932   5.494   4.282 -0.6004 -0.4933 -0.4461
  994TIP3    H224474   2.845   5.371   4.271 -0.3803 -0.5906 -1.0697
  995TIP3   OH224475   0.422   5.420  10.454  0.7022 -0.9224 -0.2358
  995TIP3    H124476   0.358   5.490  10.458  2.0364  0.2456  1.2724
  995TIP3    H224477   0.474   5.439  10.376 -0.9737 -2.0873 -1.6821
  996TIP3   OH224478   0.806   3.795  15.530  0.0290 -0.1732 -0.2911
  996TIP3    H124479   0.756   3.857  15.584  1.1526  1.1579 -0.7200
  996TIP3    H224480   0.828   3.723  15.590 -0.3338  0.3954  0.5401
  997TIP3   OH224481   0.054   4.153  10.852  0.2423 -0.1198  0.0302
  997TIP3    H124482   0.020   4.192  10.771  0.4387  2.5711  1.1811
  997TIP3    H224483   0.147   4.137  10.834 -0.2621 -1.9253 -1.1060
  998TIP3   OH224484   2.418   5.422   5.693 -0.0905 -0.0405 -0.3692
  998TIP3    H124485   2.322   5.426   5.689 -0.2114 -1.4283  0.7948
  998TIP3    H224486   2.445   5.513   5.710 -1.2839  0.1195  0.8036
  999TIP3   OH224487   2.367   0.746  13.741 -0.4655 -0.1607 -0.2540
  999TIP3    H124488   2.356   0.653  13.761 -0.6084  0.3196  2.1066
  999TIP3    H224489   2.437   0.748  13.675  0.7737 -1.8422  0.9526
 1000TIP3   OH224490   4.244   0.474  14.187  0.3366 -0.1057  0.1391
 1000TIP3    H124491   4.337   0.470  14.207  0.6680 -1.3231 -1.5955
 1000TIP3    H224492   4.206   0.400  14.234  0.3266  0.0358  0.3560
 1001TIP3   OH224493   2.752   6.242  13.457 -0.1819 -0.0587  0.2864
 1001TIP3    H124494   2.726   6.163  13.505 -0.7807  0.0696  0.1862
 1001TIP3    H224495   2.775   6.210  13.370  1.7492 -0.4023  0.9132
 1002TIP3   OH224496   0.759   4.822  14.476  0.2173 -0.3499 -0.2451
 1002TIP3    H124497   0.692   4.833  14.409  1.5242 -1.4819 -1.7987
 1002TIP3    H224498   0.713   4.784  14.551 -1.4016  1.5858 -0.2132
 1003TIP3   OH224499   6.204   0.421   6.258 -0.2414 -0.2610 -0.5581
 1003TIP3    H124500   6.210   0.515   6.245 -1.0315 -0.2539 -0.8833
 1003TIP3    H224501   6.265   0.384   6.195 -1.7519 -0.0789 -2.1660
 1004TIP3   OH224502   5.317   3.324  16.085 -0.1911  0.0862 -0.1939
 1004TIP3    H124503   5.319   3.233  16.116  2.4811  0.4381  0.8790
 1004TIP3    H224504   5.330   3.317  15.991 -2.7278 -0.7479 -0.5080
 1005TIP3   OH224505   4.267   0.681  15.862  0.0906 -0.1339 -0.4337
 1005TIP3    H124506   4.183   0.719  15.888  0.2836 -0.6044  0.9145
 1005TIP3    H224507   4.263   0.678  15.767 -1.3608  0.0023 -0.3964
 1006TIP3   OH224508   2.736   3.683   2.769 -0.4081  0.3047  0.0094
 1006TIP3    H124509   2.777   3.615   2.715 -0.6525  0.6628 -0.6310
 1006TIP3    H224510   2.777   3.674   2.855 -0.2692 -0.4995 -0.1409
 1007TIP3   OH224511   0.175   5.280  17.119 -0.7686  0.0920  0.5624
 1007TIP3    H124512   0.159   5.191  17.090 -0.2903  0.2812 -0.3045
 1007TIP3    H224513   0.089   5.313  17.144 -1.0024 -0.4844  0.5231
 1008TIP3   OH224514   4.951   4.837  12.475 -0.4965 -0.1187 -0.6346
 1008TIP3    H124515   5.026   4.894  12.495 -0.1279 -1.4700  2.1457
 1008TIP3    H224516   4.880   4.897  12.454  0.4199  1.3045  0.2455
 1009TIP3   OH224517   4.354   3.441   3.612  0.4397 -0.4494  0.1711
 1009TIP3    H124518   4.385   3.361   3.653  1.1157  0.2727  1.0968
 1009TIP3    H224519   4.279   3.469   3.666  0.9810  0.2003  0.5984
 1010TIP3   OH224520   0.602   1.609   0.264 -0.0135 -0.2501 -0.4873
 1010TIP3    H124521   0.588   1.703   0.252  0.3680 -0.2462 -0.9076
 1010TIP3    H224522   0.615   1.576   0.176  0.9270 -0.5288 -0.2416
 1011TIP3   OH224523   3.043   4.252  16.489 -0.3631  0.4961  0.3887
 1011TIP3    H124524   3.003   4.197  16.422  1.6633  1.8811 -2.0312
 1011TIP3    H224525   2.973   4.268  16.553 -2.3434 -0.7669 -1.4251
 1012TIP3   OH224526   5.272   5.776  16.433  0.2050 -0.3051  0.2069
 1012TIP3    H124527   5.214   5.701  16.446 -1.2085  0.9754  1.4459
 1012TIP3    H224528   5.326   5.752  16.358 -2.3203 -1.2653 -1.3433
 1013TIP3   OH224529   0.663   0.696   5.343 -0.0046 -0.1318 -0.1563
 1013TIP3    H124530   0.569   0.701   5.324  0.4142  0.3663 -2.2217
 1013TIP3    H224531   0.668   0.692   5.439 -2.1790 -1.4643 -0.0563
 1014TIP3   OH224532   1.470   1.901  11.287 -0.0527 -0.0483 -0.2583
 1014TIP3    H124533   1.523   1.947  11.222  1.9673 -0.7403  0.8590
 1014TIP3    H224534   1.529   1.836  11.325 -1.2827  0.1113  2.0217
 1015TIP3   OH224535   4.952   1.732  12.275  0.5282 -0.7951  0.0584
 1015TIP3    H124536   4.935   1.674  12.201  1.6258  0.3244 -1.1125
 1015TIP3    H224537   4.894   1.807  12.262  2.0529  0.2775 -0.7189
 1016TIP3   OH224538   2.173   6.640   0.152 -0.6799  0.1228 -0.0381
 1016TIP3    H124539   2.179   6.670   0.062 -0.5921 -0.7193 -0.3198
 1016TIP3    H224540   2.207   6.550   0.150 -0.1753  0.2831  0.9240
 1017TIP3   OH224541   1.583   5.210   2.806  0.3687  0.4111  0.3829
 1017TIP3    H124542   1.608   5.245   2.721  1.4684 -0.5093  0.3181
 1017TIP3    H224543   1.512   5.267   2.836 -0.8914 -0.0017 -1.7009
 1018TIP3   OH224544   3.804   6.189   4.662  0.0104  0.1191 -0.9694
 1018TIP3    H124545   3.791   6.276   4.626 -0.3136  0.6336  0.3700
 1018TIP3    H224546   3.899   6.182   4.675  0.0215  0.3256 -0.9405
 1019TIP3   OH224547   6.458   4.316   1.843 -0.1304 -0.0837 -0.1188
 1019TIP3    H124548   6.489   4.249   1.904 -0.9945 -0.0674  0.3425
 1019TIP3    H224549   6.466   4.398   1.891 -1.4544 -0.1468  0.2293
 1020TIP3   OH224550   6.129   0.098  11.034  0.1921 -0.7671 -0.3505
 1020TIP3    H124551   6.202   0.040  11.013  0.2670 -0.1224 -1.9612
 1020TIP3    H224552   6.115   0.149  10.954 -0.2959  0.9771  0.8239
 1021TIP3   OH224553   5.002   5.008   3.890 -0.0958  0.1312  0.3105
 1021TIP3    H124554   4.920   5.057   3.897 -0.1815  0.1834 -1.0262
 1021TIP3    H224555   5.048   5.048   3.816  1.2361  0.2399  1.1844
 1022TIP3   OH224556   4.200   3.085  16.883 -0.0194  0.5299  0.1863
 1022TIP3    H124557   4.120   3.033  16.879  0.6127 -0.2984 -2.5585
 1022TIP3    H224558   4.171   3.176  16.870 -0.4077  0.0944 -2.1383
 1023TIP3   OH224559   2.566   6.623  16.480 -0.3270 -0.4855  0.6125
 1023TIP3    H124560   2.539   6.714  16.498 -2.0706 -0.8047 -0.2647
 1023TIP3    H224561   2.600   6.625  16.391 -2.0116 -1.0074 -0.0628
 1024TIP3   OH224562   4.828   4.546  16.493  0.5798 -0.4462 -0.3182
 1024TIP3    H124563   4.739   4.574  16.514  0.3787  0.1926 -1.9360
 1024TIP3    H224564   4.829   4.452  16.512 -1.2067 -0.9907 -2.6751
 1025TIP3   OH224565   2.899   1.831   1.497  0.1538 -0.4585 -0.0044
 1025TIP3    H124566   2.893   1.738   1.521 -0.1302 -0.6584 -0.8111
 1025TIP3    H224567   2.808   1.859   1.491  0.2115 -0.4555 -0.9655
 1026TIP3   OH224568   0.330   0.291  13.980  0.1263  0.3549  0.2199
 1026TIP3    H124569   0.311   0.257  14.068  2.5302  0.8803  0.9934
 1026TIP3    H224570   0.266   0.361  13.967 -1.1390 -0.6375  0.9838
 1027TIP3   OH224571   1.554   1.974   1.888  0.9968  0.6484  0.3866
 1027TIP3    H124572   1.494   2.046   1.871  1.1888  0.2567 -2.2609
 1027TIP3    H224573   1.603   2.001   1.966 -1.9901  1.3369  2.1035
 1028TIP3   OH224574   3.528   3.056   0.808  0.1023  0.6259 -0.1900
 1028TIP3    H124575   3.538   3.066   0.903  0.4763  0.3817 -0.2046
 1028TIP3    H224576   3.514   2.963   0.795 -0.7786  0.7725 -0.3020
 1029TIP3   OH224577   5.418   1.734   3.270  0.1045 -0.0876  0.2863
 1029TIP3    H124578   5.356   1.661   3.272 -0.0566  0.0386 -0.1055
 1029TIP3    H224579   5.432   1.755   3.362  0.5672 -0.9640  0.4221
 1030TIP3   OH224580   2.550   2.740   2.342 -0.0382 -0.4455  0.0118
 1030TIP3    H124581   2.594   2.759   2.259  0.3975  0.1485  0.3691
 1030TIP3    H224582   2.619   2.749   2.408 -1.1641  3.0103  0.8639
 1031TIP3   OH224583   5.718   3.094   6.333  0.3241  0.5278 -0.2291
 1031TIP3    H124584   5.786   3.114   6.268  1.9947 -1.3220  0.9006
 1031TIP3    H224585   5.656   3.039   6.286  0.1921  1.2819 -0.9509
 1032TIP3   OH224586   1.404   6.174   2.356  0.1938  0.2290  0.8571
 1032TIP3    H124587   1.383   6.083   2.380 -1.0745  0.4789  0.7194
 1032TIP3    H224588   1.319   6.215   2.341  0.8011  1.2245  0.0901
 1033TIP3   OH224589   6.311   1.255   4.918  0.2239 -0.0193  0.2050
 1033TIP3    H124590   6.277   1.296   4.997  1.3912  1.1850  0.1051
 1033TIP3    H224591   6.363   1.323   4.876  0.3970 -0.9408 -1.1105
 1034TIP3   OH224592   1.890   4.442   3.197 -0.0505  0.2163 -0.3595
 1034TIP3    H124593   1.896   4.352   3.228  1.5402  0.4868  0.1384
 1034TIP3    H224594   1.823   4.482   3.252 -0.9088 -0.6987 -0.7108
 1035TIP3   OH224595   4.552   3.902  16.348  0.8901  0.1260 -0.5418
 1035TIP3    H124596   4.538   3.807  16.350  0.4733  0.0781 -3.1657
 1035TIP3    H224597   4.464   3.939  16.342  1.1202  0.6078 -0.9748
 1036TIP3   OH224598   1.623   2.700  13.941 -0.0059  0.3331  0.1112
 1036TIP3    H124599   1.544   2.753  13.929 -0.4373 -0.3258  0.0336
 1036TIP3    H224600   1.639   2.662  13.855  0.1886  0.1754  0.2181
 1037TIP3   OH224601   5.658   4.521  15.194 -0.2388 -0.2965 -0.2663
 1037TIP3    H124602   5.579   4.492  15.238  0.3580  0.4990  1.3541
 1037TIP3    H224603   5.711   4.441  15.186 -0.3252 -0.4343  0.5085
 1038TIP3   OH224604   5.726   5.030  11.738  0.9243 -0.4480 -0.2308
 1038TIP3    H124605   5.743   4.984  11.820 -0.4277 -0.9037 -0.1946
 1038TIP3    H224606   5.763   5.117  11.752  2.6401 -1.2180  0.0485
 1039TIP3   OH224607   0.833   0.879  16.199 -1.0954 -0.1202 -0.0590
 1039TIP3    H124608   0.879   0.795  16.195 -1.4174 -0.3746  1.2408
 1039TIP3    H224609   0.877   0.933  16.133 -0.3684 -1.0535 -0.3627
 1040TIP3   OH224610   1.888   3.418  15.040 -0.3928  0.3456  0.0568
 1040TIP3    H124611   1.890   3.330  15.003 -1.6051  0.6945 -0.8607
 1040TIP3    H224612   1.856   3.473  14.969 -1.6823  1.2058  1.2782
 1041TIP3   OH224613   4.831   2.565   3.872 -0.3757 -0.6059 -0.8827
 1041TIP3    H124614   4.895   2.494   3.874 -1.3020 -1.4494 -0.4504
 1041TIP3    H224615   4.771   2.540   3.801 -1.6048 -1.0706  0.2996
 1042TIP3   OH224616   3.795   0.532   2.951  0.5209  0.3246 -0.3692
 1042TIP3    H124617   3.869   0.476   2.926  0.4566 -0.1924  0.5988
 1042TIP3    H224618   3.718   0.482   2.925  0.4510 -0.2531  0.9390
 1043TIP3   OH224619   6.050   2.460   0.187  0.4535 -0.1326 -0.3705
 1043TIP3    H124620   5.976   2.467   0.126  0.4762  1.2535 -0.2451
 1043TIP3    H224621   6.052   2.367   0.211 -2.3958  0.1057  1.0452
 1044TIP3   OH224622   3.566   2.299  12.584 -0.2385 -0.0029 -0.1789
 1044TIP3    H124623   3.474   2.308  12.557 -0.3240 -0.4204 -0.0271
 1044TIP3    H224624   3.563   2.303  12.680 -0.1666 -0.6643 -0.1515
 1045TIP3   OH224625   4.834   6.456  16.620  0.0045 -0.0898  0.7041
 1045TIP3    H124626   4.919   6.426  16.651  0.0965  0.9133  1.4558
 1045TIP3    H224627   4.783   6.472  16.699 -0.3834  0.7141  0.3033
 1046TIP3   OH224628   5.832   3.154  14.950 -0.9374 -0.0072  0.2318
 1046TIP3    H124629   5.835   3.213  14.875 -0.4236  1.5662  1.4851
 1046TIP3    H224630   5.872   3.073  14.918  3.3096  2.0464  0.0497
 1047TIP3   OH224631   1.605   4.752  16.887  0.3057  0.3422 -0.0877
 1047TIP3    H124632   1.591   4.717  16.799  2.5350  0.3401 -0.4850
 1047TIP3    H224633   1.612   4.846  16.874 -0.8217  0.4838  0.2981
 1048TIP3   OH224634   3.243   6.053   5.772 -0.0862  0.4107  0.3263
 1048TIP3    H124635   3.283   6.034   5.857 -1.0943 -0.6275  0.5818
 1048TIP3    H224636   3.192   5.974   5.752 -1.5288  1.4852 -0.2652
 1049TIP3   OH224637   4.082   5.213  15.382 -0.0247  0.1328 -0.2569
 1049TIP3    H124638   4.133   5.291  15.402 -0.7967  0.3510  0.9068
 1049TIP3    H224639   4.121   5.178  15.303  1.4470  0.7201  0.2046
 1050TIP3   OH224640   0.680   2.008   5.780  0.7209 -0.2988  0.4186
 1050TIP3    H124641   0.643   2.090   5.813  2.1274 -0.1014  1.5554
 1050TIP3    H224642   0.698   1.956   5.858 -1.0468 -2.1131 -0.3361
 1051TIP3   OH224643   2.108   4.551   5.215  0.2314 -0.0509  0.6569
 1051TIP3    H124644   2.177   4.485   5.221 -0.7097 -0.9627  1.6861
 1051TIP3    H224645   2.026   4.502   5.227 -0.5301  1.1698  0.5831
 1052TIP3   OH224646   4.087   0.460  13.544 -0.1834  0.2252 -0.4472
 1052TIP3    H124647   4.040   0.383  13.575 -0.4610 -0.9838 -3.7074
 1052TIP3    H224648   4.028   0.533  13.565 -1.6038 -0.8314 -0.6753
 1053TIP3   OH224649   6.358   3.995   1.112 -0.0161 -0.1192 -0.1847
 1053TIP3    H124650   6.445   3.956   1.120 -0.1341 -0.6585 -1.3505
 1053TIP3    H224651   6.301   3.922   1.090 -0.8321  0.1771  0.9488
 1054TIP3   OH224652   0.169   3.104   2.652  0.2791  0.0315  0.1141
 1054TIP3    H124653   0.241   3.049   2.682 -0.9576 -1.2488  0.8251
 1054TIP3    H224654   0.206   3.159   2.583  1.9406 -0.5284  0.5584
 1055TIP3   OH224655   3.726   2.887   1.061  0.7223 -0.0419 -0.4797
 1055TIP3    H124656   3.817   2.916   1.066  0.6367  0.5494 -2.1291
 1055TIP3    H224657   3.678   2.952   1.113  1.2559 -0.4860  0.5897
 1056TIP3   OH224658   0.220   1.784  14.203 -0.8129 -0.3161 -0.4947
 1056TIP3    H124659   0.257   1.764  14.116 -1.0790  0.3824 -0.7739
 1056TIP3    H224660   0.275   1.736  14.264  0.4275  0.5295 -0.9289
 1057TIP3   OH224661   1.611   6.333  12.620 -0.8466  0.2726 -0.0889
 1057TIP3    H124662   1.558   6.373  12.552  0.5860 -0.3826 -1.6496
 1057TIP3    H224663   1.701   6.345  12.590 -0.1978 -0.2240  1.5893
 1058TIP3   OH224664   0.357   3.721   1.691  0.5525 -0.2192  0.0687
 1058TIP3    H124665   0.384   3.672   1.769  0.3174  0.8403  0.8251
 1058TIP3    H224666   0.370   3.813   1.715  0.0891  0.1266 -0.9944
 1059TIP3   OH224667   5.564   4.136   5.606 -0.2757  0.1791  0.4861
 1059TIP3    H124668   5.541   4.044   5.613 -0.1365  0.0805 -0.2938
 1059TIP3    H224669   5.533   4.163   5.519  0.7337  0.5539  0.2294
 1060TIP3   OH224670   0.935   4.763   0.033  0.5665 -0.0157 -0.3037
 1060TIP3    H124671   0.893   4.738  -0.049 -2.4016  2.2239  0.4408
 1060TIP3    H224672   0.978   4.847   0.012 -1.2477  1.1879  0.7085
 1061TIP3   OH224673   0.186   5.103  13.105  0.1669 -0.2017  0.6639
 1061TIP3    H124674   0.222   5.021  13.071 -0.2829 -0.1308  0.0117
 1061TIP3    H224675   0.234   5.171  13.059 -0.7015 -0.1056 -0.1256
 1062TIP3   OH224676   0.107   3.012  12.101  0.4769 -0.0435  0.0251
 1062TIP3    H124677   0.159   3.050  12.029  0.3462 -1.3789 -0.7871
 1062TIP3    H224678   0.030   3.068  12.106  1.1532  0.9125  0.0769
 1063TIP3   OH224679   4.987   1.727   4.363 -0.0118 -0.1605 -0.0047
 1063TIP3    H124680   5.050   1.788   4.326  1.2300 -0.6618  1.2314
 1063TIP3    H224681   4.990   1.743   4.458 -0.2280 -1.5871  0.2608
 1064TIP3   OH224682   5.856   5.152   4.103 -0.3237 -0.4222  0.2911
 1064TIP3    H124683   5.803   5.166   4.182  0.3334 -1.2128  0.8760
 1064TIP3    H224684   5.938   5.116   4.135  0.7675  1.2419 -0.5886
 1065TIP3   OH224685   4.772   5.178  12.638 -0.1448 -0.7641 -0.3210
 1065TIP3    H124686   4.693   5.223  12.609 -0.1381  0.9357  2.2160
 1065TIP3    H224687   4.839   5.204  12.575 -0.5768  1.3073  0.0539
 1066TIP3   OH224688   0.461   2.742   4.575 -0.0968 -0.6943 -0.5565
 1066TIP3    H124689   0.556   2.735   4.571  0.1724  2.5160 -1.5735
 1066TIP3    H224690   0.434   2.674   4.636  2.9363 -0.9821  0.5406
 1067TIP3   OH224691   5.657   4.654  10.802  0.3037 -0.2684 -0.3510
 1067TIP3    H124692   5.597   4.706  10.856  2.2729  1.4857  0.2093
 1067TIP3    H224693   5.623   4.664  10.713 -1.4029 -0.9706  0.1867
 1068TIP3   OH224694   1.405   4.770   5.066 -0.6265 -0.3792  0.0814
 1068TIP3    H124695   1.340   4.699   5.068 -0.1848 -0.8062 -0.7592
 1068TIP3    H224696   1.487   4.728   5.091  0.4741 -1.0546 -4.2598
 1069TIP3   OH224697   0.244   6.177  15.737 -0.0375  0.7302  0.2614
 1069TIP3    H124698   0.198   6.261  15.741  0.4072  0.9207  1.4563
 1069TIP3    H224699   0.336   6.199  15.750  0.4339  0.3413 -2.0682
 1070TIP3   OH224700   4.213   4.057   1.795  0.2604  0.1823  0.1880
 1070TIP3    H124701   4.190   4.047   1.887  0.5860  0.1371  0.2641
 1070TIP3    H224702   4.307   4.071   1.795  0.5110 -1.3701 -0.2402
 1071TIP3   OH224703   5.232   1.596   2.405  0.3961  0.0521  0.1848
 1071TIP3    H124704   5.251   1.518   2.457 -3.8923 -1.2974 -0.0597
 1071TIP3    H224705   5.145   1.624   2.434  0.7408  3.2250 -1.5701
 1072TIP3   OH224706   1.505   5.636  17.112 -0.3378  0.0629  0.0993
 1072TIP3    H124707   1.571   5.684  17.061 -0.1473 -0.0120  0.2777
 1072TIP3    H224708   1.491   5.690  17.190  0.0346 -0.2800  0.4004
 1073TIP3   OH224709   0.800   2.986   0.455 -0.4590 -0.0724 -0.2654
 1073TIP3    H124710   0.840   2.940   0.529 -0.9728 -1.6156 -0.9261
 1073TIP3    H224711   0.867   2.981   0.386  1.3458  4.1264  1.0026
 1074TIP3   OH224712   1.707   1.051   2.870  0.0884  0.0693 -0.2081
 1074TIP3    H124713   1.781   0.995   2.890  0.3184  0.3795 -0.1975
 1074TIP3    H224714   1.745   1.127   2.826  0.0065  1.1775  1.5857
 1075TIP3   OH224715   1.161   3.119  13.990 -0.5344 -0.0608 -0.6140
 1075TIP3    H124716   1.110   3.116  13.909  1.4839 -0.2386 -1.9134
 1075TIP3    H224717   1.178   3.212  14.004 -1.2051 -0.0016 -0.1839
 1076TIP3   OH224718   0.032   3.973   0.060  0.5226  0.0570  0.2977
 1076TIP3    H124719   0.086   4.041   0.019  2.9945 -0.9900  1.7244
 1076TIP3    H224720   0.034   3.900  -0.002  1.3809 -0.2382  0.6557
 1077TIP3   OH224721   4.104   2.971  14.404  0.6560 -0.9455 -0.3805
 1077TIP3    H124722   4.190   3.012  14.406  0.7421 -1.1808  0.6398
 1077TIP3    H224723   4.093   2.933  14.491 -0.2340 -1.4130 -0.6925
 1078TIP3   OH224724   4.579   1.456   4.066  0.4711  0.4844 -0.5992
 1078TIP3    H124725   4.666   1.416   4.054  0.4670 -0.0622  1.0702
 1078TIP3    H224726   4.592   1.548   4.046  1.0489  0.1085 -2.0456
 1079TIP3   OH224727   2.968   5.221   4.970  0.4835 -0.1054 -0.5318
 1079TIP3    H124728   2.899   5.228   4.903  0.6044  0.4678 -0.5989
 1079TIP3    H224729   2.946   5.288   5.034  0.4961 -0.5046 -0.1099
 1080TIP3   OH224730   5.403   4.397  12.587 -0.1832  1.0929  0.0373
 1080TIP3    H124731   5.431   4.423  12.499 -0.3441  1.2834  0.0431
 1080TIP3    H224732   5.332   4.335  12.572 -0.3527  1.2856  0.0337
 1081TIP3   OH224733   1.476   2.368  14.526  0.4982 -0.6697  0.0552
 1081TIP3    H124734   1.480   2.351  14.432  0.1456 -1.4343  0.1747
 1081TIP3    H224735   1.498   2.461  14.534 -1.8278  0.0314 -1.0003
 1082TIP3   OH224736   2.551   0.098  14.569 -0.4359  0.5324  0.3035
 1082TIP3    H124737   2.472   0.108  14.516  0.3483 -0.1533 -1.0146
 1082TIP3    H224738   2.542   0.165  14.637 -1.2507  1.7376 -0.9505
 1083TIP3   OH224739   2.144   1.041  11.458  0.0831  0.0818 -0.2247
 1083TIP3    H124740   2.152   0.974  11.390  1.0412  1.1197 -1.1365
 1083TIP3    H224741   2.214   1.021  11.520  0.2515  0.1316 -0.4000
 1084TIP3   OH224742   5.521   0.792  12.505  0.6021  0.2637  0.5256
 1084TIP3    H124743   5.535   0.724  12.440  1.4333 -0.1571  1.1304
 1084TIP3    H224744   5.428   0.814  12.498  0.7930  0.5799 -1.1303
 1085TIP3   OH224745   4.006   3.535  14.948 -0.6267 -0.5192  0.1496
 1085TIP3    H124746   3.980   3.618  14.987 -0.4526 -0.0671 -0.6844
 1085TIP3    H224747   4.084   3.508  14.997  1.8670  1.9318 -2.2856
 1086TIP3   OH224748   5.518   5.228   4.809  0.8437 -0.1432 -0.1334
 1086TIP3    H124749   5.556   5.141   4.817 -0.3840 -0.6480  0.2266
 1086TIP3    H224750   5.505   5.257   4.899 -0.4434 -0.3347 -0.2544
 1087TIP3   OH224751   5.933   5.666  13.642  0.0908  0.4753 -0.6558
 1087TIP3    H124752   5.873   5.614  13.694  1.1016 -0.3716 -0.3167
 1087TIP3    H224753   5.927   5.629  13.554 -0.1798  0.6544 -0.7128
 1088TIP3   OH224754   5.038   5.441   1.332 -0.0445  0.3243 -0.5622
 1088TIP3    H124755   5.028   5.417   1.240  1.3408  0.0597 -0.6516
 1088TIP3    H224756   4.955   5.416   1.373 -0.5518  0.1664 -1.6705
 1089TIP3   OH224757   5.662   6.595  17.137 -0.2112 -0.3449  0.5072
 1089TIP3    H124758   5.653   6.525  17.073 -0.2541 -0.2065  0.3591
 1089TIP3    H224759   5.757   6.610  17.144 -0.2842  0.8521 -0.8588
 1090TIP3   OH224760   3.357   4.958   3.807 -0.3942  0.0687  0.9107
 1090TIP3    H124761   3.449   4.977   3.790 -0.3642  0.4279  1.4415
 1090TIP3    H224762   3.309   5.018   3.749 -0.3051 -1.4784 -0.8042
 1091TIP3   OH224763   0.781   3.175  14.053 -0.8245 -0.4972 -0.1916
 1091TIP3    H124764   0.856   3.191  14.110 -1.0022  0.7066 -0.2932
 1091TIP3    H224765   0.722   3.121  14.106 -0.4459 -0.4048  0.3276
 1092TIP3   OH224766   1.833   0.791  14.329 -0.1617 -0.3347  0.9142
 1092TIP3    H124767   1.762   0.738  14.292 -1.5914  2.2899 -0.1684
 1092TIP3    H224768   1.912   0.760  14.284 -1.3872  0.4323 -1.8188
 1093TIP3   OH224769   5.419   3.686  16.940 -0.2488 -0.3060 -0.0567
 1093TIP3    H124770   5.361   3.686  16.864 -0.3553 -1.4889  0.0155
 1093TIP3    H224771   5.361   3.670  17.015 -0.0594  0.2472  0.2114
 1094TIP3   OH224772   0.631   5.330  11.555  0.1328  0.8152 -0.1523
 1094TIP3    H124773   0.596   5.405  11.508 -0.1294  1.2353  0.7138
 1094TIP3    H224774   0.559   5.266  11.555  0.7691  0.0876 -1.9471
 1095TIP3   OH224775   5.159   6.000   1.117 -0.6387 -0.0013 -0.0779
 1095TIP3    H124776   5.220   5.962   1.054  1.0785  0.4217  1.2740
 1095TIP3    H224777   5.096   5.930   1.135 -1.0648 -0.1733 -2.1201
 1096TIP3   OH224778   2.397   3.389   0.081  0.0116 -0.2575 -0.0961
 1096TIP3    H124779   2.411   3.346  -0.003  1.6291  0.0137  0.0187
 1096TIP3    H224780   2.473   3.365   0.134 -0.7839 -0.0887  1.1609
 1097TIP3   OH224781   0.456   3.384  12.550  0.0642 -0.0757  0.2432
 1097TIP3    H124782   0.480   3.388  12.458  0.3974  0.8564  0.3620
 1097TIP3    H224783   0.523   3.330  12.591 -1.2439 -2.2535 -0.4097
 1098TIP3   OH224784   4.863   4.141  17.233  0.5158  1.0908 -0.4905
 1098TIP3    H124785   4.878   4.110  17.322  0.4961 -1.1909 -1.2515
 1098TIP3    H224786   4.777   4.108  17.210  0.1486  2.4004 -1.0807
 1099TIP3   OH224787   2.157   2.330   4.925 -0.2150  0.7101  0.4321
 1099TIP3    H124788   2.139   2.254   4.870  2.0254 -0.5514  1.3347
 1099TIP3    H224789   2.072   2.357   4.959 -1.0539 -1.3973  0.0757
 1100TIP3   OH224790   6.358   2.448  15.276 -0.3085  0.3111 -0.4120
 1100TIP3    H124791   6.297   2.505  15.230  0.4727  1.8318  0.3712
 1100TIP3    H224792   6.418   2.508  15.319  1.8569 -1.1310 -1.3042
 1101TIP3   OH224793   1.184   4.727  17.070 -0.0275  0.0666  0.7032
 1101TIP3    H124794   1.114   4.672  17.105 -0.1062  0.9071  1.9302
 1101TIP3    H224795   1.260   4.706  17.124  0.7489 -0.9972 -0.7602
 1102TIP3   OH224796   5.794   0.699  14.394  0.0579 -0.4302 -0.3650
 1102TIP3    H124797   5.848   0.651  14.332  0.0050 -0.1969 -0.5894
 1102TIP3    H224798   5.856   0.750  14.446  0.1046 -0.6524 -0.1999
 1103TIP3   OH224799   0.188   0.919  16.767 -0.3556  0.3656  0.0847
 1103TIP3    H124800   0.271   0.945  16.728 -1.0773  0.8330 -1.1793
 1103TIP3    H224801   0.132   0.898  16.692 -1.5966  0.7547  0.8784
 1104TIP3   OH224802   0.279   2.188  16.420 -0.2671  0.2577 -0.4422
 1104TIP3    H124803   0.276   2.251  16.348  0.6251 -0.1010 -0.7966
 1104TIP3    H224804   0.270   2.103  16.377 -1.1677  0.1249  0.0063
 1105TIP3   OH224805   4.782   0.857  14.645 -0.9701 -0.1369  0.8776
 1105TIP3    H124806   4.857   0.903  14.681 -1.1432  0.0997  0.9368
 1105TIP3    H224807   4.730   0.832  14.721 -1.2010  0.1329  0.8125
 1106TIP3   OH224808   5.530   1.202  15.143  0.2589  0.2816 -0.8154
 1106TIP3    H124809   5.600   1.160  15.193 -0.2016 -0.5571 -0.8778
 1106TIP3    H224810   5.456   1.142  15.149 -1.1358  2.1053  1.0071
 1107TIP3   OH224811   3.196   3.450   4.728 -0.0059  0.5208  0.6281
 1107TIP3    H124812   3.130   3.384   4.747 -2.0517  2.2052 -0.3626
 1107TIP3    H224813   3.203   3.451   4.633  0.2524  1.4723  0.6423
 1108TIP3   OH224814   2.098   5.196  14.620 -0.5711 -0.5031  0.5935
 1108TIP3    H124815   2.142   5.280  14.608 -4.0061  1.3486  0.3602
 1108TIP3    H224816   2.074   5.168  14.532  0.2887 -1.5818  0.6969
 1109TIP3   OH224817   2.290   0.494  15.299 -0.8529 -0.1403 -0.0788
 1109TIP3    H124818   2.326   0.570  15.344 -2.1436 -0.5848  1.7415
 1109TIP3    H224819   2.199   0.491  15.326 -0.6584 -2.7246  0.4271
 1110TIP3   OH224820   4.841   0.643  14.005 -0.3442 -0.0191  0.2333
 1110TIP3    H124821   4.835   0.681  14.093 -0.8208  0.8560 -0.1765
 1110TIP3    H224822   4.875   0.713  13.950 -2.5259  0.2744 -0.8045
 1111TIP3   OH224823   1.558   1.527  12.777 -0.0798  0.1667 -0.0958
 1111TIP3    H124824   1.552   1.525  12.873  1.8618 -0.0022  0.0477
 1111TIP3    H224825   1.492   1.465  12.747 -0.8130  0.3458  1.1380
 1112TIP3   OH224826   3.160   6.246  13.782 -0.3908  0.5160 -0.0319
 1112TIP3    H124827   3.089   6.190  13.813 -0.8843  0.2266 -1.6563
 1112TIP3    H224828   3.165   6.316  13.847 -1.9077  0.3388  0.2964
 1113TIP3   OH224829   1.969   5.245  11.987  0.0789  0.1343 -0.0783
 1113TIP3    H124830   2.031   5.234  12.059  0.1614 -4.3026 -0.6946
 1113TIP3    H224831   1.890   5.201  12.017 -1.0321  1.2029 -1.3878
 1114TIP3   OH224832   6.226   3.393  16.374  0.1112  0.0253 -0.2350
 1114TIP3    H124833   6.251   3.392  16.466 -0.2666 -2.9426 -0.0938
 1114TIP3    H224834   6.293   3.447  16.331  0.4651  1.1600  1.7119
 1115TIP3   OH224835   0.332   5.894  15.890 -1.0257  0.4614 -0.4831
 1115TIP3    H124836   0.391   5.848  15.949 -0.3150  1.4509 -0.3937
 1115TIP3    H224837   0.370   5.982  15.883 -0.7936  0.2082 -2.8202
 1116TIP3   OH224838   2.038   1.768  14.203  0.0461 -0.1128 -0.4167
 1116TIP3    H124839   1.971   1.761  14.271  1.3645 -2.8974  0.6396
 1116TIP3    H224840   1.995   1.818  14.133 -1.9939  1.0446  1.5895
 1117TIP3   OH224841   3.215   5.771  16.272 -0.1871  0.2540 -0.3048
 1117TIP3    H124842   3.295   5.730  16.304 -1.3065 -1.3364  0.5454
 1117TIP3    H224843   3.233   5.791  16.180  0.7341 -1.2996 -0.4898
 1118TIP3   OH224844   4.199   0.397   6.513 -0.2485  0.4843  0.0884
 1118TIP3    H124845   4.226   0.463   6.448 -0.3356 -0.1109 -0.5614
 1118TIP3    H224846   4.277   0.343   6.526 -1.4141 -2.0261 -2.7465
 1119TIP3   OH224847   6.713   0.325   1.133 -0.4649 -0.0497  0.0526
 1119TIP3    H124848   6.769   0.286   1.200 -0.4996 -0.1477  0.0249
 1119TIP3    H224849   6.734   0.419   1.135 -1.5053  0.1722  1.1939
 1120TIP3   OH224850   1.586   2.320  15.408 -0.0563  0.0542 -0.2143
 1120TIP3    H124851   1.560   2.241  15.361 -1.7614  1.0509 -1.0012
 1120TIP3    H224852   1.596   2.386  15.339 -0.3770  0.9656  0.6057
 1121TIP3   OH224853   4.104   2.466   5.930  0.4759 -0.8310  0.8124
 1121TIP3    H124854   4.142   2.553   5.937  0.7898 -0.7916 -1.0881
 1121TIP3    H224855   4.155   2.412   5.991  1.2760 -0.0264  0.8570
 1122TIP3   OH224856   0.088   4.079   6.792 -0.1407  0.2268 -0.7127
 1122TIP3    H124857   0.130   4.138   6.854  1.8776  1.3555 -3.0666
 1122TIP3    H224858   0.025   4.134   6.746 -0.3475 -0.1709 -0.9068
 1123TIP3   OH224859   5.120   1.291  14.220 -0.4977  0.0535  0.7197
 1123TIP3    H124860   5.113   1.354  14.292  0.5933  0.8519  0.1380
 1123TIP3    H224861   5.078   1.212  14.253  0.5626  0.2007  2.4753
 1124TIP3   OH224862   0.766   2.952   6.377 -0.3198  0.1483 -0.8554
 1124TIP3    H124863   0.825   2.967   6.451 -0.4547 -0.9672 -0.5020
 1124TIP3    H224864   0.754   3.038   6.338 -1.0176  0.9294  1.0064
 1125TIP3   OH224865   6.636   6.280   0.975 -0.3142  0.0114 -0.2016
 1125TIP3    H124866   6.707   6.218   0.988 -0.9290 -0.6555 -0.0198
 1125TIP3    H224867   6.637   6.334   1.055  1.9051  1.9584 -1.4904
 1126TIP3   OH224868   0.740   4.859  11.931  0.4788 -0.4554 -0.2115
 1126TIP3    H124869   0.834   4.846  11.915  0.5005 -0.2355 -0.2601
 1126TIP3    H224870   0.736   4.907  12.013  0.4053 -0.4982 -0.1895
 1127TIP3   OH224871   1.363   2.962  14.098 -0.0620 -0.0916  0.2454
 1127TIP3    H124872   1.300   3.013  14.048  1.1822  0.1651 -1.1190
 1127TIP3    H224873   1.349   2.872  14.069  0.8022  0.0841 -0.7581
 1128TIP3   OH224874   4.246   6.297  13.258  0.3668  0.1813 -0.1695
 1128TIP3    H124875   4.243   6.346  13.176 -2.2360 -0.8468 -0.7271
 1128TIP3    H224876   4.158   6.304  13.294  1.1350 -0.4700  1.8990
 1129TIP3   OH224877   3.801   2.656   2.999  0.1172 -0.4295  0.0736
 1129TIP3    H124878   3.774   2.633   2.910  0.1891 -1.0812  0.2175
 1129TIP3    H224879   3.766   2.586   3.053 -1.2185  0.7277  0.7551
 1130TIP3   OH224880   4.299   5.840   5.792  0.5715  0.6707  0.7405
 1130TIP3    H124881   4.284   5.901   5.720 -1.5757 -0.5457  0.1051
 1130TIP3    H224882   4.239   5.870   5.861  1.4827  0.8877  1.4542
 1131TIP3   OH224883   6.685   1.662   1.762  0.4901  0.2186  0.5203
 1131TIP3    H124884   6.657   1.699   1.677 -0.8884 -5.0671 -1.5233
 1131TIP3    H224885   6.780   1.655   1.754  0.5219  1.0655  0.0018
 1132TIP3   OH224886   5.763   4.624   2.680 -0.8889  0.7842 -0.3852
 1132TIP3    H124887   5.691   4.627   2.743 -1.4979  1.4236 -1.1006
 1132TIP3    H224888   5.750   4.701   2.625  1.0865  1.6321  0.2806
 1133TIP3   OH224889   2.099   2.171   4.131 -0.5108 -0.0424 -0.3361
 1133TIP3    H124890   2.059   2.169   4.217 -1.6477  1.5060 -0.8054
 1133TIP3    H224891   2.027   2.154   4.070 -0.1366  0.9361 -1.0769
 1134TIP3   OH224892   1.646   2.142   1.071 -0.8004 -1.3468  0.3700
 1134TIP3    H124893   1.618   2.197   1.145 -1.8712  0.1292 -1.1088
 1134TIP3    H224894   1.716   2.191   1.029 -1.2522 -1.4473 -0.5153
 1135TIP3   OH224895   5.197   1.874  13.332  0.1879  0.0294 -0.0735
 1135TIP3    H124896   5.126   1.866  13.268 -0.4758 -1.9620  0.8656
 1135TIP3    H224897   5.268   1.918  13.285 -0.4489 -1.0119 -2.0431
 1136TIP3   OH224898   4.057   1.669  12.828 -0.1614  0.1084  0.5970
 1136TIP3    H124899   4.109   1.625  12.761 -2.5153 -1.4694 -0.2902
 1136TIP3    H224900   4.079   1.761  12.820  2.0793 -0.4553 -0.0658
 1137TIP3   OH224901   2.393   1.895   2.865  0.6322  0.5197  0.8478
 1137TIP3    H124902   2.325   1.926   2.807 -1.6310 -3.5047  1.1704
 1137TIP3    H224903   2.396   1.959   2.936 -1.8002  1.5086  0.0853
 1138TIP3   OH224904   1.645   6.600   3.410  0.5571  0.3140  0.2201
 1138TIP3    H124905   1.691   6.683   3.426  1.7716  0.0576 -1.7395
 1138TIP3    H224906   1.607   6.610   3.323  0.5966 -1.1318  0.0274
 1139TIP3   OH224907   0.714   3.227  11.586 -0.0428  0.1486 -0.1912
 1139TIP3    H124908   0.635   3.197  11.542  0.6939  1.2249 -2.3178
 1139TIP3    H224909   0.785   3.210  11.524  1.2691  0.0735  1.2970
 1140TIP3   OH224910   5.687   2.634   1.088 -0.5474 -0.0668  0.1618
 1140TIP3    H124911   5.610   2.622   1.144 -1.8096  3.2913 -0.7632
 1140TIP3    H224912   5.761   2.631   1.149 -1.3742 -2.8361  1.1225
 1141TIP3   OH224913   1.872   4.318  13.945 -0.1836  0.2972  0.3451
 1141TIP3    H124914   1.799   4.357  13.994 -0.2677  0.6736 -0.0724
 1141TIP3    H224915   1.949   4.365  13.977  0.2476 -1.8521  2.6744
 1142TIP3   OH224916   0.118   3.050  15.515  0.1050  0.4617  0.7164
 1142TIP3    H124917   0.070   3.059  15.433 -1.5799 -0.7847  1.5142
 1142TIP3    H224918   0.133   3.140  15.544  0.1081  0.9002 -0.6021
 1143TIP3   OH224919   6.055   4.655   5.280 -0.6783 -0.1804  0.4757
 1143TIP3    H124920   6.058   4.648   5.185 -0.5913 -0.9943  0.5392
 1143TIP3    H224921   6.008   4.577   5.309  1.8018 -1.4125  1.2977
 1144TIP3   OH224922   6.285   3.346  11.003 -0.8267  0.4565  0.3138
 1144TIP3    H124923   6.258   3.433  10.976 -0.0382  0.7629  0.5203
 1144TIP3    H224924   6.340   3.314  10.932 -1.3473  0.0097  0.1046
 1145TIP3   OH224925   6.453   4.955  12.692  0.3798 -0.0090  0.1162
 1145TIP3    H124926   6.527   4.922  12.742  0.9248 -1.5639 -1.6853
 1145TIP3    H224927   6.380   4.898  12.716  0.7730 -1.1078 -1.2542
 1146TIP3   OH224928   5.379   5.904  15.064  0.0184 -0.1776  0.1079
 1146TIP3    H124929   5.286   5.918  15.046 -0.0171 -0.0107  0.4233
 1146TIP3    H224930   5.384   5.894  15.159  0.5023  1.2023  0.2445
 1147TIP3   OH224931   0.142   3.634  13.775 -0.8153  0.4277 -0.4901
 1147TIP3    H124932   0.110   3.677  13.697 -0.8825 -1.6600 -1.6602
 1147TIP3    H224933   0.209   3.572  13.743  1.5651  1.8939  1.4579
 1148TIP3   OH224934   5.559   5.617   4.022  0.2061 -0.2068  0.1952
 1148TIP3    H124935   5.571   5.673   4.099 -2.3070  0.9703 -0.2114
 1148TIP3    H224936   5.466   5.627   4.000  0.2113 -2.8880 -1.1881
 1149TIP3   OH224937   3.981   5.294  12.967 -0.6298 -0.2106  0.2888
 1149TIP3    H124938   4.036   5.371  12.954 -0.9476 -0.0593 -0.1823
 1149TIP3    H224939   4.040   5.220  12.955 -0.4226 -0.0432  0.2709
 1150TIP3   OH224940   1.415   2.257  13.558 -0.4095 -0.0968  0.0986
 1150TIP3    H124941   1.470   2.333  13.580 -1.0385  0.1515  0.8105
 1150TIP3    H224942   1.431   2.243  13.465  0.8538 -0.0129  0.2856
 1151TIP3   OH224943   0.406   5.548  13.609 -0.3235 -0.1297 -0.0629
 1151TIP3    H124944   0.336   5.489  13.580 -0.4204  0.2649 -0.6269
 1151TIP3    H224945   0.408   5.537  13.704 -0.8439 -0.4876 -0.0901
 1152TIP3   OH224946   5.790   5.932  16.929  0.3638 -0.2676 -0.1972
 1152TIP3    H124947   5.789   5.944  17.023 -0.5791  0.2899 -0.2706
 1152TIP3    H224948   5.698   5.929  16.904  0.5520 -3.2847 -0.7448
 1153TIP3   OH224949   2.967   1.672  11.617 -0.0539  0.8794 -0.0502
 1153TIP3    H124950   3.032   1.742  11.604  1.0771  0.2999  2.1933
 1153TIP3    H224951   2.977   1.615  11.541  1.8129  0.9922  0.0978
 1154TIP3   OH224952   2.793   3.740   0.549 -0.2831 -0.2796 -0.7867
 1154TIP3    H124953   2.868   3.692   0.587 -1.0640 -1.6343 -0.9063
 1154TIP3    H224954   2.754   3.785   0.624 -0.1629 -0.6973 -0.4637
 1155TIP3   OH224955   1.205   2.678  15.035 -0.1789  0.2920  0.2237
 1155TIP3    H124956   1.141   2.615  15.002 -1.1486  1.6032 -0.4570
 1155TIP3    H224957   1.152   2.744  15.081  0.8823  0.1645  1.6800
 1156TIP3   OH224958   5.304   1.384   6.144  0.0824  0.1151 -0.1892
 1156TIP3    H124959   5.245   1.309   6.139 -2.0539  1.5550  2.0139
 1156TIP3    H224960   5.299   1.413   6.235  2.7043  1.5098 -0.4235
 1157TIP3   OH224961   0.998   5.930   1.083  0.2819 -1.0221 -0.2513
 1157TIP3    H124962   1.026   5.942   0.992  0.2068 -2.3347 -0.4636
 1157TIP3    H224963   1.024   5.840   1.104  0.8458 -0.5308  1.2304
 1158TIP3   OH224964   3.026   5.733  14.383  1.0604  0.6202  0.2812
 1158TIP3    H124965   3.108   5.772  14.414 -0.0079  2.0826  1.3572
 1158TIP3    H224966   2.970   5.730  14.460 -0.7210  1.8574 -0.9080
 1159TIP3   OH224967   5.456   1.254  11.691 -0.0081 -0.4066  0.0567
 1159TIP3    H124968   5.392   1.319  11.663 -0.5179 -1.0363 -0.2480
 1159TIP3    H224969   5.526   1.305  11.733 -0.2871  0.3491 -0.4009
 1160TIP3   OH224970   2.272   4.426  11.864  0.1858 -0.1999 -0.4768
 1160TIP3    H124971   2.275   4.515  11.898 -1.2236 -0.7876  1.2680
 1160TIP3    H224972   2.205   4.382  11.917  0.1027 -2.0045 -2.0082
 1161TIP3   OH224973   4.369   1.070  14.756 -0.1572 -0.2649 -0.0086
 1161TIP3    H124974   4.275   1.083  14.768 -0.0432 -1.4348  2.3561
 1161TIP3    H224975   4.378   0.975  14.745  0.9082 -0.3417  1.4663
 1162TIP3   OH224976   4.071   5.363  11.138  0.1477  0.0566  0.1622
 1162TIP3    H124977   4.140   5.299  11.121  1.5490  1.1843  1.5341
 1162TIP3    H224978   4.044   5.392  11.051  3.1636  1.4596 -0.3644
 1163TIP3   OH224979   0.959   4.762  15.166  0.3331 -0.4307  0.7049
 1163TIP3    H124980   0.928   4.819  15.236 -0.1847  0.3442 -0.1572
 1163TIP3    H224981   1.053   4.779  15.162 -0.1863  2.3052 -1.2658
 1164TIP3   OH224982   2.795   1.846   5.070  0.1881 -0.1649  0.1261
 1164TIP3    H124983   2.858   1.906   5.110  0.8103  0.1589 -1.2955
 1164TIP3    H224984   2.847   1.793   5.010 -0.5544 -1.3491  0.5101
 1165TIP3   OH224985   4.060   3.641   0.134  0.6011 -0.4147 -0.2998
 1165TIP3    H124986   3.974   3.654   0.092  0.6778  0.8367 -0.0920
 1165TIP3    H224987   4.045   3.661   0.226  1.0447 -0.4876 -0.2112
 1166TIP3   OH224988   4.076   4.509   1.260 -0.3093 -0.6665 -0.0500
 1166TIP3    H124989   3.984   4.515   1.284 -0.0270 -0.0885  0.8891
 1166TIP3    H224990   4.087   4.573   1.189 -1.1489 -2.4056 -1.8179
 1167TIP3   OH224991   1.248   1.970   4.748  0.5422  0.0072 -0.1158
 1167TIP3    H124992   1.180   1.941   4.808  2.0904  1.1400  2.2222
 1167TIP3    H224993   1.239   1.911   4.673 -2.6407 -0.2154  0.3463
 1168TIP3   OH224994   5.023   4.588   2.345 -0.1044 -0.0498 -0.2727
 1168TIP3    H124995   5.117   4.587   2.363  0.2362 -1.9976 -2.0361
 1168TIP3    H224996   5.012   4.660   2.283  0.5124 -1.0291 -1.5274
 1169TIP3   OH224997   5.066   6.208   4.253  0.2171  0.4379 -0.2818
 1169TIP3    H124998   4.993   6.178   4.307  1.4086 -1.2323  0.4581
 1169TIP3    H224999   5.054   6.162   4.169 -0.1751  0.9821 -0.5207
 1170TIP3   OH225000   6.143   1.425   5.156  0.3646  0.4549 -0.3959
 1170TIP3    H125001   6.106   1.492   5.099  1.3554  0.6805 -0.7789
 1170TIP3    H225002   6.187   1.474   5.225 -0.8208  0.1802  0.5618
 1171TIP3   OH225003   5.124   5.230  16.010  0.3055  0.4914 -0.0317
 1171TIP3    H125004   5.175   5.155  15.981  0.3094  0.5179 -0.0951
 1171TIP3    H225005   5.158   5.303  15.959  0.9147  0.7035  0.6622
 1172TIP3   OH225006   5.648   0.780  13.611  0.1540 -0.1160  0.1810
 1172TIP3    H125007   5.611   0.821  13.533 -0.1261 -1.3969 -0.3614
 1172TIP3    H225008   5.737   0.814  13.616 -0.1924  0.8433 -0.0579
 1173TIP3   OH225009   5.610   4.087   3.384 -0.0972 -0.2064 -0.5826
 1173TIP3    H125010   5.672   4.135   3.330  0.3310  0.6433  0.6448
 1173TIP3    H225011   5.524   4.109   3.347  0.0590  1.9203  0.2724
 1174TIP3   OH225012   0.775   4.950  13.798  0.2027 -0.1071 -0.0104
 1174TIP3    H125013   0.775   4.929  13.704 -0.0091  0.9773 -0.2623
 1174TIP3    H225014   0.865   4.935  13.825  0.2412 -0.5380 -0.3619
 1175TIP3   OH225015   2.883   4.170  11.890 -0.0707  0.2445 -0.3249
 1175TIP3    H125016   2.853   4.246  11.839  0.5783  0.3525 -0.5434
 1175TIP3    H225017   2.939   4.208  11.958  1.1191 -0.1451 -1.0911
 1176TIP3   OH225018   5.043   0.266   6.031 -0.1031  0.0411 -0.1630
 1176TIP3    H125019   5.066   0.173   6.024 -3.0246 -1.2458  4.7322
 1176TIP3    H225020   5.107   0.302   6.092  0.3151  0.9754 -1.1463
 1177TIP3   OH225021   4.878   5.126  16.428  0.4515  0.2934 -0.1586
 1177TIP3    H125022   4.851   5.034  16.434  0.2247  0.3497 -0.3201
 1177TIP3    H225023   4.852   5.153  16.340 -0.5294  0.8512  0.2930
 1178TIP3   OH225024   3.327   3.670   3.441 -0.5014 -0.0987 -0.0852
 1178TIP3    H125025   3.336   3.750   3.493  0.0820  0.9288 -1.7551
 1178TIP3    H225026   3.362   3.692   3.355 -0.1726 -2.2017 -0.5223
 1179TIP3   OH225027   5.138   5.177  16.508 -0.1903  0.5521  0.5242
 1179TIP3    H125028   5.042   5.173  16.509 -0.1665 -1.2848 -0.9629
 1179TIP3    H225029   5.158   5.228  16.429  0.0482 -0.9453 -0.4149
 1180TIP3   OH225030   3.552   6.271  16.392 -0.2117  0.0668 -0.0693
 1180TIP3    H125031   3.514   6.290  16.478  2.1261  0.5915  0.9055
 1180TIP3    H225032   3.516   6.185  16.369 -2.6728  0.9506  0.3413
 1181TIP3   OH225033   3.354   6.567   2.635 -0.1041  0.0522 -0.0648
 1181TIP3    H125034   3.427   6.506   2.626 -1.4832 -2.1112  2.6468
 1181TIP3    H225035   3.285   6.530   2.580 -0.3709  0.1029  0.2383
 1182TIP3   OH225036   4.226   0.863   3.748 -0.6323 -0.3973 -0.2377
 1182TIP3    H125037   4.273   0.887   3.668 -1.1960  0.4861 -0.3125
 1182TIP3    H225038   4.179   0.783   3.725 -0.4729 -0.3709 -0.6643
 1183TIP3   OH225039   5.256   3.449  14.442  0.2165 -0.1909 -0.2571
 1183TIP3    H125040   5.299   3.433  14.359  0.4555  0.5471 -0.2788
 1183TIP3    H225041   5.296   3.530  14.475  0.7356 -0.9217  0.9678
 1184TIP3   OH225042   3.834   4.497  16.619  0.2586  0.4244  0.2773
 1184TIP3    H125043   3.789   4.515  16.701 -0.5382 -0.3790  0.0299
 1184TIP3    H225044   3.795   4.415  16.588  1.2372  0.2007 -0.4145
 1185TIP3   OH225045   1.786   6.052  16.592 -0.4156 -0.0900  0.4179
 1185TIP3    H125046   1.713   6.050  16.529 -0.4845 -2.3131  0.5132
 1185TIP3    H225047   1.864   6.043  16.538 -0.4339 -1.1931  0.5462
 1186TIP3   OH225048   2.888   0.174   6.305 -0.1694  0.6808 -0.0963
 1186TIP3    H125049   2.809   0.173   6.360 -1.3283  0.5252 -1.7030
 1186TIP3    H225050   2.938   0.097   6.332 -0.4747  0.8960  1.0811
 1187TIP3   OH225051   2.309   6.567  16.079  0.0782 -1.1775 -0.5133
 1187TIP3    H125052   2.216   6.549  16.066 -0.3316 -0.0292  0.7187
 1187TIP3    H225053   2.329   6.636  16.016 -0.3790 -0.0796  0.5230
 1188TIP3   OH225054   3.256   1.508  14.358  0.2967  0.3137 -0.1072
 1188TIP3    H125055   3.266   1.548  14.445 -2.2128 -1.1936  0.9253
 1188TIP3    H225056   3.173   1.542  14.325 -0.2354 -1.3979 -0.6177
 1189TIP3   OH225057   6.012   2.456  13.326 -0.1838 -0.0908 -0.1054
 1189TIP3    H125058   5.985   2.377  13.374 -0.1224  0.3988  0.7421
 1189TIP3    H225059   6.105   2.466  13.348  0.1179 -0.4735 -1.1897
 1190TIP3   OH225060   4.804   1.548  14.890 -0.4512 -0.0561 -0.3477
 1190TIP3    H125061   4.849   1.630  14.911 -0.5509  0.3319 -1.5662
 1190TIP3    H225062   4.863   1.504  14.828 -0.1991 -1.1065  0.6267
 1191TIP3   OH225063   2.584   2.214  13.296 -1.0242  0.4021 -0.1049
 1191TIP3    H125064   2.640   2.138  13.279  0.0949  1.1449  0.1622
 1191TIP3    H225065   2.646   2.283  13.322 -2.1312  1.0397  0.8666
 1192TIP3   OH225066   4.014   6.177   3.595 -0.6098 -0.2177 -0.4753
 1192TIP3    H125067   3.969   6.202   3.676 -0.8379 -1.9698 -0.0499
 1192TIP3    H225068   3.944   6.156   3.534 -0.4352  1.0223 -1.1204
 1193TIP3   OH225069   3.188   2.729  16.246 -0.3191 -0.3996  0.1935
 1193TIP3    H125070   3.205   2.640  16.216  0.0812 -0.2974  0.1126
 1193TIP3    H225071   3.162   2.719  16.338  1.4883 -0.4553  0.7290
 1194TIP3   OH225072   4.164   6.163   4.004  0.3314  0.7120 -0.1155
 1194TIP3    H125073   4.076   6.129   4.020  1.1839 -2.2046 -1.2299
 1194TIP3    H225074   4.212   6.142   4.083  0.6371  0.1121 -0.4580
 1195TIP3   OH225075   6.712   4.489  11.850  0.3472  0.5189 -0.3197
 1195TIP3    H125076   6.775   4.534  11.793  0.8005 -1.1636 -1.1771
 1195TIP3    H225077   6.765   4.459  11.923  0.6974 -1.4550 -1.3527
 1196TIP3   OH225078   1.053   5.376  11.185  0.7641 -0.1375  0.1812
 1196TIP3    H125079   1.000   5.334  11.253 -0.1538  1.0113  0.2020
 1196TIP3    H225080   1.006   5.358  11.103  0.5654  0.5003  0.1475
 1197TIP3   OH225081   3.915   3.126  12.181  0.0977  0.5704 -0.4901
 1197TIP3    H125082   4.004   3.159  12.193  0.4644 -0.1711 -1.1334
 1197TIP3    H225083   3.898   3.135  12.087 -0.0444 -0.4455 -0.5642
 1198TIP3   OH225084   1.281   4.301  13.073  0.4944  0.4113 -0.1808
 1198TIP3    H125085   1.252   4.219  13.114  0.2192  0.0028 -1.1928
 1198TIP3    H225086   1.201   4.349  13.056  0.7073  1.3671  1.3566
 1199TIP3   OH225087   0.613   0.625  13.581  0.1432 -0.0978 -0.4396
 1199TIP3    H125088   0.527   0.588  13.562 -0.3075  0.7861 -0.1993
 1199TIP3    H225089   0.618   0.703  13.526  0.4135  0.3483  0.1993
 1200TIP3   OH225090   4.002   3.383  16.320 -0.1693 -0.6505 -0.2139
 1200TIP3    H125091   4.037   3.297  16.341 -1.5601 -1.0047  0.7354
 1200TIP3    H225092   4.079   3.435  16.295  0.9879 -1.4895  1.5013
 1201TIP3   OH225093   6.035   2.120   0.861 -0.4432  0.1633  0.0445
 1201TIP3    H125094   6.083   2.079   0.790  1.6502 -0.9636  2.0645
 1201TIP3    H225095   6.098   2.177   0.904 -2.7496  4.0390 -1.4238
 1202TIP3   OH225096   4.294   5.771  16.093 -0.0009 -0.1135 -0.0816
 1202TIP3    H125097   4.218   5.825  16.112  0.2807  0.8895 -1.6830
 1202TIP3    H225098   4.364   5.806  16.148  0.1289  1.0749 -0.9728
 1203TIP3   OH225099   2.086   3.933  11.491  0.1289 -0.6069 -0.6672
 1203TIP3    H125100   2.173   3.914  11.524 -1.3078 -0.5288  3.4432
 1203TIP3    H225101   2.050   3.847  11.467  0.6279 -0.8748 -0.4586
 1204TIP3   OH225102   4.329   0.618  13.057 -0.1060 -0.3673 -0.4647
 1204TIP3    H125103   4.314   0.698  13.006  0.6873 -0.6799 -1.2059
 1204TIP3    H225104   4.345   0.649  13.146  0.8132  0.3560 -0.8697
 1205TIP3   OH225105   2.519   4.257   2.923 -0.2966 -0.1367 -0.2678
 1205TIP3    H125106   2.540   4.223   3.010 -1.3870  0.8480  0.3984
 1205TIP3    H225107   2.556   4.346   2.922 -0.8985  0.1139 -0.5504
 1206TIP3   OH225108   5.440   0.497   4.187  0.5611  0.2927  0.0038
 1206TIP3    H125109   5.376   0.480   4.256  1.3969  0.0956  0.7451
 1206TIP3    H225110   5.466   0.410   4.157  1.4958  0.3357  0.6657
 1207TIP3   OH225111   0.142   3.234  14.712  0.0130  0.0636 -0.1436
 1207TIP3    H125112   0.191   3.156  14.739 -0.6803 -0.5754 -0.7078
 1207TIP3    H225113   0.105   3.209  14.627 -0.9380  0.7044  0.0928
 1208TIP3   OH225114   0.781   3.304   0.703  0.0986  0.3505 -0.4361
 1208TIP3    H125115   0.866   3.347   0.693 -0.2081  1.2059  0.5869
 1208TIP3    H225116   0.788   3.257   0.787 -0.5040  0.5778 -0.2585
 1209TIP3   OH225117   3.079   6.684   5.045 -0.8084 -0.0788  0.0239
 1209TIP3    H125118   3.057   6.772   5.078 -1.6741 -0.0247 -0.6791
 1209TIP3    H225119   3.166   6.694   5.007 -2.0362  1.1785 -2.5961
 1210TIP3   OH225120   4.839   5.485  15.623  0.5566  0.4142  0.1693
 1210TIP3    H125121   4.881   5.444  15.548 -0.4236  1.8813 -1.2105
 1210TIP3    H225122   4.886   5.449  15.699  0.3316 -2.5388 -0.9955
 1211TIP3   OH225123   0.394   2.884  11.876 -0.6862  0.4101 -0.7544
 1211TIP3    H125124   0.450   2.876  11.953 -1.1154  2.5541 -0.2164
 1211TIP3    H225125   0.445   2.844  11.805  0.6182  0.4063  0.1793
 1212TIP3   OH225126   0.571   3.747  13.896  0.1976 -0.0032  0.1892
 1212TIP3    H125127   0.546   3.698  13.975  2.4230 -0.2675  0.7582
 1212TIP3    H225128   0.666   3.736  13.890  0.1717  0.7138 -2.0730
 1213TIP3   OH225129   0.007   2.637   1.484 -0.4028  0.0969  0.1187
 1213TIP3    H125130   0.015   2.630   1.579  1.6669 -0.5876 -0.0830
 1213TIP3    H225131   0.095   2.657   1.454 -0.6304 -1.6322 -1.8171
 1214TIP3   OH225132   6.690   5.119  17.002  0.0124  0.0647  0.3765
 1214TIP3    H125133   6.597   5.133  16.985  0.0881  0.3026  0.1584
 1214TIP3    H225134   6.716   5.194  17.054  0.4335  0.7902 -0.8562
 1215TIP3   OH225135   0.050   6.811  14.904 -0.6303  0.6240  0.5011
 1215TIP3    H125136   0.121   6.758  14.941 -0.9449 -1.6705 -2.0139
 1215TIP3    H225137   0.092   6.862  14.835 -1.2803 -0.1559 -0.4754
 1216TIP3   OH225138   6.069   1.742   5.376 -0.3505 -0.2181  0.4033
 1216TIP3    H125139   6.066   1.746   5.281  0.4281 -0.6267  0.3578
 1216TIP3    H225140   5.978   1.748   5.404 -0.4432  1.8561 -0.2894
 1217TIP3   OH225141   5.889   0.229  10.340  0.2184  0.4815 -0.5709
 1217TIP3    H125142   5.795   0.242  10.325 -0.0150 -0.3426  0.1220
 1217TIP3    H225143   5.895   0.141  10.376  1.3397  0.2374 -1.3256
 1218TIP3   OH225144   3.759   6.782   0.335 -0.5503  0.0234 -0.1008
 1218TIP3    H125145   3.772   6.712   0.271 -0.6683 -0.3727  0.3062
 1218TIP3    H225146   3.745   6.860   0.282 -0.0662 -0.1934 -0.5606
 1219TIP3   OH225147   1.011   4.792  16.444  0.0556 -0.2147 -0.7336
 1219TIP3    H125148   1.095   4.839  16.448  0.2453 -0.3724 -2.3807
 1219TIP3    H225149   1.036   4.700  16.430 -0.3874 -0.2400 -1.3857
 1220TIP3   OH225150   3.489   6.794   6.425 -0.1348  0.5923 -0.3739
 1220TIP3    H125151   3.445   6.778   6.508 -1.6444  3.3126 -0.6032
 1220TIP3    H225152   3.549   6.866   6.443  2.2900 -1.2222 -0.7780
 1221TIP3   OH225153   6.472   0.042   3.968 -0.2061 -0.1386  0.4122
 1221TIP3    H125154   6.426  -0.039   3.989 -0.2410 -0.3005 -0.2820
 1221TIP3    H225155   6.408   0.095   3.921  0.6924 -0.9134 -1.7793
 1222TIP3   OH225156   3.924   0.621  15.725  0.3772  0.3216  0.0615
 1222TIP3    H125157   3.926   0.576  15.810 -0.3573 -0.4623 -0.3297
 1222TIP3    H225158   3.926   0.714  15.748  0.6952  0.1144  0.9223
 1223TIP3   OH225159   4.111   5.917   3.575  0.2083 -0.9457  0.0629
 1223TIP3    H125160   4.095   6.011   3.577 -1.0810 -1.1388 -0.8885
 1223TIP3    H225161   4.178   5.903   3.643  0.3345  0.6256  0.2829
 1224TIP3   OH225162   4.878   6.198   2.818  0.2467 -0.0605 -0.3270
 1224TIP3    H125163   4.817   6.271   2.808  0.7940  0.1248 -2.5889
 1224TIP3    H225164   4.962   6.233   2.789  0.4583 -1.6173 -1.6846
 1225TIP3   OH225165   4.323   6.311   4.211  0.0605  0.2494  0.7501
 1225TIP3    H125166   4.357   6.308   4.121  0.1043  0.7842  0.7453
 1225TIP3    H225167   4.323   6.404   4.233  2.9372 -0.1156  2.4222
 1226TIP3   OH225168   2.823   2.485  16.677  0.2305 -0.0674  0.5302
 1226TIP3    H125169   2.883   2.420  16.639 -0.2958 -0.7504  0.8555
 1226TIP3    H225170   2.749   2.433  16.709 -0.3447  0.7321  0.5028
 1227TIP3   OH225171   3.340   1.190   0.459 -0.2702 -0.6888 -0.2129
 1227TIP3    H125172   3.349   1.183   0.364 -1.4100 -0.7417 -0.3206
 1227TIP3    H225173   3.425   1.163   0.493  0.5512  0.4842 -1.2597
 1228TIP3   OH225174   2.584   5.514  16.195  0.2018 -0.6384 -0.3602
 1228TIP3    H125175   2.499   5.549  16.168  0.9375  1.9961  0.5307
 1228TIP3    H225176   2.647   5.556  16.137  1.1324 -0.3877  0.7999
 1229TIP3   OH225177   4.461   0.236   0.659 -0.4960 -0.2943  0.1285
 1229TIP3    H125178   4.528   0.213   0.594  0.4746 -2.2464  1.7820
 1229TIP3    H225179   4.383   0.187   0.630  0.0232 -1.4116  0.5889
 1230TIP3   OH225180   6.136   0.819  10.495  0.2735 -0.7200  0.3127
 1230TIP3    H125181   6.076   0.745  10.487  1.7507 -1.7718 -1.4131
 1230TIP3    H225182   6.203   0.788  10.556 -1.1567  0.6412  2.6524
 1231TIP3   OH225183   2.287   6.439  13.402  0.0355 -0.0290 -0.2277
 1231TIP3    H125184   2.348   6.413  13.471 -0.2751  2.1055  0.9049
 1231TIP3    H225185   2.341   6.445  13.323  0.4159 -2.3689 -0.1804
 1232TIP3   OH225186   6.718   2.951   3.480  0.4437 -0.5718  0.2404
 1232TIP3    H125187   6.758   2.864   3.487  1.4516 -0.2671 -1.4428
 1232TIP3    H225188   6.782   3.010   3.520  0.2467 -0.4696  0.4046
 1233TIP3   OH225189   3.302   0.938  15.065  0.3181  0.0835  0.1718
 1233TIP3    H125190   3.211   0.923  15.040 -0.4419  0.5548  2.5177
 1233TIP3    H225191   3.298   1.009  15.129  2.4582  0.8768 -0.5179
 1234TIP3   OH225192   0.651   5.777  11.451  0.5441 -0.4431 -0.2782
 1234TIP3    H125193   0.633   5.813  11.538 -1.4031  0.8556 -1.1863
 1234TIP3    H225194   0.733   5.820  11.425 -0.6180  1.7471 -0.4431
 1235TIP3   OH225195   5.506   4.018   5.892 -0.0198 -0.3034  0.4919
 1235TIP3    H125196   5.412   4.024   5.909  0.2801 -1.3953  2.7349
 1235TIP3    H225197   5.512   3.973   5.808 -1.5207  1.5917 -0.6840
 1236TIP3   OH225198   2.959   2.833  11.400  0.0315 -0.0712  0.2194
 1236TIP3    H125199   3.018   2.801  11.331  2.4472  1.2397  1.5802
 1236TIP3    H225200   2.995   2.796  11.481  0.8545  3.2167  1.4286
 1237TIP3   OH225201   2.605   1.094   3.197 -0.0093 -0.0859 -0.4145
 1237TIP3    H125202   2.617   1.014   3.247  1.0853 -0.2495 -0.9318
 1237TIP3    H225203   2.520   1.084   3.155 -0.4148 -0.4439  0.4922
 1238TIP3   OH225204   5.581   4.202  10.795  0.9458  0.3838 -0.6824
 1238TIP3    H125205   5.531   4.252  10.731  1.0374  1.7036  0.2719
 1238TIP3    H225206   5.600   4.119  10.750 -2.4678 -0.3462 -0.9225
 1239TIP3   OH225207   5.675   1.335  15.501  0.0089 -0.2202 -0.2395
 1239TIP3    H125208   5.736   1.404  15.528 -0.6484 -0.2759  1.3966
 1239TIP3    H225209   5.728   1.277  15.446  2.0246 -1.4135  2.8108
 1240TIP3   OH225210   2.117   1.548   1.707 -0.1326 -0.1689  0.3799
 1240TIP3    H125211   2.180   1.481   1.736 -0.6933 -1.2559 -0.8765
 1240TIP3    H225212   2.138   1.625   1.761  0.0777 -1.5444  2.3216
 1241TIP3   OH225213   0.171   2.436  15.685 -0.1016  0.0010  0.1203
 1241TIP3    H125214   0.196   2.503  15.749  1.2097  0.7739 -1.1662
 1241TIP3    H225215   0.150   2.359  15.738  0.4296  0.7834  1.5062
 1242TIP3   OH225216   3.947   1.807   1.237  0.3039 -0.1367  0.1982
 1242TIP3    H125217   3.893   1.857   1.175 -1.3318 -0.9323  0.9445
 1242TIP3    H225218   3.926   1.716   1.219  0.0848 -0.3863  1.6687
 1243TIP3   OH225219   5.876   4.125   0.728  0.3212 -0.9072 -0.6062
 1243TIP3    H125220   5.890   4.042   0.775 -0.0612 -0.6933 -0.1053
 1243TIP3    H225221   5.916   4.191   0.784 -0.9067 -0.5418 -0.1539
 1244TIP3   OH225222   3.885   1.527  12.999 -0.5606 -0.3128 -0.1020
 1244TIP3    H125223   3.800   1.517  12.957 -0.0561 -0.8370 -1.0019
 1244TIP3    H225224   3.939   1.572  12.934 -0.7453  1.9227  1.2391
 1245TIP3   OH225225   0.982   4.214   2.540  0.3624  0.0992 -0.1564
 1245TIP3    H125226   1.019   4.224   2.627  0.3596 -0.1826 -0.1243
 1245TIP3    H225227   0.931   4.294   2.526  2.2984  1.2476 -0.8471
 1246TIP3   OH225228   1.747   6.711   4.106 -0.2987  0.2002 -1.0059
 1246TIP3    H125229   1.758   6.781   4.171  0.0715  0.5493 -1.4471
 1246TIP3    H225230   1.705   6.640   4.155  0.2925  0.3316 -0.2943
 1247TIP3   OH225231   2.836   0.956   1.730  0.0167  0.4479  0.0933
 1247TIP3    H125232   2.817   0.949   1.824  0.2250  2.0311  0.2695
 1247TIP3    H225233   2.796   1.039   1.704 -0.1440 -0.0410 -1.2567
 1248TIP3   OH225234   2.158   2.346  12.728 -0.4771 -0.0492  0.0493
 1248TIP3    H125235   2.069   2.311  12.737 -0.8794  1.5158  2.4871
 1248TIP3    H225236   2.149   2.440  12.743  1.3026  0.4413 -1.7388
 1249TIP3   OH225237   3.359   6.094   0.337 -0.2303  0.0938  0.4151
 1249TIP3    H125238   3.297   6.022   0.325  1.8032 -1.5152 -0.6677
 1249TIP3    H225239   3.424   6.059   0.398  1.6142  0.4640 -1.3129
 1250TIP3   OH225240   4.045   3.987   3.380  0.0693  0.3431  0.2741
 1250TIP3    H125241   4.128   4.002   3.426  0.5641  1.8502 -1.0594
 1250TIP3    H225242   4.043   3.892   3.365  0.8433  0.0996  1.6018
 1251TIP3   OH225243   6.268   5.659  13.623 -0.3567 -0.1221 -0.2948
 1251TIP3    H125244   6.295   5.575  13.660 -0.1931 -0.0980 -0.3596
 1251TIP3    H225245   6.211   5.637  13.550  2.6619 -0.2651 -2.6844
 1252TIP3   OH225246   5.282   2.911   0.047  0.1709 -0.1057  0.2145
 1252TIP3    H125247   5.244   2.959  -0.026  0.1091 -0.6191 -0.0940
 1252TIP3    H225248   5.314   2.829   0.008  1.0935  0.0837  0.5631
 1253TIP3   OH225249   3.362   1.420  12.917  0.0112 -0.2243  0.1797
 1253TIP3    H125250   3.280   1.377  12.895  0.5924 -0.7609 -0.9227
 1253TIP3    H225251   3.340   1.514  12.917 -0.6302 -0.3703  0.0531
 1254TIP3   OH225252   6.243   4.042  15.047 -0.5491 -0.5631 -0.2245
 1254TIP3    H125253   6.288   4.119  15.081  1.3521 -1.9793  0.5399
 1254TIP3    H225254   6.227   4.062  14.954 -0.1127  0.7412 -0.0229
 1255TIP3   OH225255   0.080   2.927   2.410 -0.1530 -0.0399 -0.0878
 1255TIP3    H125256   0.146   2.970   2.465  1.2821 -1.6948 -0.4406
 1255TIP3    H225257  -0.001   2.974   2.427  0.8252  1.1099  1.4876
 1256TIP3   OH225258   2.590   5.750  11.348 -0.3090 -0.0384  0.2554
 1256TIP3    H125259   2.674   5.742  11.303 -0.3399 -0.1343  0.2165
 1256TIP3    H225260   2.525   5.721  11.284 -0.2852 -0.9056  0.6230
 1257TIP3   OH225261   1.312   5.043   4.696  0.1420 -0.1244  0.0473
 1257TIP3    H125262   1.302   5.017   4.788 -1.6618  0.7988  0.1540
 1257TIP3    H225263   1.399   5.014   4.671 -0.4828 -3.0745  1.1659
 1258TIP3   OH225264   0.941   5.730   0.239 -0.1408  0.2487  0.0607
 1258TIP3    H125265   0.930   5.731   0.334  1.4447 -0.8574  0.2783
 1258TIP3    H225266   0.928   5.821   0.213 -0.4226  0.5976  1.3589
 1259TIP3   OH225267   4.702   1.691  17.112  0.1614  0.0578  0.0762
 1259TIP3    H125268   4.632   1.716  17.051  0.3958  2.3876  0.7190
 1259TIP3    H225269   4.659   1.633  17.174 -0.4927 -0.9363 -1.2688
 1260TIP3   OH225270   1.113   4.260   5.875  0.1753  0.3722  0.3517
 1260TIP3    H125271   1.104   4.249   5.970 -1.0362 -0.8470  0.1088
 1260TIP3    H225272   1.024   4.275   5.844  0.6660  1.6906 -0.5056
 1261TIP3   OH225273   0.745   1.426  16.057 -0.1671 -0.4356 -0.2528
 1261TIP3    H125274   0.720   1.417  16.149  0.5931 -1.0128 -0.0971
 1261TIP3    H225275   0.705   1.350  16.014  0.8076 -1.0458 -0.1058
 1262TIP3   OH225276   4.854   1.135  13.556  0.3134 -0.0375  0.1421
 1262TIP3    H125277   4.876   1.160  13.646  1.4502 -0.3572 -0.0436
 1262TIP3    H225278   4.904   1.055  13.540 -1.5167 -1.1688 -0.0642
 1263TIP3   OH225279   1.533   2.684  13.208 -0.5168  0.0017 -0.2538
 1263TIP3    H125280   1.459   2.737  13.235  0.0619  0.8931 -0.3961
 1263TIP3    H225281   1.495   2.615  13.153 -1.4952 -0.9158  1.5548
 1264TIP3   OH225282   3.383   6.296  10.858 -0.2928 -0.1607  0.1185
 1264TIP3    H125283   3.429   6.378  10.837 -2.3669  1.0450  0.1743
 1264TIP3    H225284   3.363   6.257  10.773 -2.0278  0.9558 -0.0077
 1265TIP3   OH225285   1.198   5.541  12.454 -0.0983 -0.1767  0.2388
 1265TIP3    H125286   1.205   5.508  12.543  0.2369 -0.4988  0.0921
 1265TIP3    H225287   1.263   5.491  12.404  0.0988  0.3873 -0.0736
 1266TIP3   OH225288   0.100   6.183  13.301 -0.1828 -0.2184  0.3810
 1266TIP3    H125289   0.146   6.251  13.253 -0.3303 -0.0283  0.5086
 1266TIP3    H225290   0.039   6.146  13.238  0.5341 -0.8492  0.0532
 1267TIP3   OH225291   2.310   3.578  13.093 -0.4023  0.0353 -0.5638
 1267TIP3    H125292   2.273   3.500  13.052  0.4888 -0.4300 -0.5002
 1267TIP3    H225293   2.234   3.633  13.114 -1.2188 -1.6654  1.1274
 1268TIP3   OH225294   1.773   5.523   2.920 -0.3496 -0.5784  0.0380
 1268TIP3    H125295   1.752   5.432   2.942  0.1006 -0.2107  2.0409
 1268TIP3    H225296   1.847   5.516   2.859 -0.5903 -1.5553 -0.1537
 1269TIP3   OH225297   0.487   1.655  13.720 -0.1625  0.2618 -0.0928
 1269TIP3    H125298   0.507   1.581  13.777  1.3956  1.4828  0.9841
 1269TIP3    H225299   0.495   1.619  13.631 -1.5711 -1.3881  0.4293
 1270TIP3   OH225300   5.347   4.518   0.533  0.2069  0.1661 -0.1457
 1270TIP3    H125301   5.328   4.451   0.598 -1.1691 -0.4892 -1.2109
 1270TIP3    H225302   5.276   4.582   0.542 -0.1755 -0.0932 -1.2122
 1271TIP3   OH225303   2.743   6.805   2.031 -0.3544  0.0405 -0.2904
 1271TIP3    H125304   2.787   6.885   2.004  1.1885 -1.0891 -1.1640
 1271TIP3    H225305   2.811   6.752   2.071 -0.8067 -1.8733 -1.9583
 1272TIP3   OH225306   0.544   0.991  11.794  0.2058  0.2962 -0.5381
 1272TIP3    H125307   0.581   0.949  11.716 -0.3292 -0.4562 -0.3920
 1272TIP3    H225308   0.517   0.918  11.850  0.1855  0.8348  0.1607
 1273TIP3   OH225309   1.687   4.654   2.653 -0.3479  0.5956 -0.1241
 1273TIP3    H125310   1.752   4.615   2.596 -1.0659 -0.7454 -0.0375
 1273TIP3    H225311   1.738   4.710   2.712  0.6370  0.1422 -0.5289
 1274TIP3   OH225312   5.178   1.167   3.893  0.2661 -0.0736 -0.4253
 1274TIP3    H125313   5.261   1.154   3.938  0.4482  0.3532 -0.6410
 1274TIP3    H225314   5.201   1.169   3.800  0.1948  1.4248 -0.4209
 1275TIP3   OH225315   2.001   3.878   4.212 -0.1753  0.4719 -0.1944
 1275TIP3    H125316   2.087   3.859   4.249  0.0442  1.6196 -0.0943
 1275TIP3    H225317   1.956   3.929   4.279 -1.0142 -0.2916 -0.1618
 1276TIP3   OH225318   2.666   4.267  16.559  0.1108 -0.0069  0.0425
 1276TIP3    H125319   2.668   4.179  16.522 -3.0412  0.0556 -0.4883
 1276TIP3    H225320   2.712   4.259  16.643  0.4113 -2.0261 -0.2861
 1277TIP3   OH225321   4.584   4.299  16.060 -0.2403  0.7631  0.1690
 1277TIP3    H125322   4.655   4.290  16.123  0.1950  1.3774 -0.2297
 1277TIP3    H225323   4.618   4.258  15.980 -0.8139 -0.0757  0.3396
 1278TIP3   OH225324   4.228   3.193   1.469  0.6478  0.3667  0.1480
 1278TIP3    H125325   4.192   3.273   1.429  0.7151  0.9839  1.2801
 1278TIP3    H225326   4.321   3.211   1.478  0.6307  0.2553  0.5942
 1279TIP3   OH225327   1.622   4.852  13.690  0.1184 -0.4659 -0.0839
 1279TIP3    H125328   1.543   4.861  13.638  1.0602 -0.5476 -1.5386
 1279TIP3    H225329   1.693   4.846  13.626  1.3586  0.1115  1.2058
 1280TIP3   OH225330   0.424   3.434  11.512  0.1733 -0.6829  0.4683
 1280TIP3    H125331   0.335   3.465  11.523  0.3095 -0.2030  0.2348
 1280TIP3    H225332   0.455   3.418  11.602  0.5690  1.2083  0.6841
 1281TIP3   OH225333   2.751   5.730   0.007 -0.6507  0.0905 -0.0417
 1281TIP3    H125334   2.813   5.728  -0.067  0.2382 -2.3950  0.6973
 1281TIP3    H225335   2.672   5.768  -0.030 -0.0962 -0.7410 -2.2220
 1282TIP3   OH225336   2.412   4.311  12.260 -0.5938  0.1452  0.0257
 1282TIP3    H125337   2.486   4.307  12.321 -1.3010 -0.2426  0.8671
 1282TIP3    H225338   2.441   4.262  12.184  0.5826  1.2683 -0.2639
 1283TIP3   OH225339   4.238   3.874   5.168 -0.1668  0.0592  0.4716
 1283TIP3    H125340   4.170   3.834   5.113 -1.2042  0.9781  1.0677
 1283TIP3    H225341   4.290   3.800   5.199  0.1654 -0.5046 -1.3895
 1284TIP3   OH225342   2.561   1.025  11.842 -0.1647  0.0348 -0.2299
 1284TIP3    H125343   2.512   1.082  11.901  0.8952 -1.3946  2.1374
 1284TIP3    H225344   2.499   0.956  11.818 -0.1105 -0.3017  0.5881
 1285TIP3   OH225345   6.552   0.177   6.183  1.1608 -0.5957  0.9418
 1285TIP3    H125346   6.602   0.181   6.101 -1.9883  1.2990 -0.9959
 1285TIP3    H225347   6.526   0.085   6.191  0.9517 -0.6812 -0.5593
 1286TIP3   OH225348   0.042   3.089   1.838 -0.1662  0.2236 -0.1399
 1286TIP3    H125349  -0.020   3.120   1.772  0.6757  0.5845 -0.7687
 1286TIP3    H225350   0.004   3.007   1.870 -0.9621  0.4373 -0.5196
 1287TIP3   OH225351   3.361   1.283   2.551  0.0401 -0.1178 -0.1704
 1287TIP3    H125352   3.300   1.211   2.569 -1.0473  0.7913 -0.2049
 1287TIP3    H225353   3.313   1.340   2.491  1.3478  0.0293 -1.0927
 1288TIP3   OH225354   6.400   5.433   3.264 -0.8307  0.5296  0.5504
 1288TIP3    H125355   6.398   5.461   3.172 -0.4036 -0.8701  0.1113
 1288TIP3    H225356   6.309   5.445   3.294 -1.5352 -1.3375 -0.7649
 1289TIP3   OH225357   6.676   3.238   2.980  0.2360  0.4271  0.6231
 1289TIP3    H125358   6.671   3.276   2.892  0.3792 -1.7116 -0.3566
 1289TIP3    H225359   6.769   3.241   3.002  0.2819  0.4332  0.4306
 1290TIP3   OH225360   4.255   2.349   5.162  0.4642  0.4476 -0.1584
 1290TIP3    H125361   4.337   2.382   5.126 -0.2002  1.4864 -0.7309
 1290TIP3    H225362   4.261   2.368   5.256  1.2632 -0.2949 -0.0575
 1291TIP3   OH225363   1.186   5.192   6.522 -0.0268  0.2384 -0.2127
 1291TIP3    H125364   1.250   5.128   6.550 -0.4105  0.6890  1.7699
 1291TIP3    H225365   1.215   5.219   6.435 -0.1429 -2.9559 -1.2912
 1292TIP3   OH225366   3.510   1.069  15.388  0.2576  0.3811  0.0764
 1292TIP3    H125367   3.586   1.025  15.426 -1.9061 -2.1201  1.6430
 1292TIP3    H225368   3.513   1.049  15.295  1.6476  0.5453  0.0788
 1293TIP3   OH225369   4.550   5.703  11.592  0.3477 -0.5421 -0.8996
 1293TIP3    H125370   4.551   5.639  11.521  2.0309 -0.1970 -1.1942
 1293TIP3    H225371   4.523   5.785  11.551  0.5979 -0.5064 -0.9904
 1294TIP3   OH225372   0.135   0.454  12.860 -0.2270  0.1162  0.2971
 1294TIP3    H125373   0.178   0.494  12.935  0.6865 -0.5965  0.1602
 1294TIP3    H225374   0.055   0.506  12.847  1.1675  2.2203 -0.1854
 1295TIP3   OH225375   0.064   5.040  15.166 -0.6274  0.0608  0.2939
 1295TIP3    H125376   0.013   4.965  15.135 -0.7411  0.0859  0.4190
 1295TIP3    H225377   0.001   5.112  15.171 -0.3254  0.4001 -0.7180
 1296TIP3   OH225378   4.137   2.968  15.474  0.7331 -0.1848  0.4055
 1296TIP3    H125379   4.185   3.001  15.397  0.1841 -1.2558 -0.4008
 1296TIP3    H225380   4.123   2.875  15.456  0.2366 -0.3545  1.6219
 1297TIP3   OH225381   6.737   2.646   1.780 -0.0106 -0.0285  0.7177
 1297TIP3    H125382   6.711   2.734   1.752 -0.3451  0.2625  1.9368
 1297TIP3    H225383   6.753   2.653   1.874 -1.2925 -1.5502  1.0848
 1298TIP3   OH225384   4.245   4.938  12.445 -0.2748  0.8573 -0.2145
 1298TIP3    H125385   4.188   5.015  12.448 -0.5971  0.6001  0.1560
 1298TIP3    H225386   4.270   4.931  12.353  0.9156  2.2562 -0.0143
 1299TIP3   OH225387   1.852   0.207   3.668  0.1290  0.1337 -0.5034
 1299TIP3    H125388   1.775   0.249   3.704  0.4711  2.1866 -2.0606
 1299TIP3    H225389   1.893   0.163   3.742 -2.5459 -1.0565  0.3218
 1300TIP3   OH225390   1.240   6.733   4.535  0.3645 -0.1703  0.6640
 1300TIP3    H125391   1.165   6.709   4.481  2.5709 -1.0170 -2.1230
 1300TIP3    H225392   1.252   6.827   4.519  0.9942 -0.4127 -0.2873
 1301TIP3   OH225393   2.461   5.859   5.135  0.0913  0.0520  0.0276
 1301TIP3    H125394   2.419   5.865   5.049  1.9495  1.1974 -0.8384
 1301TIP3    H225395   2.483   5.767   5.145 -0.4133 -0.1398 -0.5760
 1302TIP3   OH225396   6.571   6.320   4.530 -0.1163  0.0480 -0.6128
 1302TIP3    H125397   6.571   6.228   4.500  0.0872 -0.8461  2.0291
 1302TIP3    H225398   6.480   6.337   4.554  0.0643  0.1364  0.0248
 1303TIP3   OH225399   6.558   6.005  16.273 -0.2020  0.1282 -0.1703
 1303TIP3    H125400   6.581   6.030  16.183 -0.7223  0.4766 -0.2062
 1303TIP3    H225401   6.635   6.028  16.324 -1.3816  3.7001  0.1237
 1304TIP3   OH225402   5.247   1.610  10.542  0.5609  0.0867  0.3313
 1304TIP3    H125403   5.328   1.653  10.569  0.3704  0.6675  0.0065
 1304TIP3    H225404   5.273   1.551  10.472  0.5069  1.3206 -0.7650
 1305TIP3   OH225405   2.532   4.050   4.696 -0.1233 -0.2013  0.1782
 1305TIP3    H125406   2.449   4.003   4.683  0.5541 -1.1918 -0.6506
 1305TIP3    H225407   2.588   3.987   4.742 -0.3863  1.0681  2.3030
 1306TIP3   OH225408   2.108   5.734  16.956  0.1501  0.5736 -0.2074
 1306TIP3    H125409   2.071   5.710  16.871 -0.6414  0.4680  0.1653
 1306TIP3    H225410   2.098   5.656  17.010 -0.2070  0.9393  0.2680
 1307TIP3   OH225411   4.070   5.108  15.081 -0.3641  0.0550 -0.2031
 1307TIP3    H125412   4.008   5.178  15.060  0.9616  1.3829  0.2476
 1307TIP3    H225413   4.114   5.090  14.998 -1.3478 -0.9008 -0.5274
 1308TIP3   OH225414   0.646   3.077  16.679  0.1890 -0.6176  0.0743
 1308TIP3    H125415   0.679   2.991  16.704  1.3032  0.1520  1.2902
 1308TIP3    H225416   0.551   3.072  16.695  0.4397 -1.1745  1.4199
 1309TIP3   OH225417   2.262   3.166   5.608 -0.4466  0.7521 -0.0028
 1309TIP3    H125418   2.182   3.217   5.621 -2.4156 -2.2528  0.3903
 1309TIP3    H225419   2.293   3.147   5.696 -0.4822  0.2204 -0.0983
 1310TIP3   OH225420   4.086   4.301  16.098  0.3797  0.4879  0.0251
 1310TIP3    H125421   3.995   4.270  16.097  0.6056 -0.1506 -2.4692
 1310TIP3    H225422   4.102   4.333  16.009  2.2029  1.8023  0.7924
 1311TIP3   OH225423   1.241   3.031   1.305  0.0283  0.1159  0.2896
 1311TIP3    H125424   1.199   3.080   1.376 -1.1896 -1.2148  0.5112
 1311TIP3    H225425   1.291   2.963   1.349  1.8734  1.2139 -0.0125
 1312TIP3   OH225426   1.187   6.724   1.653 -0.3292  0.4297  0.1737
 1312TIP3    H125427   1.126   6.778   1.702 -0.4962 -0.0256  0.4642
 1312TIP3    H225428   1.231   6.670   1.719  0.0615  0.4332 -0.0801
 1313TIP3   OH225429   1.958   1.557  11.279 -0.2033 -0.1677  0.9016
 1313TIP3    H125430   1.955   1.643  11.320 -0.0081  0.1561  0.2515
 1313TIP3    H225431   1.918   1.571  11.193  1.4523 -0.3190  0.0863
 1314TIP3   OH225432   5.916   2.964   5.884 -0.2697  0.1535 -0.4681
 1314TIP3    H125433   5.980   2.893   5.894 -0.6875 -0.3148 -1.0894
 1314TIP3    H225434   5.948   3.033   5.941 -0.0288 -0.6567  0.3847
 1315TIP3   OH225435   5.342   3.257   6.015  0.0890 -0.4109  0.1620
 1315TIP3    H125436   5.370   3.240   6.106 -1.1283 -0.0474  0.6160
 1315TIP3    H225437   5.348   3.352   6.005  0.5262 -0.4816 -0.2415
 1316TIP3   OH225438   4.535   3.310  11.718 -0.2200 -0.5932  0.3853
 1316TIP3    H125439   4.544   3.392  11.767 -1.2970 -1.0535  1.3939
 1316TIP3    H225440   4.493   3.336  11.636  0.8475  0.0763  0.0427
 1317TIP3   OH225441   0.957   0.861   4.766  0.0323 -0.5172  0.2715
 1317TIP3    H125442   0.987   0.820   4.847  0.7342  1.4961  1.0511
 1317TIP3    H225443   1.038   0.877   4.716 -0.2826 -0.5784 -0.2660
 1318TIP3   OH225444   4.978   2.775   2.913 -0.5278 -0.3968 -0.2406
 1318TIP3    H125445   4.885   2.796   2.912 -0.6124 -0.6744  0.8866
 1318TIP3    H225446   5.005   2.790   3.004 -0.0155 -2.6762  0.0176
 1319TIP3   OH225447   2.171   4.824  12.649 -0.0219  0.2080 -0.1237
 1319TIP3    H125448   2.242   4.768  12.678 -0.4179  0.1240  0.7047
 1319TIP3    H225449   2.165   4.892  12.716 -0.1062  0.7602 -0.6783
 1320TIP3   OH225450   6.429   6.732   2.341 -0.0339  0.3011  0.2966
 1320TIP3    H125451   6.495   6.663   2.339 -0.5129 -0.1744  1.0300
 1320TIP3    H225452   6.480   6.813   2.337  0.7039 -0.0257  2.5035
 1321TIP3   OH225453   0.347   0.052   3.805 -0.6087 -0.3478 -0.8560
 1321TIP3    H125454   0.257   0.084   3.806  0.3858  2.5323 -0.0023
 1321TIP3    H225455   0.362   0.024   3.715 -1.9362  0.3894 -1.3161
 1322TIP3   OH225456   4.169   4.151   5.315  0.4628  0.4665 -0.1819
 1322TIP3    H125457   4.253   4.112   5.341 -0.4635 -0.9799  0.6935
 1322TIP3    H225458   4.153   4.219   5.381  0.2134 -0.2722  0.5178
 1323TIP3   OH225459   4.340   2.312   2.820  0.1133  0.2581  0.1950
 1323TIP3    H125460   4.385   2.340   2.899  0.4058  1.1219 -0.2700
 1323TIP3    H225461   4.374   2.370   2.751 -1.1656  0.4383 -0.3006
 1324TIP3   OH225462   2.023   0.439  11.340 -0.4058 -0.0090 -0.1724
 1324TIP3    H125463   2.111   0.414  11.368 -1.2864 -0.1262  2.7594
 1324TIP3    H225464   2.036   0.515  11.284  1.6038 -0.3525 -0.2045
 1325TIP3   OH225465   0.436   4.601   3.465 -0.2550  0.8333  0.1458
 1325TIP3    H125466   0.524   4.614   3.428 -0.7625  2.1018 -0.6596
 1325TIP3    H225467   0.451   4.577   3.556  1.0551 -2.6891 -0.9177
 1326TIP3   OH225468   1.033   1.159   1.474  0.1887 -0.0739  0.3078
 1326TIP3    H125469   1.013   1.212   1.397 -0.0152  0.2232  0.5650
 1326TIP3    H225470   1.073   1.220   1.535 -2.3586  0.3736  1.5943
 1327TIP3   OH225471   2.302   2.767   4.715 -0.1591 -0.5986  0.3874
 1327TIP3    H125472   2.243   2.700   4.749 -1.1199  0.8337  1.5962
 1327TIP3    H225473   2.254   2.806   4.641  0.5527 -1.4837 -0.5495
 1328TIP3   OH225474   0.942   1.432   3.263  0.3958 -0.0081  0.0279
 1328TIP3    H125475   0.974   1.378   3.335 -2.1687 -2.2031 -0.4202
 1328TIP3    H225476   0.944   1.374   3.187  0.4327  1.4621 -1.1120
 1329TIP3   OH225477   3.442   2.400   3.906  0.5774  0.1311 -0.0669
 1329TIP3    H125478   3.350   2.374   3.918  0.3458  1.1805  0.4942
 1329TIP3    H225479   3.464   2.368   3.818 -0.1633 -0.5791 -0.0097
 1330TIP3   OH225480   5.754   1.639   6.051  0.1791 -0.1134 -0.1476
 1330TIP3    H125481   5.706   1.558   6.069 -2.0975  1.1702 -0.2337
 1330TIP3    H225482   5.790   1.664   6.136 -3.3000  1.3602  0.9982
 1331TIP3   OH225483   0.585   1.870  15.089 -0.8940 -0.5976 -0.0898
 1331TIP3    H125484   0.528   1.879  15.012  0.0445  1.5507 -0.5646
 1331TIP3    H225485   0.659   1.819  15.057  0.1574  1.4701 -1.0080
 1332TIP3   OH225486   5.106   6.134  15.866  0.6947 -0.3525  0.9220
 1332TIP3    H125487   5.110   6.177  15.781  2.6909  0.7076  1.5114
 1332TIP3    H225488   5.022   6.089  15.866  0.8551 -0.7587 -1.7835
 1333TIP3   OH225489   6.463   6.284  11.243 -0.1627  0.1179  0.0557
 1333TIP3    H125490   6.368   6.272  11.241 -0.2595  0.9073 -0.3703
 1333TIP3    H225491   6.483   6.329  11.161  0.5297  0.3086  0.3283
 1334TIP3   OH225492   5.128   4.774  16.581 -0.4085  0.4670 -0.2329
 1334TIP3    H125493   5.156   4.865  16.572 -0.2221  0.6617  2.0552
 1334TIP3    H225494   5.038   4.779  16.613 -0.5415 -0.1568 -0.4892
 1335TIP3   OH225495   4.204   0.840  16.810  0.0936 -0.1119 -0.4677
 1335TIP3    H125496   4.200   0.901  16.736  2.2832  0.6756  0.0385
 1335TIP3    H225497   4.267   0.879  16.870 -1.8293 -0.6514  1.9545
 1336TIP3   OH225498   3.692   5.339  15.544 -0.0874 -0.6028 -0.2073
 1336TIP3    H125499   3.630   5.388  15.490  0.3023 -0.5047 -0.5606
 1336TIP3    H225500   3.729   5.404  15.603  0.5779 -0.4385 -0.8118
 1337TIP3   OH225501   0.190   4.760  12.714  0.5999  0.6419 -0.4039
 1337TIP3    H125502   0.269   4.715  12.744  0.5784  1.6607  1.1975
 1337TIP3    H225503   0.174   4.723  12.626  1.7010 -1.0152  0.0646
 1338TIP3   OH225504   0.360   2.432  16.579  0.6193  0.1314 -0.1711
 1338TIP3    H125505   0.344   2.405  16.489  1.2914  2.3532 -0.9864
 1338TIP3    H225506   0.383   2.351  16.625  1.7085 -0.7992 -2.3159
 1339TIP3   OH225507   2.349   0.336   1.530 -0.5523 -0.8019  0.0873
 1339TIP3    H125508   2.304   0.419   1.548 -2.2949 -1.6086 -0.3911
 1339TIP3    H225509   2.313   0.307   1.447  2.1264 -0.6814 -1.1489
 1340TIP3   OH225510   1.889   6.714   0.261 -0.4183  0.0773  0.1294
 1340TIP3    H125511   1.914   6.646   0.199  1.3522 -0.8405  1.7971
 1340TIP3    H225512   1.878   6.792   0.207  1.6246 -0.5565 -1.2716
 1341TIP3   OH225513   0.612   1.180  15.917 -0.1088 -0.2067  0.4682
 1341TIP3    H125514   0.648   1.251  15.864 -2.0128  0.5813  0.2209
 1341TIP3    H225515   0.519   1.179  15.896 -0.6816 -0.6457  2.9174
 1342TIP3   OH225516   0.662   3.467  17.290 -0.4569 -0.0367 -0.0347
 1342TIP3    H125517   0.633   3.525  17.220 -5.2648 -1.1003  0.8714
 1342TIP3    H225518   0.674   3.524  17.366 -0.5347  0.4166 -0.3639
 1343TIP3   OH225519   4.294   0.718  15.329  0.2310 -0.2129 -0.0205
 1343TIP3    H125520   4.283   0.668  15.248  0.4865  1.4412 -1.0934
 1343TIP3    H225521   4.216   0.773  15.334 -0.7602 -1.7092  1.9110
 1344TIP3   OH225522   0.908   2.918  16.315  0.0965  0.8600  0.3431
 1344TIP3    H125523   0.829   2.867  16.332  1.1882 -0.5931  1.2404
 1344TIP3    H225524   0.879   3.009  16.312 -1.6942  0.2908  0.0183
 1345TIP3   OH225525   3.942   4.884  11.713  0.6284  0.4020 -0.1320
 1345TIP3    H125526   3.970   4.855  11.800 -2.4129  2.4422  1.6064
 1345TIP3    H225527   3.878   4.818  11.685  1.4715 -0.1555 -0.7751
 1346TIP3   OH225528   5.063   5.124  13.283 -0.2697 -0.1474  0.9056
 1346TIP3    H125529   5.097   5.203  13.241 -0.2305 -0.4534  0.3595
 1346TIP3    H225530   4.988   5.098  13.229  0.7892 -1.4961  0.0390
 1347TIP3   OH225531   5.113   0.674  16.630  0.3436  0.2895  0.3745
 1347TIP3    H125532   5.032   0.723  16.625  0.0114 -0.1584  1.3150
 1347TIP3    H225533   5.095   0.602  16.691  0.8288 -0.9854 -0.9409
 1348TIP3   OH225534   3.741   3.551   5.252  0.2377 -0.1795  0.6235
 1348TIP3    H125535   3.816   3.503   5.215 -0.1883 -0.6805  0.4068
 1348TIP3    H225536   3.669   3.531   5.193 -0.3948 -0.7983  1.5991
 1349TIP3   OH225537   3.566   0.738  14.163  0.1795  0.2378 -0.7211
 1349TIP3    H125538   3.638   0.685  14.199 -0.2503  0.3350  0.3172
 1349TIP3    H225539   3.503   0.673  14.132 -0.7249  0.0914  1.3115
 1350TIP3   OH225540   5.194   0.810  12.494  0.0250  0.8016 -0.0478
 1350TIP3    H125541   5.192   0.749  12.420 -0.2053  0.5980  0.1241
 1350TIP3    H225542   5.186   0.896  12.455  0.2990  0.7197 -0.2896
 1351TIP3   OH225543   1.054   6.115   6.775  0.4255 -0.6412 -0.3838
 1351TIP3    H125544   1.089   6.046   6.719  1.7270 -0.7378  0.5341
 1351TIP3    H225545   0.963   6.088   6.791  0.7901 -1.9336 -0.3721
 1352TIP3   OH225546   5.015   6.214   4.595  0.1201  0.4348  0.1462
 1352TIP3    H125547   4.981   6.238   4.681 -0.0134 -1.9005  0.7530
 1352TIP3    H225548   4.937   6.191   4.544  0.2331  1.4513 -0.5080
 1353TIP3   OH225549   5.778   5.773   1.414 -0.0339 -0.0075  0.4565
 1353TIP3    H125550   5.844   5.837   1.439 -1.3221  1.2972  0.6171
 1353TIP3    H225551   5.761   5.723   1.495 -2.0012  2.2111  1.4851
 1354TIP3   OH225552   2.274   0.599  16.281  0.1325 -0.2836  0.2590
 1354TIP3    H125553   2.235   0.550  16.208  0.7887  0.0662 -0.3312
 1354TIP3    H225554   2.330   0.535  16.325 -0.3655 -0.5307  0.5353
 1355TIP3   OH225555   1.269   1.375  15.781  0.2849 -0.8069 -0.6254
 1355TIP3    H125556   1.300   1.326  15.705  1.7289 -0.0926 -0.5183
 1355TIP3    H225557   1.251   1.463  15.747 -0.0776 -0.7790 -0.3583
 1356TIP3   OH225558   3.373   3.785  14.442 -0.0685 -0.3482 -0.4797
 1356TIP3    H125559   3.452   3.742  14.411 -1.1362 -1.8666 -1.1957
 1356TIP3    H225560   3.382   3.876  14.415  0.4136 -0.9857 -2.5950
 1357TIP3   OH225561   0.491   4.415  11.046  0.6422  0.1811  0.6349
 1357TIP3    H125562   0.575   4.437  11.087  0.9762 -1.5943  0.9403
 1357TIP3    H225563   0.512   4.341  10.988 -0.1803  1.4786 -1.3711
 1358TIP3   OH225564   4.159   1.468  10.924 -0.1242 -0.4557  0.5500
 1358TIP3    H125565   4.143   1.521  10.846  0.4175  1.3954  1.6740
 1358TIP3    H225566   4.087   1.490  10.984 -0.4139 -1.7003  0.6852
 1359TIP3   OH225567   4.080   0.697  12.669 -0.7480  0.4046 -0.3197
 1359TIP3    H125568   4.156   0.663  12.621 -1.1764  0.2527 -0.8983
 1359TIP3    H225569   4.117   0.735  12.748 -0.2239 -1.1608  0.1997
 1360TIP3   OH225570   6.520   5.141  12.478 -0.2114  0.1352 -0.2282
 1360TIP3    H125571   6.536   5.079  12.549  0.0675  0.2466 -0.1946
 1360TIP3    H225572   6.606   5.178  12.458 -0.5589  1.3647  0.5219
 1361TIP3   OH225573   3.991   1.311   4.941  0.1186  0.0660  0.4199
 1361TIP3    H125574   4.040   1.267   4.872  0.7216 -1.9137  2.0505
 1361TIP3    H225575   3.907   1.333   4.900  0.7968 -0.2678 -1.1907
 1362TIP3   OH225576   4.161   5.996  10.969  0.2371  0.4049 -0.0788
 1362TIP3    H125577   4.244   6.041  10.983  0.3829 -0.1536  0.9469
 1362TIP3    H225578   4.153   5.987  10.874  0.7574  1.5472 -0.2315
 1363TIP3   OH225579   1.497   6.069  13.456 -0.8472  0.3562 -0.0862
 1363TIP3    H125580   1.439   6.047  13.529  2.1054 -2.0420  1.6681
 1363TIP3    H225581   1.548   6.143  13.487 -0.0909 -0.2097  0.0474
 1364TIP3   OH225582   3.533   1.066   1.754  0.4625  0.2069  0.3529
 1364TIP3    H125583   3.575   1.121   1.688 -0.0072  1.1721  0.8521
 1364TIP3    H225584   3.450   1.109   1.773  0.1901 -0.5450  0.9230
 1365TIP3   OH225585   0.490   0.792  11.972  0.3705  0.3230 -0.2770
 1365TIP3    H125586   0.531   0.706  11.977  1.3812  0.8807  1.3045
 1365TIP3    H225587   0.397   0.773  11.957  0.7231 -1.0080 -0.8995
 1366TIP3   OH225588   2.521   3.335  15.879  0.5038 -0.6378 -0.0572
 1366TIP3    H125589   2.456   3.405  15.887  0.7857 -0.4101  0.2246
 1366TIP3    H225590   2.468   3.256  15.869  0.1882 -0.3199 -0.9511
 1367TIP3   OH225591   6.598   3.515  12.892 -0.1763 -0.3387  0.1828
 1367TIP3    H125592   6.663   3.495  12.960  1.8845  1.3049 -1.2154
 1367TIP3    H225593   6.583   3.609  12.900 -0.0951 -0.1637 -1.4269
 1368TIP3   OH225594   4.265   2.259   4.755 -0.2196  0.0614  0.4985
 1368TIP3    H125595   4.215   2.214   4.686 -1.2041  2.2386 -0.2383
 1368TIP3    H225596   4.221   2.343   4.765  2.2550  1.3049  1.0894
 1369TIP3   OH225597   3.955   5.427  13.458 -0.1413  0.2994 -0.4685
 1369TIP3    H125598   4.015   5.358  13.430 -0.6248  0.0580 -0.9162
 1369TIP3    H225599   3.915   5.394  13.538  0.6540  0.6541  0.0822
 1370TIP3   OH225600   3.000   0.935  16.803  0.0068  0.0151  0.3804
 1370TIP3    H125601   2.956   0.948  16.887  0.1551 -1.5485  0.7223
 1370TIP3    H225602   2.936   0.963  16.737 -1.0569 -1.1008  0.9207
 1371TIP3   OH225603   5.549   0.648  15.814 -0.6673  0.0523  0.0330
 1371TIP3    H125604   5.552   0.742  15.835  0.2792  0.2104 -0.7354
 1371TIP3    H225605   5.519   0.606  15.895 -0.7137  0.9822  0.5068
 1372TIP3   OH225606   4.079   6.302   0.011 -0.0657 -0.0840  0.1471
 1372TIP3    H125607   4.104   6.326  -0.079  0.3299  0.0655  0.2995
 1372TIP3    H225608   4.152   6.250   0.043 -0.6193 -0.9236  0.0641
 1373TIP3   OH225609   2.160   5.117  13.341  0.5069 -0.4568 -0.1604
 1373TIP3    H125610   2.210   5.139  13.263 -1.6010  1.6388 -0.9622
 1373TIP3    H225611   2.191   5.177  13.408  0.0697 -0.1137 -0.2646
 1374TIP3   OH225612   3.236   1.535  15.872 -0.2272  0.0839  0.1607
 1374TIP3    H125613   3.261   1.579  15.954 -0.1242  1.6970 -0.7196
 1374TIP3    H225614   3.141   1.545  15.868 -0.0176  1.8150 -0.9152
 1375TIP3   OH225615   2.916   0.627   3.325  0.1649 -0.2100 -0.4401
 1375TIP3    H125616   2.973   0.702   3.345  0.7925 -0.7336 -0.2423
 1375TIP3    H225617   2.972   0.551   3.339 -0.2038 -0.6827 -1.5591
 1376TIP3   OH225618   1.803   1.388  13.080  0.4612 -0.4651 -0.1049
 1376TIP3    H125619   1.876   1.363  13.135 -0.3018 -1.3509  0.5219
 1376TIP3    H225620   1.838   1.388  12.991  1.6723  0.8976  0.3661
 1377TIP3   OH225621   6.207   3.486  16.871  0.1493  0.5204  0.1999
 1377TIP3    H125622   6.117   3.509  16.849 -0.0812  1.3216  1.9034
 1377TIP3    H225623   6.201   3.441  16.955  1.2694 -0.1608 -0.0607
 1378TIP3   OH225624   6.410   2.109  16.386  0.9231  0.5619 -0.5428
 1378TIP3    H125625   6.377   2.170  16.321 -0.7719  0.5614  0.2757
 1378TIP3    H225626   6.434   2.031  16.337 -0.7860  0.3855 -1.1373
 1379TIP3   OH225627   0.386   4.475   6.218 -0.2484 -0.1277 -0.0056
 1379TIP3    H125628   0.477   4.475   6.247 -0.3536 -1.3338  0.3518
 1379TIP3    H225629   0.359   4.566   6.223  0.5587  0.0536  1.1056
 1380TIP3   OH225630   6.638   4.098   5.606 -0.2831  0.0273 -0.0199
 1380TIP3    H125631   6.655   4.151   5.684  1.8237 -1.6398  0.7101
 1380TIP3    H225632   6.719   4.102   5.556 -0.6882 -1.1397 -0.7822
 1381TIP3   OH225633   2.128   1.008  14.498  0.0014 -0.2409  0.3050
 1381TIP3    H125634   2.109   1.076  14.562  2.1135  0.2059  0.5207
 1381TIP3    H225635   2.072   0.935  14.521 -1.9168  1.2396  0.3978
 1382TIP3   OH225636   6.371   1.091   6.075  0.1011 -0.0042  0.7966
 1382TIP3    H125637   6.441   1.057   6.019 -0.2601 -0.1369  0.4201
 1382TIP3    H225638   6.414   1.155   6.131 -0.1088  2.6486 -1.9101
 1383TIP3   OH225639   2.969   6.066  13.842  0.6317  0.2809 -0.3479
 1383TIP3    H125640   2.966   6.034  13.752 -0.6625  2.3713 -1.0800
 1383TIP3    H225641   2.881   6.053  13.876  0.8384  0.4926  0.2854
 1384TIP3   OH225642   5.447   6.436   0.732 -0.1680  0.1520 -0.5185
 1384TIP3    H125643   5.435   6.485   0.651  1.1616 -0.1952 -0.9279
 1384TIP3    H225644   5.409   6.493   0.799  2.0051  2.1344 -0.8921
 1385TIP3   OH225645   1.872   2.272  14.982 -0.2928  0.1715  0.1592
 1385TIP3    H125646   1.804   2.299  14.920 -3.8950 -0.7844  3.4482
 1385TIP3    H225647   1.909   2.192  14.945 -0.0532  1.3954 -2.3053
 1386TIP3   OH225648   0.920   5.449  16.417 -0.1882 -1.1027  0.0583
 1386TIP3    H125649   0.957   5.377  16.469 -0.0690 -0.5548  0.7437
 1386TIP3    H225650   0.879   5.406  16.342 -2.3815 -2.1080  1.7723
 1387TIP3   OH225651   3.729   4.257   6.462  0.4848  0.0504 -0.5290
 1387TIP3    H125652   3.764   4.207   6.535  1.0517  1.3747  0.1394
 1387TIP3    H225653   3.653   4.207   6.431 -0.5825  0.1698  1.8418
 1388TIP3   OH225654   3.275   3.362   6.145 -0.4593  0.3515 -0.5342
 1388TIP3    H125655   3.317   3.277   6.159 -0.8859  0.1115 -0.6921
 1388TIP3    H225656   3.306   3.391   6.059  1.0126  1.1445  0.2513
 1389TIP3   OH225657   4.773   6.813   0.727 -0.8554 -0.2043 -0.1993
 1389TIP3    H125658   4.740   6.818   0.637  1.6073  1.2237 -1.1145
 1389TIP3    H225659   4.801   6.722   0.737 -1.9979 -0.6014 -0.5562
 1390TIP3   OH225660   2.512   0.358   0.181  0.3090  0.4028  0.4003
 1390TIP3    H125661   2.596   0.314   0.165  1.7143  2.4237  1.9184
 1390TIP3    H225662   2.521   0.443   0.136 -1.0663  0.4942  0.2834
 1391TIP3   OH225663   2.007   0.867  14.775  0.1649  0.2762 -0.3599
 1391TIP3    H125664   2.062   0.935  14.739  0.8395 -0.6356 -1.0614
 1391TIP3    H225665   2.046   0.846  14.860 -0.4660  1.2606  0.1818
 1392TIP3   OH225666   5.445   5.780   1.954 -0.7966 -0.2255  0.2704
 1392TIP3    H125667   5.403   5.694   1.951 -3.9871  1.1856  2.0729
 1392TIP3    H225668   5.422   5.820   1.871 -0.5981 -0.5222  0.0690
 1393TIP3   OH225669   0.049   3.659   2.622 -0.0950 -0.3029 -0.4843
 1393TIP3    H125670   0.127   3.605   2.629 -0.1455 -0.2311  0.7364
 1393TIP3    H225671   0.038   3.698   2.709 -0.0737  1.6579 -1.3200
 1394TIP3   OH225672   4.893   0.950  10.826  0.4367  0.1933 -0.1131
 1394TIP3    H125673   4.968   1.009  10.838  0.9134 -0.4664  0.1788
 1394TIP3    H225674   4.918   0.870  10.872 -0.1483 -0.2904 -0.6343
 1395TIP3   OH225675   1.972   1.640   3.884  0.0231 -0.4590  0.4228
 1395TIP3    H125676   1.937   1.552   3.899 -0.1204 -0.2133  1.5151
 1395TIP3    H225677   1.895   1.696   3.875  0.1190 -0.3495  0.2768
 1396TIP3   OH225678   1.827   1.088  15.192 -0.5943  0.2797  0.0060
 1396TIP3    H125679   1.758   1.127  15.247 -0.5169  0.6201 -0.1365
 1396TIP3    H225680   1.887   1.161  15.174 -1.7874  0.7127 -2.3861
 1397TIP3   OH225681   6.563   6.466   2.297  0.1039 -0.1277 -0.1697
 1397TIP3    H125682   6.469   6.476   2.282  0.3074  2.1237 -0.0931
 1397TIP3    H225683   6.569   6.414   2.377 -1.0701  0.1892  0.1302
 1398TIP3   OH225684   0.771   5.868  14.249  0.5755 -0.7113 -0.7583
 1398TIP3    H125685   0.740   5.914  14.327  0.9085  0.6597 -1.4374
 1398TIP3    H225686   0.761   5.775  14.271 -0.3576 -0.3204  0.5022
 1399TIP3   OH225687   1.017   2.165   2.559 -1.0351  0.1617  0.2786
 1399TIP3    H125688   0.930   2.167   2.520 -0.7193 -0.0062 -0.4550
 1399TIP3    H225689   1.040   2.072   2.560 -1.2758  0.1112  1.4109
 1400TIP3   OH225690   1.781   3.269  11.496  0.5023  0.2436  0.0458
 1400TIP3    H125691   1.698   3.292  11.537 -0.0701  0.2331 -1.0888
 1400TIP3    H225692   1.801   3.344  11.439  1.3972  0.3594  0.4994
 1401TIP3   OH225693   0.649   6.297  10.466 -0.2052 -0.0392 -0.3350
 1401TIP3    H125694   0.560   6.332  10.477  0.3293  1.0085  0.7649
 1401TIP3    H225695   0.639   6.202  10.478 -1.1519  0.0979  0.0120
 1402TIP3   OH225696   4.222   5.511   0.370  0.0824 -0.1144 -0.0573
 1402TIP3    H125697   4.250   5.542   0.456 -0.1519  1.3742 -0.5075
 1402TIP3    H225698   4.297   5.459   0.339 -0.0156 -1.0528  1.2242
 1403TIP3   OH225699   4.035   6.572   5.908 -0.5279  0.0488  0.0294
 1403TIP3    H125700   4.115   6.570   5.961 -1.6473  0.8147  1.8177
 1403TIP3    H225701   4.056   6.523   5.830  1.3978 -0.5833  0.9278
 1404TIP3   OH225702   5.510   6.228   5.202  0.2235  0.7933  0.1802
 1404TIP3    H125703   5.552   6.175   5.270  1.4633  1.2030 -0.2408
 1404TIP3    H225704   5.427   6.185   5.185  1.3806 -1.2440 -0.4412
 1405TIP3   OH225705   5.823   4.198  11.488 -0.0289 -0.4208  0.1825
 1405TIP3    H125706   5.758   4.245  11.436  0.0057 -0.5616  0.0148
 1405TIP3    H225707   5.782   4.188  11.574 -0.0482 -0.1107  0.2100
 1406TIP3   OH225708   5.330   3.055  11.825 -0.1136 -0.5692 -0.5888
 1406TIP3    H125709   5.299   2.967  11.847  0.3399 -0.2884  1.2335
 1406TIP3    H225710   5.400   3.039  11.761 -1.2791 -1.4125 -1.6845
 1407TIP3   OH225711   0.032   4.521  14.759 -0.4383  0.2674 -0.0616
 1407TIP3    H125712   0.015   4.611  14.790 -0.2831 -0.3181  1.8118
 1407TIP3    H225713  -0.017   4.514  14.678 -0.3018  2.1236 -0.3378
 1408TIP3   OH225714   0.301   3.586  16.456  0.0050  0.5457 -0.0773
 1408TIP3    H125715   0.270   3.596  16.546  0.5417 -0.4477  0.2251
 1408TIP3    H225716   0.259   3.506  16.426 -1.8020  1.9585 -1.4210
 1409TIP3   OH225717   3.302   2.838  15.634  0.2499  0.4198  0.2619
 1409TIP3    H125718   3.310   2.744  15.616  1.6255  0.7661 -0.9832
 1409TIP3    H225719   3.210   2.858  15.617 -0.6698 -1.1916  3.0015
 1410TIP3   OH225720   3.156   1.537  11.823  0.1404 -0.3325 -0.0455
 1410TIP3    H125721   3.082   1.569  11.770  1.5168  0.2829 -1.6183
 1410TIP3    H225722   3.141   1.575  11.910 -1.3731 -0.1696 -0.3631
 1411TIP3   OH225723   5.089   4.613  13.267 -0.2384  0.3828  0.8546
 1411TIP3    H125724   5.173   4.649  13.238 -0.3366  0.3814  0.5627
 1411TIP3    H225725   5.029   4.633  13.195 -0.3610 -0.1051  0.8220
 1412TIP3   OH225726   3.950   4.317   3.989 -0.0222  0.0811 -0.0895
 1412TIP3    H125727   3.967   4.368   3.910  1.9454  0.3332  0.4590
 1412TIP3    H225728   3.864   4.346   4.019  0.6284  2.3332 -0.3405
 1413TIP3   OH225729   2.341   1.853  14.527  0.3007  0.3587  0.4023
 1413TIP3    H125730   2.391   1.825  14.450  2.4534  2.3016  1.0281
 1413TIP3    H225731   2.405   1.898  14.582 -1.2894 -0.7159  3.2030
 1414TIP3   OH225732   2.933   5.853   4.974 -1.0211 -0.3054  0.0728
 1414TIP3    H125733   2.968   5.836   5.061  1.4949 -0.7590 -1.0025
 1414TIP3    H225734   2.909   5.767   4.939  2.3337 -0.7272 -1.4378
 1415TIP3   OH225735   1.050   6.789  13.694  0.2411  0.3370  0.2748
 1415TIP3    H125736   1.030   6.810  13.603  0.9162  0.4586  0.1501
 1415TIP3    H225737   1.099   6.865  13.725 -2.3990  1.5589  1.5738
 1416TIP3   OH225738   6.309   6.764  15.634 -0.7630  0.5779  0.0234
 1416TIP3    H125739   6.234   6.825  15.631  0.1564  1.6551 -2.5475
 1416TIP3    H225740   6.373   6.802  15.574  0.8108 -1.7188  0.1861
 1417TIP3   OH225741   1.172   6.611  12.087 -0.3462 -0.2522 -0.0676
 1417TIP3    H125742   1.102   6.571  12.035  0.0021  0.5724 -1.1810
 1417TIP3    H225743   1.128   6.637  12.168 -1.5961  1.1901 -1.1714
 1418TIP3   OH225744   4.260   5.485   4.614  0.5982  1.3136  0.7225
 1418TIP3    H125745   4.196   5.479   4.686 -2.4072 -0.1967 -1.9488
 1418TIP3    H225746   4.345   5.473   4.657 -1.1932 -1.2977  3.8136
 1419TIP3   OH225747   3.912   0.780   0.052 -0.1119  0.1277 -0.7375
 1419TIP3    H125748   3.829   0.736   0.039 -0.8430  2.0552 -2.8531
 1419TIP3    H225749   3.977   0.723   0.011 -0.4682 -0.9701  0.1941
 1420TIP3   OH225750   5.971   3.099   0.153 -0.4754  0.0150 -0.3195
 1420TIP3    H125751   5.891   3.047   0.163 -1.4042  1.5688  0.4819
 1420TIP3    H225752   5.941   3.190   0.150  1.2337  0.5974 -0.4440
 1421TIP3   OH225753   2.277   4.688   1.065  0.5297  0.1674 -0.2974
 1421TIP3    H125754   2.292   4.628   0.992  0.0375 -1.5088  0.9278
 1421TIP3    H225755   2.188   4.668   1.094  0.3814  1.4692  0.1776
 1422TIP3   OH225756   4.957   4.297   2.631 -0.3121 -0.5356 -0.1485
 1422TIP3    H125757   4.967   4.354   2.707  5.0033 -1.6164  0.1551
 1422TIP3    H225758   4.927   4.214   2.667  0.1620 -0.4177  0.5325
 1423TIP3   OH225759   3.762   5.850   1.827 -0.3474  0.1134  0.0820
 1423TIP3    H125760   3.670   5.823   1.829 -1.1437  2.3187 -3.1399
 1423TIP3    H225761   3.803   5.795   1.760  0.5154 -0.3571  0.9860
 1424TIP3   OH225762   3.861   6.237  14.153 -0.0193  0.9379 -0.0750
 1424TIP3    H125763   3.926   6.302  14.126  0.0418  0.6460 -0.6390
 1424TIP3    H225764   3.906   6.184  14.219  0.0657  1.2062  0.0840
 1425TIP3   OH225765   2.628   4.373  15.006 -0.3377 -0.3259 -0.1090
 1425TIP3    H125766   2.562   4.365  15.076  0.6573  0.5798  0.9451
 1425TIP3    H225767   2.705   4.328  15.040  0.7530  1.6866  0.1444
 1426TIP3   OH225768   0.323   5.891   3.126  0.0387 -0.1129  0.0679
 1426TIP3    H125769   0.274   5.809   3.123  0.5572 -0.4935  1.6507
 1426TIP3    H225770   0.328   5.919   3.035 -2.2752 -0.5538 -0.2292
 1427TIP3   OH225771   1.324   4.792   0.235 -0.4173 -0.6605  0.0125
 1427TIP3    H125772   1.416   4.786   0.209 -0.5311  1.3913 -0.9584
 1427TIP3    H225773   1.282   4.842   0.165 -1.7188  0.7639  1.7368
 1428TIP3   OH225774   3.746   6.584  12.884 -0.3320  0.3950 -0.3552
 1428TIP3    H125775   3.824   6.620  12.926  0.0890 -0.5995 -0.2825
 1428TIP3    H225776   3.694   6.549  12.956  1.0070 -2.5132 -0.7373
 1429TIP3   OH225777   4.276   6.742  16.587 -0.0545  0.0046 -0.0358
 1429TIP3    H125778   4.309   6.782  16.507  0.7939  0.4375  0.5244
 1429TIP3    H225779   4.194   6.699  16.561 -0.3470  1.0734 -0.9003
 1430TIP3   OH225780   3.962   5.130  13.553  0.7204 -0.2421  0.1257
 1430TIP3    H125781   4.029   5.069  13.523 -0.4156 -1.3074 -0.3325
 1430TIP3    H225782   3.881   5.098  13.513 -0.1414  0.7460  1.0211
 1431TIP3   OH225783   1.392   1.269  11.524  0.5859 -0.4634 -0.6586
 1431TIP3    H125784   1.384   1.220  11.442 -0.1354  0.5073 -1.1895
 1431TIP3    H225785   1.304   1.266  11.561  0.6664 -0.0342 -0.4312
 1432TIP3   OH225786   2.428   1.751   1.318 -0.0325  0.3327 -1.0053
 1432TIP3    H125787   2.365   1.763   1.389 -2.3160 -1.1492 -2.7345
 1432TIP3    H225788   2.422   1.658   1.296  0.2955  0.8625 -3.4524
 1433TIP3   OH225789   5.398   5.280  14.123  0.1615  0.5654  0.3625
 1433TIP3    H125790   5.488   5.284  14.091  0.4305  0.3194  1.0854
 1433TIP3    H225791   5.344   5.304  14.047  0.8044  0.1258 -0.2286
 1434TIP3   OH225792   0.662   6.340  17.244  0.3514  0.4950 -0.0350
 1434TIP3    H125793   0.618   6.308  17.322 -0.4405 -0.0378 -0.6856
 1434TIP3    H225794   0.691   6.429  17.267  1.7256 -0.3063  1.4521
 1435TIP3   OH225795   2.186   3.117   3.498  0.1168 -0.0262  0.2426
 1435TIP3    H125796   2.278   3.124   3.523  0.0671 -0.0994  0.4498
 1435TIP3    H225797   2.187   3.122   3.403  0.5198 -1.8138  0.1284
 1436TIP3   OH225798   1.362   4.188   5.545  0.1394  0.4667 -0.3730
 1436TIP3    H125799   1.276   4.212   5.579  0.3256 -1.3319  1.5544
 1436TIP3    H225800   1.419   4.262   5.568 -0.3730  0.5443  0.6980
 1437TIP3   OH225801   0.702   1.791   4.960 -0.5593  0.0969 -0.2747
 1437TIP3    H125802   0.742   1.765   5.043 -1.1446  0.9128  0.2618
 1437TIP3    H225803   0.608   1.782   4.975 -0.6202 -1.2870 -1.3579
 1438TIP3   OH225804   2.582   1.288  15.344 -0.1143 -0.4012 -0.3068
 1438TIP3    H125805   2.547   1.218  15.289 -0.9440  0.2528 -0.6295
 1438TIP3    H225806   2.555   1.368  15.300  0.2387  0.1220  0.4277
 1439TIP3   OH225807   5.689   5.157   4.308  0.4028  0.9804 -0.9096
 1439TIP3    H125808   5.656   5.096   4.374  2.2121  1.7099  0.7166
 1439TIP3    H225809   5.611   5.187   4.262 -0.8876  0.3019  0.7687
 1440TIP3   OH225810   2.244   0.217   6.278  0.1367  0.3015 -0.6706
 1440TIP3    H125811   2.279   0.211   6.367 -1.2708 -0.1221 -0.1346
 1440TIP3    H225812   2.320   0.202   6.222  1.2789  1.8176  0.4297
 1441TIP3   OH225813   5.333   3.019  17.023  0.7238  0.0967  0.1902
 1441TIP3    H125814   5.243   2.995  17.045  0.0946  3.3042  1.3464
 1441TIP3    H225815   5.328   3.051  16.933  0.4341  1.4809  0.6835
 1442TIP3   OH225816   2.437   4.610   1.379  0.2896  0.1477 -0.1730
 1442TIP3    H125817   2.399   4.550   1.315  2.7112 -0.9551 -0.6316
 1442TIP3    H225818   2.489   4.671   1.327 -0.1330  1.1308  0.5236
 1443TIP3   OH225819   1.837   5.119  15.518 -0.1471 -0.2859 -0.2707
 1443TIP3    H125820   1.825   5.024  15.526  1.4349 -0.4822 -0.0154
 1443TIP3    H225821   1.926   5.135  15.552 -0.7003  1.3927  0.4443
 1444TIP3   OH225822   3.017   3.334  17.141  0.0143  0.4075  0.4960
 1444TIP3    H125823   3.058   3.249  17.156 -0.9157 -0.1480 -0.0643
 1444TIP3    H225824   3.072   3.377  17.076  0.3760  0.1558  0.6357
 1445TIP3   OH225825   0.408   1.069  14.357  0.4142  0.4516 -0.2832
 1445TIP3    H125826   0.389   1.024  14.439  0.5439 -0.3717 -0.7033
 1445TIP3    H225827   0.454   1.149  14.384  0.3349  0.2534  0.4521
 1446TIP3   OH225828   3.094   0.132   4.775  0.4529  0.1986 -0.1998
 1446TIP3    H125829   3.067   0.163   4.862  0.5114  1.2213 -0.5406
 1446TIP3    H225830   3.039   0.056   4.758 -2.3787  2.3483 -0.9465
 1447TIP3   OH225831   5.379   1.719   4.082  0.2239 -0.6887  0.4084
 1447TIP3    H125832   5.344   1.632   4.100 -1.8519  0.2095  0.8455
 1447TIP3    H225833   5.440   1.736   4.155  1.1099 -1.9830  0.0025
 1448TIP3   OH225834   3.482   4.179  16.017  0.3037  0.1182 -0.6182
 1448TIP3    H125835   3.512   4.268  16.003 -1.9689  1.1665  0.7959
 1448TIP3    H225836   3.387   4.183  16.005 -0.2614 -1.3755  2.6344
 1449TIP3   OH225837   5.296   6.584   0.933 -0.0046 -0.2082  0.2600
 1449TIP3    H125838   5.265   6.551   1.018  1.1026 -0.6555  0.5120
 1449TIP3    H225839   5.224   6.636   0.899 -1.0705 -1.3318  0.7551
 1450TIP3   OH225840   5.457   2.564   1.828  0.4992  0.5167 -0.0495
 1450TIP3    H125841   5.493   2.521   1.906 -1.1238 -1.9310 -0.5954
 1450TIP3    H225842   5.531   2.572   1.768  0.4697 -3.6139 -0.7921
 1451TIP3   OH225843   1.746   5.248  10.924  0.7304  0.1219 -0.0974
 1451TIP3    H125844   1.720   5.212  11.009 -0.4374  0.5059 -0.2750
 1451TIP3    H225845   1.808   5.318  10.945  2.5957 -1.5903  0.2798
 1452TIP3   OH225846   4.773   5.947  16.763 -0.3553  0.1958  0.9482
 1452TIP3    H125847   4.782   5.911  16.851  0.2897  0.0398  0.8190
 1452TIP3    H225848   4.851   6.001  16.751  0.3482 -1.0277 -0.1181
 1453TIP3   OH225849   2.134   4.520   0.140 -0.0426 -0.1930  1.1798
 1453TIP3    H125850   2.133   4.609   0.104 -0.6126 -1.0739 -1.1062
 1453TIP3    H225851   2.225   4.492   0.132 -0.3779 -0.8056 -0.7410
 1454TIP3   OH225852   2.961   2.892  13.393 -0.8381 -0.0630 -0.5081
 1454TIP3    H125853   2.921   2.963  13.443 -0.0570  1.1174 -1.5414
 1454TIP3    H225854   3.055   2.913  13.393 -0.7672 -0.3233 -2.0289
 1455TIP3   OH225855   3.445   4.807  16.359  0.0897  0.2302 -0.0567
 1455TIP3    H125856   3.516   4.808  16.424 -0.3489 -2.1839  0.5232
 1455TIP3    H225857   3.490   4.795  16.275  0.3902 -1.7362  0.3497
 1456TIP3   OH225858   0.237   4.312  14.358 -0.1760 -0.3651  0.0889
 1456TIP3    H125859   0.184   4.242  14.318 -0.1693  0.8472 -2.1221
 1456TIP3    H225860   0.217   4.306  14.451 -1.8540 -1.9329 -0.3296
 1457TIP3   OH225861   3.948   5.462  17.138  0.0154  0.5198  0.0047
 1457TIP3    H125862   3.914   5.372  17.131  0.1962  0.4835 -0.3841
 1457TIP3    H225863   4.032   5.451  17.184  0.6766  0.3420 -1.2249
 1458TIP3   OH225864   0.380   4.403  15.810 -0.5376  0.0684 -0.6998
 1458TIP3    H125865   0.326   4.366  15.740  0.6336  0.7885 -2.0155
 1458TIP3    H225866   0.459   4.432  15.766 -0.4065  1.9310  0.6979
 1459TIP3   OH225867   0.514   1.227  12.195  0.5136  0.1364  0.0893
 1459TIP3    H125868   0.462   1.228  12.114  1.9397  0.4543 -0.8406
 1459TIP3    H225869   0.452   1.199  12.263 -0.6639 -0.2920 -1.1353
 1460TIP3   OH225870   6.035   5.380  13.743 -0.5040  0.6891 -0.4325
 1460TIP3    H125871   6.024   5.291  13.709  0.2739  0.1210  0.7888
 1460TIP3    H225872   6.063   5.369  13.834  0.0959  2.1755 -0.4077
 1461TIP3   OH225873   6.278   6.049   0.871 -0.4877 -0.6475 -0.2089
 1461TIP3    H125874   6.204   5.992   0.850  0.8839 -2.7351  0.3561
 1461TIP3    H225875   6.332   6.049   0.792 -0.0462 -0.8746  0.0863
 1462TIP3   OH225876   4.855   0.703  12.337 -1.0051 -0.4020  0.0632
 1462TIP3    H125877   4.886   0.726  12.424 -2.7087  0.1300  0.5580
 1462TIP3    H225878   4.810   0.619  12.348  0.1940 -1.1532 -0.6362
 1463TIP3   OH225879   4.041   2.920  12.794 -0.2247  0.4365 -0.2404
 1463TIP3    H125880   4.020   3.005  12.755  0.2011 -0.6259 -2.8551
 1463TIP3    H225881   4.136   2.916  12.791 -0.2535 -0.1934 -0.2239
 1464TIP3   OH225882   6.439   4.822  16.363 -1.1603 -0.0340 -0.3687
 1464TIP3    H125883   6.412   4.914  16.359  1.1000  0.6300 -1.4209
 1464TIP3    H225884   6.404   4.783  16.283  1.5785  1.0350 -2.1751
 1465TIP3   OH225885   6.432   4.206   0.915  0.0087 -0.3142 -0.0400
 1465TIP3    H125886   6.409   4.157   0.994 -1.8052  0.9396  0.2566
 1465TIP3    H225887   6.508   4.258   0.940  0.0538 -0.6745  0.5825
 1466TIP3   OH225888   6.762   4.294  13.712  0.7815 -0.1252  0.1321
 1466TIP3    H125889   6.767   4.215  13.767  1.8815 -1.0534 -1.2786
 1466TIP3    H225890   6.814   4.359  13.760 -1.1259  0.1305  1.9001
 1467TIP3   OH225891   4.105   5.175   0.604  0.0154  0.4346 -0.2953
 1467TIP3    H125892   4.176   5.196   0.664 -0.2350  0.8427 -0.1440
 1467TIP3    H225893   4.138   5.201   0.518  0.6522 -0.8062 -0.4385
 1468TIP3   OH225894   0.685   6.428  10.740  0.1155 -0.2661 -0.0227
 1468TIP3    H125895   0.602   6.381  10.735  0.2472 -0.5615  0.5683
 1468TIP3    H225896   0.673   6.492  10.810 -0.3732  1.2019 -1.4305
 1469TIP3   OH225897   5.774   3.299  16.683  0.1780 -0.1934 -0.3788
 1469TIP3    H125898   5.694   3.327  16.638  0.1201 -0.5520 -0.4993
 1469TIP3    H225899   5.814   3.380  16.714 -0.8314 -0.0821  0.6936
 1470TIP3   OH225900   5.254   3.436   1.606  0.5382 -0.6398  0.0927
 1470TIP3    H125901   5.278   3.387   1.528  0.8775  0.4093 -0.4775
 1470TIP3    H225902   5.335   3.442   1.657  0.5968 -0.3221 -0.0361
 1471TIP3   OH225903   1.593   2.035   2.535 -0.0912 -0.1530  0.4843
 1471TIP3    H125904   1.533   2.044   2.609 -0.6277 -0.7853  0.1245
 1471TIP3    H225905   1.572   1.950   2.497 -1.1884  1.0441 -1.6216
 1472TIP3   OH225906   5.545   0.826  14.515 -0.0749  0.2809 -0.4586
 1472TIP3    H125907   5.564   0.920  14.506  0.5399  0.1015 -1.0995
 1472TIP3    H225908   5.631   0.785  14.522 -0.4142 -0.0436  1.8985
 1473TIP3   OH225909   3.133   6.561   4.543 -0.4942  0.4925 -0.2739
 1473TIP3    H125910   3.103   6.504   4.472  0.4908  0.0813 -0.3624
 1473TIP3    H225911   3.226   6.542   4.552  0.0900  2.8518 -0.9960
 1474TIP3   OH225912   0.046   5.983  15.842  0.5134  0.3518  0.2369
 1474TIP3    H125913  -0.014   5.945  15.778 -0.6834 -0.7216  1.9588
 1474TIP3    H225914   0.123   6.008  15.791  0.5041 -2.5272 -1.2668
 1475TIP3   OH225915   3.825   1.024   5.071 -0.2966  0.1728 -0.8140
 1475TIP3    H125916   3.903   1.060   5.112  0.7824  0.6708 -3.2090
 1475TIP3    H225917   3.857   0.981   4.992 -2.2737 -0.9820 -1.0362
 1476TIP3   OH225918   3.650   5.577  13.852 -0.0043 -0.2010 -0.0455
 1476TIP3    H125919   3.591   5.578  13.928  0.4732 -1.0863  0.3389
 1476TIP3    H225920   3.614   5.644  13.793 -0.3494  0.5257  0.9757
 1477TIP3   OH225921   6.256   6.614  11.641  0.2413  0.0999  0.1691
 1477TIP3    H125922   6.196   6.547  11.674  2.9649 -0.9844  3.2307
 1477TIP3    H225923   6.263   6.596  11.547 -0.9011 -2.4489  0.5299
 1478TIP3   OH225924   4.013   4.857  12.007 -0.3322  0.8361 -0.5736
 1478TIP3    H125925   4.009   4.952  12.007  0.4256  0.9216  2.2234
 1478TIP3    H225926   3.924   4.828  12.028 -0.6806  0.9049 -1.9428
 1479TIP3   OH225927   0.268   4.458   5.611  0.4216  0.1530  0.2809
 1479TIP3    H125928   0.357   4.462   5.646  0.0167  1.2968  1.2042
 1479TIP3    H225929   0.224   4.535   5.648 -0.7691 -0.0571 -0.6675
 1480TIP3   OH225930   0.438   2.274   2.794  0.3400  0.0640 -0.1478
 1480TIP3    H125931   0.395   2.357   2.815  0.7557  0.0237  0.9232
 1480TIP3    H225932   0.367   2.211   2.785  0.0920  0.2809  0.2715
 1481TIP3   OH225933   3.670   0.642  11.216  0.7740 -0.1424 -0.1191
 1481TIP3    H125934   3.628   0.625  11.300  1.4747 -1.8351 -0.0929
 1481TIP3    H225935   3.612   0.705  11.172  1.0197  1.6702  2.0890
 1482TIP3   OH225936   1.366   2.489  11.723  0.4520 -0.1621 -0.1388
 1482TIP3    H125937   1.293   2.466  11.666  0.6606  0.8979 -0.8489
 1482TIP3    H225938   1.326   2.532  11.798  0.2960 -0.1703 -0.2177
 1483TIP3   OH225939   3.421   3.849   5.349 -0.3227  0.1040 -0.0295
 1483TIP3    H125940   3.392   3.848   5.440  0.3018 -1.6768  0.1552
 1483TIP3    H225941   3.509   3.887   5.353 -0.7809  1.2072 -0.0604
 1484TIP3   OH225942   1.932   5.284   1.583 -0.1571  0.0446  0.3090
 1484TIP3    H125943   1.871   5.296   1.655  0.5186 -0.0103  0.9015
 1484TIP3    H225944   1.886   5.227   1.521 -1.3822  1.4399 -0.0885
 1485TIP3   OH225945   6.616   4.561   1.937  0.2781  0.0464 -0.6699
 1485TIP3    H125946   6.649   4.595   2.020 -0.5467 -1.2671  0.1938
 1485TIP3    H225947   6.695   4.541   1.886  0.7802  1.3357 -0.4194
 1486TIP3   OH225948   2.108   0.240  15.001 -0.0198 -0.1490 -0.0284
 1486TIP3    H125949   2.106   0.157  14.954  1.3920 -0.5202  0.5511
 1486TIP3    H225950   2.196   0.244  15.039  0.2264  2.0081 -0.7741
 1487TIP3   OH225951   4.786   4.395   0.628  0.4995 -0.1184 -0.4837
 1487TIP3    H125952   4.747   4.475   0.662  0.7961 -0.5781  0.9474
 1487TIP3    H225953   4.711   4.345   0.595  0.2508  0.4690 -0.8232
 1488TIP3   OH225954   6.243   1.202  12.749  0.1888 -0.8241  0.3643
 1488TIP3    H125955   6.327   1.233  12.782 -0.9078  1.3551  1.2279
 1488TIP3    H225956   6.237   1.236  12.660 -0.1547 -0.2423  0.6091
 1489TIP3   OH225957   2.868   5.171  15.470 -0.1811  0.2672  0.1594
 1489TIP3    H125958   2.883   5.226  15.546 -2.0501 -0.3259  0.9889
 1489TIP3    H225959   2.832   5.230  15.404 -0.0799  0.4674  0.2827
 1490TIP3   OH225960   6.447   3.792  13.147 -0.3950  0.2456  0.3981
 1490TIP3    H125961   6.443   3.716  13.090 -0.4133  0.3273  0.2910
 1490TIP3    H225962   6.360   3.831  13.141 -0.0966  0.8049 -0.2661
 1491TIP3   OH225963   5.656   0.306   4.815  0.3649  0.2402 -0.1112
 1491TIP3    H125964   5.560   0.301   4.819  0.4308 -2.4704 -0.7528
 1491TIP3    H225965   5.674   0.390   4.774 -1.8000  0.1627 -1.3193
 1492TIP3   OH225966   4.419   1.510   3.342 -0.0349 -0.0357 -0.1223
 1492TIP3    H125967   4.351   1.528   3.276 -0.7661 -0.3012  0.5482
 1492TIP3    H225968   4.494   1.480   3.291 -0.5896 -0.2314 -0.8429
 1493TIP3   OH225969   0.697   1.028   5.802 -0.1915  0.3754  0.0306
 1493TIP3    H125970   0.666   0.943   5.833  0.3147  0.2086  0.0730
 1493TIP3    H225971   0.719   1.077   5.881  0.3828  0.2186 -0.0293
 1494TIP3   OH225972   0.316   6.059   0.683  0.5288  0.2001  0.3341
 1494TIP3    H125973   0.303   5.966   0.698  2.6934 -0.2051 -0.1356
 1494TIP3    H225974   0.255   6.081   0.612 -0.6131 -0.6476  1.0442
 1495TIP3   OH225975   3.514   4.599   1.982  0.2602 -0.0545 -0.1916
 1495TIP3    H125976   3.525   4.587   1.887  1.5765 -1.8318  0.1607
 1495TIP3    H225977   3.591   4.650   2.008 -0.7026  1.4684 -0.2322
 1496TIP3   OH225978   0.094   6.175  13.613 -0.1777  0.1362 -0.7098
 1496TIP3    H125979   0.006   6.152  13.643  0.2814 -1.7979 -0.7885
 1496TIP3    H225980   0.092   6.161  13.519 -0.3060  1.8935 -0.9888
 1497TIP3   OH225981   4.736   2.696   0.296  0.0519  0.5816  0.0336
 1497TIP3    H125982   4.798   2.624   0.306 -1.0329 -0.4219 -0.3078
 1497TIP3    H225983   4.754   2.755   0.369  0.7472 -0.1990  0.4896
 1498TIP3   OH225984   2.692   0.048   5.916  0.0051  0.1086 -0.3907
 1498TIP3    H125985   2.610   0.098   5.911  0.5201  1.0292  0.2259
 1498TIP3    H225986   2.744   0.079   5.842  0.9293  1.5985  0.8631
 1499TIP3   OH225987   0.717   6.520  12.598 -0.1163 -0.1518  0.3171
 1499TIP3    H125988   0.703   6.495  12.689 -0.7773  2.1515  0.8724
 1499TIP3    H225989   0.812   6.509  12.585  0.0709  0.0113  1.4522
 1500TIP3   OH225990   5.771   4.356  12.638 -0.1706 -0.6563 -0.2366
 1500TIP3    H125991   5.705   4.389  12.700 -0.8409  0.6528 -1.6260
 1500TIP3    H225992   5.840   4.422  12.638 -1.2604  0.5470 -2.6083
 1501TIP3   OH225993   2.359   3.929   2.887  0.1818  0.2381 -0.1505
 1501TIP3    H125994   2.292   3.986   2.925 -0.2888 -0.0371 -0.5519
 1501TIP3    H225995   2.440   3.979   2.894 -0.5661  1.8206 -2.3725
 1502TIP3   OH225996   0.056   4.485  11.347  0.1008 -0.1820  0.1359
 1502TIP3    H125997   0.079   4.413  11.405 -0.0176 -0.8840 -0.6819
 1502TIP3    H225998   0.091   4.459  11.262  1.2694  1.3568  0.1360
 1503TIP3   OH225999   0.651   1.105   3.819 -0.2447  0.1060 -0.3768
 1503TIP3    H126000   0.615   1.018   3.802  0.8829 -0.0302 -2.2130
 1503TIP3    H226001   0.686   1.100   3.908 -1.6600 -0.7852  0.1530
 1504TIP3   OH226002   4.574   3.638   3.635  0.4618 -0.1349 -0.4352
 1504TIP3    H126003   4.646   3.635   3.572 -0.2796  1.4427 -1.3668
 1504TIP3    H226004   4.520   3.562   3.613  0.7706 -0.1902 -1.0198
 1505TIP3   OH226005   1.493   4.475  15.747 -0.1186  0.4390  0.5926
 1505TIP3    H126006   1.574   4.424  15.748 -0.2576  0.2284  1.0532
 1505TIP3    H226007   1.423   4.410  15.756 -0.3869  0.5335 -0.7064
 1506TIP3   OH226008   1.856   1.651  15.529 -0.2696 -0.1868 -0.1663
 1506TIP3    H126009   1.900   1.569  15.553 -0.1440 -0.1089 -0.1302
 1506TIP3    H226010   1.800   1.627  15.455 -0.6743 -0.4341  0.2135
 1507TIP3   OH226011   1.060   4.408  15.160 -0.5741 -0.5958  0.0429
 1507TIP3    H126012   1.149   4.400  15.194 -0.3084 -2.0395 -0.9280
 1507TIP3    H226013   1.006   4.359  15.222 -0.2828 -2.0468 -0.8059
 1508TIP3   OH226014   4.280   4.568  15.684  0.0885  0.2679  0.0696
 1508TIP3    H126015   4.263   4.474  15.687  1.1844  0.0285 -1.0827
 1508TIP3    H226016   4.222   4.604  15.751 -0.3036 -1.2269  0.5645
 1509TIP3   OH226017   4.324   4.071  17.287  0.6340  0.0004 -0.0807
 1509TIP3    H126018   4.348   4.097  17.199  1.0810 -0.6532 -0.1574
 1509TIP3    H226019   4.250   4.010  17.275 -1.5210  2.4794  0.1822
 1510TIP3   OH226020   0.363   6.755   3.566 -0.0543 -0.1306  0.0961
 1510TIP3    H126021   0.339   6.781   3.477 -2.0889 -1.4586  0.1981
 1510TIP3    H226022   0.346   6.661   3.569  0.4824 -0.2014  1.7338
 1511TIP3   OH226023   4.021   5.158   3.441  0.2483 -0.2578  0.1829
 1511TIP3    H126024   3.948   5.141   3.381  0.2695 -0.9868  0.3585
 1511TIP3    H226025   4.076   5.079   3.435  0.5607 -0.0844  0.7121
 1512TIP3   OH226026   1.917   4.622  14.100 -0.6534  0.1890 -0.0155
 1512TIP3    H126027   1.957   4.563  14.035 -0.2056  1.5275 -0.9777
 1512TIP3    H226028   1.823   4.620  14.079 -0.6533 -0.2522  0.0152
 1513TIP3   OH226029   5.729   2.557   2.211 -0.3277  0.3709 -0.1961
 1513TIP3    H126030   5.788   2.568   2.285 -1.3520 -0.5302  0.7768
 1513TIP3    H226031   5.656   2.615   2.229 -0.4412  0.3741 -0.6512
 1514TIP3   OH226032   1.579   0.228   2.821  0.2083  0.0942 -0.2567
 1514TIP3    H126033   1.534   0.149   2.851  1.3600 -0.4834 -0.0356
 1514TIP3    H226034   1.515   0.298   2.837 -0.5071 -0.6653  0.3314
 1515TIP3   OH226035   5.543   4.389  14.136 -0.6240 -0.4379  0.2727
 1515TIP3    H126036   5.513   4.433  14.057 -0.6696 -0.6631  0.1633
 1515TIP3    H226037   5.477   4.409  14.202 -0.0994  0.5250  0.5049
 1516TIP3   OH226038   2.987   1.753  16.325 -0.1926  0.5181  0.0833
 1516TIP3    H126039   2.901   1.713  16.339 -0.1537  0.0490 -0.9866
 1516TIP3    H226040   3.034   1.740  16.408  0.2232 -2.6621 -0.6065
 1517TIP3   OH226041   4.810   0.898   1.547 -0.0108  0.2601  0.0308
 1517TIP3    H126042   4.740   0.931   1.604  0.0860 -0.0342  0.3187
 1517TIP3    H226043   4.849   0.826   1.596  0.2432  0.1748 -0.2980
 1518TIP3   OH226044   3.111   0.338  16.894 -0.0253  0.3819 -0.1621
 1518TIP3    H126045   3.141   0.368  16.980  2.9720  1.6805 -1.5771
 1518TIP3    H226046   3.028   0.384  16.880 -0.2817  0.5358  1.8273
 1519TIP3   OH226047   6.450   1.069  10.953  0.2417 -0.7394 -1.1022
 1519TIP3    H126048   6.396   1.144  10.928 -0.1332 -1.2254 -1.7727
 1519TIP3    H226049   6.427   1.052  11.045  2.4506  1.7661 -0.0233
 1520TIP3   OH226050   0.047   1.896  12.829 -0.6799 -0.3432 -0.8527
 1520TIP3    H126051   0.056   1.801  12.823 -0.1376 -0.4270  0.9770
 1520TIP3    H226052   0.012   1.911  12.916 -0.8377  1.1370 -1.1599
 1521TIP3   OH226053   3.926   4.514   3.819  0.5864  0.0609 -0.0274
 1521TIP3    H126054   3.862   4.583   3.834 -0.6324 -0.6250 -1.9235
 1521TIP3    H226055   3.897   4.471   3.738  2.9135 -0.8536 -0.4139
 1522TIP3   OH226056   5.949   4.447  16.382 -0.5844 -0.2799  0.2149
 1522TIP3    H126057   6.037   4.450  16.342 -1.4165 -1.2657 -1.7566
 1522TIP3    H226058   5.946   4.363  16.427  0.0180  0.4250  1.5940
 1523TIP3   OH226059   4.094   1.790  13.894  0.0626  0.0404 -0.2432
 1523TIP3    H126060   4.078   1.765  13.985 -0.6596 -0.2791 -0.4535
 1523TIP3    H226061   4.020   1.846  13.871 -2.3287 -3.6038 -2.0634
 1524TIP3   OH226062   2.625   1.285  13.987  0.1816 -0.4975  0.3064
 1524TIP3    H126063   2.548   1.229  13.994 -1.4959  1.5067 -1.1338
 1524TIP3    H226064   2.639   1.318  14.076  0.2835 -2.0094  0.8642
 1525TIP3   OH226065   3.570   0.597   6.168 -0.0826  0.2820 -0.2513
 1525TIP3    H126066   3.599   0.682   6.202 -0.4202 -0.0132  0.8001
 1525TIP3    H226067   3.609   0.533   6.227  0.4585 -0.3130 -1.2543
 1526TIP3   OH226068   2.114   4.267  12.192 -0.7411 -0.0023  0.4122
 1526TIP3    H126069   2.186   4.294  12.248 -0.5670 -0.8329  0.5809
 1526TIP3    H226070   2.035   4.292  12.241 -0.5797  0.8967  0.2315
 1527TIP3   OH226071   0.628   5.355  13.930 -0.2266 -0.3443 -0.3494
 1527TIP3    H126072   0.650   5.336  14.022 -0.5417  0.4317 -0.1141
 1527TIP3    H226073   0.536   5.381  13.933  0.5540  2.6159 -0.4649
 1528TIP3   OH226074   6.142   1.235   3.643  0.1935  0.0052 -0.1954
 1528TIP3    H126075   6.201   1.162   3.660  0.1532  0.2029  0.8664
 1528TIP3    H226076   6.067   1.219   3.700  0.6620  1.4095  0.8753
 1529TIP3   OH226077   1.651   3.018  10.577  0.3966 -0.2631 -0.0140
 1529TIP3    H126078   1.648   3.033  10.482 -1.1318  1.7478  0.3208
 1529TIP3    H226079   1.628   2.925  10.586 -1.3961 -0.0028 -1.5113
 1530TIP3   OH226080   3.588   0.189  14.239 -0.0261  0.8449 -0.0193
 1530TIP3    H126081   3.607   0.178  14.332  0.6390  0.5876 -0.1844
 1530TIP3    H226082   3.616   0.107  14.199  1.6441  1.7234 -0.7326
 1531TIP3   OH226083   1.975   1.970  17.078 -0.0362  0.3445  0.3354
 1531TIP3    H126084   2.003   2.039  17.139  2.1125 -2.2745  2.4096
 1531TIP3    H226085   1.891   1.939  17.113  0.0420  0.4426  0.6072
 1532TIP3   OH226086   1.349   1.647   3.786 -0.1136 -0.4435  0.1686
 1532TIP3    H126087   1.268   1.641   3.836  0.6100 -0.8705  1.3054
 1532TIP3    H226088   1.322   1.638   3.695 -1.2657 -1.2445  0.5868
 1533TIP3   OH226089   3.037   0.981   6.039 -0.0292 -0.1613 -0.6392
 1533TIP3    H126090   3.038   1.064   6.086  3.0210 -0.6198  0.2081
 1533TIP3    H226091   3.022   0.915   6.106 -3.7119 -0.2503 -1.4862
 1534TIP3   OH226092   2.922   5.413   3.602 -0.1795 -0.1323 -0.9284
 1534TIP3    H126093   2.894   5.471   3.532  0.7627 -1.6374 -2.5946
 1534TIP3    H226094   2.980   5.350   3.559 -0.4256 -1.7212  1.0023
 1535TIP3   OH226095   3.315   2.399   2.844  0.6845 -0.6618  0.9446
 1535TIP3    H126096   3.334   2.348   2.765 -0.4553  0.0036  0.2215
 1535TIP3    H226097   3.319   2.335   2.915  1.7069 -1.2718  0.3474
 1536TIP3   OH226098   0.947   2.039  12.397  0.3266  0.3029 -0.0802
 1536TIP3    H126099   1.036   2.024  12.427  0.6961  1.9580 -0.3237
 1536TIP3    H226100   0.914   2.110  12.452 -0.2033  0.9311 -1.1824
 1537TIP3   OH226101   1.309   0.539  11.173 -0.2410  0.5932 -0.2326
 1537TIP3    H126102   1.330   0.546  11.080  2.0706  1.1855  0.3014
 1537TIP3    H226103   1.229   0.590  11.183 -0.9146 -0.0659 -2.0205
 1538TIP3   OH226104   2.276   2.822   3.639  0.5657  0.5274  0.4886
 1538TIP3    H126105   2.278   2.875   3.719  2.4682  3.3445 -1.3795
 1538TIP3    H226106   2.366   2.822   3.607 -0.2595 -0.1619 -1.9458
 1539TIP3   OH226107   5.037   4.458   2.077  0.1325 -0.3633  0.0692
 1539TIP3    H126108   5.104   4.516   2.042  2.3108 -3.0500 -0.4242
 1539TIP3    H226109   5.029   4.483   2.170 -0.8158  2.3317 -0.6941
 1540TIP3   OH226110   2.110   5.198  13.788 -0.3425  0.2575 -0.6220
 1540TIP3    H126111   2.071   5.110  13.795 -0.2455  0.3546  1.3140
 1540TIP3    H226112   2.121   5.226  13.878  1.9228  1.2727 -1.2000
 1541TIP3   OH226113   2.254   3.234   6.827  0.6056 -0.6017  0.2341
 1541TIP3    H126114   2.196   3.245   6.902  0.9099 -0.4601  0.4492
 1541TIP3    H226115   2.264   3.139   6.818 -0.3070 -0.6561 -0.3048
 1542TIP3   OH226116   1.707   0.013  10.529  0.8192  0.6181 -0.5147
 1542TIP3    H126117   1.778   0.002  10.592 -0.7727  1.1246  1.4084
 1542TIP3    H226118   1.680   0.104  10.537 -2.1350 -0.3082  1.1291
 1543TIP3   OH226119   0.401   3.816  13.229 -0.2478 -0.0880 -0.5355
 1543TIP3    H126120   0.454   3.896  13.232  0.1005 -0.3642  1.3005
 1543TIP3    H226121   0.406   3.781  13.318 -0.5346 -2.0664 -1.2718
 1544TIP3   OH226122   0.050   0.713   1.945 -0.1598 -1.1670  0.0755
 1544TIP3    H126123  -0.008   0.651   1.901 -0.1806 -1.8200  1.0308
 1544TIP3    H226124   0.068   0.674   2.030 -0.1220  0.1099  0.6619
 1545TIP3   OH226125   3.708   0.901  13.992 -0.4074 -0.2701  0.5333
 1545TIP3    H126126   3.795   0.877  14.022  0.0475 -1.7707 -1.8176
 1545TIP3    H226127   3.650   0.837  14.032 -0.2085 -0.3514  0.6897
 1546TIP3   OH226128   0.159   0.852  11.636  0.1481 -0.1879  0.3612
 1546TIP3    H126129   0.195   0.803  11.710  0.3594  1.0091  1.0564
 1546TIP3    H226130   0.180   0.798  11.559 -0.6731 -1.7740  1.2238
 1547TIP3   OH226131   6.211   0.732  15.052 -0.2988  0.1587  0.4380
 1547TIP3    H126132   6.178   0.801  15.110  0.0501 -0.4180  1.3432
 1547TIP3    H226133   6.298   0.761  15.026 -0.0199 -0.0822  1.0820
 1548TIP3   OH226134   2.541   0.636  15.685 -0.3244  0.2884  0.0877
 1548TIP3    H126135   2.524   0.542  15.693  0.6731  0.0072 -0.8767
 1548TIP3    H226136   2.626   0.649  15.727  0.1743  0.5201 -0.9718
 1549TIP3   OH226137   3.357   2.287  10.850  0.4738 -0.0940  0.1002
 1549TIP3    H126138   3.277   2.334  10.824  1.3301  2.4621  1.9165
 1549TIP3    H226139   3.326   2.201  10.878 -1.3798  0.0651 -1.3889
 1550TIP3   OH226140   3.100   2.059   2.380 -0.0397  0.6887 -0.0698
 1550TIP3    H126141   3.080   2.026   2.468  0.1083  3.1639  0.9392
 1550TIP3    H226142   3.169   2.123   2.394  0.2015  0.8823 -2.0430
 1551TIP3   OH226143   2.880   2.219   1.900  0.1042  0.2992  0.0299
 1551TIP3    H126144   2.944   2.240   1.833  0.2485 -1.0115 -0.2617
 1551TIP3    H226145   2.897   2.281   1.971  0.7501  0.8802 -0.6324
 1552TIP3   OH226146   2.439   1.288   6.447 -0.4822 -0.0137 -0.4224
 1552TIP3    H126147   2.511   1.346   6.472 -2.4893  1.9922  0.9380
 1552TIP3    H226148   2.413   1.317   6.360  0.8022 -1.2294 -1.2302
 1553TIP3   OH226149   5.224   0.983  13.977 -0.2162 -0.1440  0.3572
 1553TIP3    H126150   5.148   0.951  14.025 -0.8194 -0.1463 -0.5961
 1553TIP3    H226151   5.298   0.939  14.018 -0.8937 -1.5387  0.1121
 1554TIP3   OH226152   6.312   0.221   3.801 -0.3830 -0.0528 -0.0474
 1554TIP3    H126153   6.374   0.242   3.731  0.1863  0.9304  0.7177
 1554TIP3    H226154   6.232   0.197   3.756  0.0061  0.4514 -1.0406
 1555TIP3   OH226155   3.549   5.525   5.568 -0.1649  0.0565  0.1885
 1555TIP3    H126156   3.474   5.474   5.598 -1.2904  1.2822 -0.4547
 1555TIP3    H226157   3.555   5.598   5.630  0.8564 -0.3597  0.5777
 1556TIP3   OH226158   1.023   6.699  12.343 -0.2174 -0.3601 -0.2032
 1556TIP3    H126159   0.996   6.788  12.368  0.0461  0.7212 -3.5157
 1556TIP3    H226160   0.942   6.650  12.336 -0.4748 -0.0125  0.3172
 1557TIP3   OH226161   4.707   5.230   4.840  0.4764 -0.4414 -0.0502
 1557TIP3    H126162   4.718   5.324   4.827  1.3109 -0.3143  1.4756
 1557TIP3    H226163   4.645   5.222   4.912  0.9512 -1.0374  0.3004
 1558TIP3   OH226164   2.966   1.552   4.409 -0.5026 -0.2397 -0.0417
 1558TIP3    H126165   2.918   1.497   4.471  0.8460 -2.5083 -0.9401
 1558TIP3    H226166   2.904   1.567   4.337  0.0044 -2.9493 -1.0902
 1559TIP3   OH226167   0.403   0.474   2.444  0.2825  0.5178  0.4390
 1559TIP3    H126168   0.381   0.552   2.494  2.2545  0.2680  1.7417
 1559TIP3    H226169   0.422   0.407   2.510  1.0212 -0.3645 -0.6456
 1560TIP3   OH226170   1.599   3.181  15.250  0.0606  0.2152  0.3834
 1560TIP3    H126171   1.665   3.131  15.201  0.0780 -1.4075  2.0545
 1560TIP3    H226172   1.610   3.155  15.341 -0.5960  2.5333  1.1766
 1561TIP3   OH226173   3.931   1.468   1.437  0.5999  0.6034 -0.6010
 1561TIP3    H126174   3.897   1.381   1.414  0.1843  0.6696 -0.2475
 1561TIP3    H226175   3.955   1.507   1.354 -0.2132  0.5610 -0.8664
 1562TIP3   OH226176   4.406   4.512   4.122 -0.0732 -0.0770  0.2771
 1562TIP3    H126177   4.459   4.544   4.195  0.1093 -1.0246  0.5550
 1562TIP3    H226178   4.320   4.493   4.160  0.4582 -1.9932  0.5582
 1563TIP3   OH226179   1.464   2.825  10.423  0.0453  0.3965 -0.1260
 1563TIP3    H126180   1.387   2.880  10.411 -0.1868  0.0544 -0.2130
 1563TIP3    H226181   1.433   2.751  10.474 -0.3906 -1.2609 -2.7187
 1564TIP3   OH226182   1.449   3.070  13.709  0.2157  0.7140 -1.1513
 1564TIP3    H126183   1.424   3.135  13.775 -1.3958 -0.9570 -0.0629
 1564TIP3    H226184   1.402   3.096  13.630 -2.4416 -0.5339 -0.0229
 1565TIP3   OH226185   0.781   6.701   6.703  0.3154 -0.0516  0.3478
 1565TIP3    H126186   0.778   6.759   6.779 -0.3795 -1.3058  1.3106
 1565TIP3    H226187   0.695   6.659   6.702 -0.1097  0.8027 -1.8323
 1566TIP3   OH226188   5.500   2.535  12.261  0.6360 -0.2138  1.0059
 1566TIP3    H126189   5.423   2.518  12.208  1.4947 -1.0728  0.0087
 1566TIP3    H226190   5.470   2.526  12.352 -0.5401 -0.0258  0.6353
 1567TIP3   OH226191   2.812   2.307   5.430 -0.3780  0.0635  0.0732
 1567TIP3    H126192   2.813   2.373   5.362 -3.1182  1.0035  0.8734
 1567TIP3    H226193   2.851   2.229   5.390  2.9967  2.1600 -0.8308
 1568TIP3   OH226194   6.066   5.608   3.944 -0.0050 -0.1340  0.2992
 1568TIP3    H126195   6.036   5.696   3.967 -0.2070 -0.3222  0.7592
 1568TIP3    H226196   5.986   5.558   3.931  0.1002 -0.6014  1.3900
 1569TIP3   OH226197   4.733   6.766  14.477  0.5392 -0.0137  0.3793
 1569TIP3    H126198   4.784   6.844  14.454  0.9701 -1.0856 -2.5506
 1569TIP3    H226199   4.789   6.692  14.451 -0.7144 -1.2735  1.1566
 1570TIP3   OH226200   0.910   3.009   3.589 -0.5708  0.0739 -0.2580
 1570TIP3    H126201   0.991   2.982   3.544  1.1502  1.3598  1.9255
 1570TIP3    H226202   0.887   2.934   3.644 -0.7826 -0.2531 -0.7941
 1571TIP3   OH226203   5.174   2.775  14.219 -0.1164 -0.2084 -0.2729
 1571TIP3    H126204   5.179   2.829  14.298  1.3661 -1.7723  0.7529
 1571TIP3    H226205   5.081   2.765  14.202 -0.4309  0.8978  0.7594
 1572TIP3   OH226206   1.153   0.252  13.863  0.4716 -0.4825 -0.0193
 1572TIP3    H126207   1.194   0.324  13.911 -0.7137  0.9198 -1.0536
 1572TIP3    H226208   1.077   0.227  13.916  1.3501 -1.5637  0.7601
 1573TIP3   OH226209   3.507   0.795  17.190  0.7574 -0.2896 -0.5098
 1573TIP3    H126210   3.542   0.717  17.147 -1.1223  0.0840 -2.8135
 1573TIP3    H226211   3.536   0.868  17.136  2.7673  0.7156  1.8047
 1574TIP3   OH226212   2.904   1.060  15.350  0.0213  0.0860 -0.7867
 1574TIP3    H126213   2.980   1.093  15.399  0.8486 -0.7929 -1.4553
 1574TIP3    H226214   2.842   1.032  15.418  1.0800 -0.9605 -0.2145
 1575TIP3   OH226215   2.452   6.750  14.259 -0.1125  0.0989 -0.0192
 1575TIP3    H126216   2.362   6.746  14.229  0.1097 -0.1509 -0.6553
 1575TIP3    H226217   2.451   6.813  14.331 -1.0137 -0.8037  0.7660
 1576TIP3   OH226218   2.611   0.876   4.804 -0.0273 -0.4842  0.5214
 1576TIP3    H126219   2.644   0.823   4.877 -1.6621 -2.0205  0.1898
 1576TIP3    H226220   2.655   0.960   4.814  0.5626 -1.0060  2.6835
 1577TIP3   OH226221   5.194   4.031  12.238 -0.1631  0.6247  0.4198
 1577TIP3    H126222   5.269   4.087  12.261  0.2998 -0.8827  2.7913
 1577TIP3    H226223   5.232   3.945  12.222 -1.0521  0.5803 -1.5999
 1578TIP3   OH226224   5.785   2.035  11.738  0.1374  0.0453 -0.2902
 1578TIP3    H126225   5.864   1.996  11.702 -0.5231 -0.0686 -1.6577
 1578TIP3    H226226   5.786   2.126  11.706 -0.0576  0.1697  0.0520
 1579TIP3   OH226227   4.874   3.581   1.846  0.4522 -0.2952  0.5178
 1579TIP3    H126228   4.787   3.548   1.870  0.6981 -1.0909  0.3257
 1579TIP3    H226229   4.882   3.562   1.752  0.8282 -0.2021  0.5313
 1580TIP3   OH226230   4.050   0.761  16.010  0.0896 -0.3430  0.5655
 1580TIP3    H126231   3.979   0.782  16.071  0.1033 -0.4179  0.6072
 1580TIP3    H226232   4.040   0.668  15.993 -1.1628  0.0964 -1.1793
 1581TIP3   OH226233   5.191   2.358  11.653  0.1628  0.4373 -0.1320
 1581TIP3    H126234   5.100   2.385  11.667 -0.5996 -1.9530 -0.0694
 1581TIP3    H226235   5.194   2.332  11.561  0.1303 -1.6698  0.4221
 1582TIP3   OH226236   3.142   0.638   4.677 -1.2640 -0.5969  0.2739
 1582TIP3    H126237   3.095   0.719   4.693  1.7740  0.7789  2.7705
 1582TIP3    H226238   3.216   0.664   4.621 -1.0355 -1.9037 -0.0506
 1583TIP3   OH226239   6.342   4.445  13.145 -0.2785 -0.5679  0.0459
 1583TIP3    H126240   6.251   4.419  13.127 -0.9453  0.6678  1.5599
 1583TIP3    H226241   6.377   4.373  13.198  0.0921 -1.7101 -1.6780
 1584TIP3   OH226242   0.283   3.606   0.301  0.3108  0.2120  1.0289
 1584TIP3    H126243   0.290   3.611   0.206  1.6739  1.1607  1.1735
 1584TIP3    H226244   0.345   3.538   0.327 -1.5754 -1.5440  1.0821
 1585TIP3   OH226245   1.680   5.771   4.494 -0.6093  0.6622 -0.1328
 1585TIP3    H126246   1.590   5.744   4.477 -0.0349 -0.5850 -1.2736
 1585TIP3    H226247   1.728   5.689   4.509  0.1576  1.3666  1.4348
 1586TIP3   OH226248   5.981   1.732  11.505  0.7589  0.6425  0.3984
 1586TIP3    H126249   6.073   1.711  11.488  0.2658 -1.1503 -0.1131
 1586TIP3    H226250   5.943   1.743  11.418 -0.2574 -1.9167  0.5037
 1587TIP3   OH226251   5.816   4.134   4.006  0.3318  0.2040 -0.1797
 1587TIP3    H126252   5.854   4.066   3.951 -2.8741 -0.7803 -1.3344
 1587TIP3    H226253   5.820   4.097   4.095 -0.5436 -1.1438 -0.6741
 1588TIP3   OH226254   5.928   5.744  14.974 -0.6116  0.0439  0.0882
 1588TIP3    H126255   5.944   5.830  15.014 -0.0198  1.0658 -2.2733
 1588TIP3    H226256   5.852   5.757  14.918 -2.1939 -1.6881  1.7794
 1589TIP3   OH226257   2.493   0.956   1.231 -0.1675  0.1127  0.3715
 1589TIP3    H126258   2.586   0.959   1.251  0.5097 -2.2037 -2.0684
 1589TIP3    H226259   2.479   0.867   1.198 -3.0436  0.7295 -0.2054
 1590TIP3   OH226260   5.405   3.484   3.887 -0.3682 -0.9489 -0.6319
 1590TIP3    H126261   5.456   3.533   3.952 -0.2684 -1.3750 -0.3887
 1590TIP3    H226262   5.318   3.525   3.889 -0.0066 -0.1519 -1.1229
 1591TIP3   OH226263   3.815   2.133   4.413 -0.0610 -0.2159 -0.2538
 1591TIP3    H126264   3.797   2.178   4.495  0.1129  2.6547 -1.7099
 1591TIP3    H226265   3.728   2.112   4.378 -0.2382  1.3532 -0.7896
 1592TIP3   OH226266   5.659   3.007   4.228  0.0363  0.5452  0.3622
 1592TIP3    H126267   5.720   2.982   4.297  1.0870 -0.3110 -0.8493
 1592TIP3    H226268   5.572   3.001   4.269  0.6130 -0.3408  1.4755
 1593TIP3   OH226269   3.137   3.887  15.897  0.4675 -0.0807 -0.3313
 1593TIP3    H126270   3.222   3.866  15.933  0.7444  1.5472 -0.0069
 1593TIP3    H226271   3.075   3.870  15.968  0.8336  1.4665  0.3844
 1594TIP3   OH226272   5.954   3.795  16.318  0.0737 -0.4351  0.1675
 1594TIP3    H126273   6.041   3.761  16.299  0.6782  0.8995  0.4916
 1594TIP3    H226274   5.941   3.866  16.255 -0.7228 -0.5323  0.2115
 1595TIP3   OH226275   5.151   0.275   6.429  0.3383 -0.1158 -0.5580
 1595TIP3    H126276   5.225   0.246   6.482  0.2387  1.3126  0.3864
 1595TIP3    H226277   5.164   0.369   6.419 -2.0092  0.3770  0.6755
 1596TIP3   OH226278   5.194   2.041   5.644 -0.1012 -0.1673  0.3622
 1596TIP3    H126279   5.192   2.015   5.736 -2.9363 -0.8476  0.1647
 1596TIP3    H226280   5.187   2.137   5.646  0.0994 -0.1596  0.8399
 1597TIP3   OH226281   1.942   2.980  13.142 -0.1748  0.5497 -0.3793
 1597TIP3    H126282   1.860   2.937  13.166  1.0711 -1.1297  0.9568
 1597TIP3    H226283   1.965   2.941  13.058 -0.8837  1.2454 -0.9055
 1598TIP3   OH226284   5.192   1.710   5.633  0.0295 -0.1327 -0.2952
 1598TIP3    H126285   5.277   1.687   5.672  1.4219  1.4321 -2.2430
 1598TIP3    H226286   5.214   1.777   5.568 -2.7980  0.6561 -0.4845
 1599TIP3   OH226287   3.777   2.289   0.941 -0.5509 -0.4167 -0.0847
 1599TIP3    H126288   3.835   2.226   0.983 -0.6233 -1.2113 -1.1767
 1599TIP3    H226289   3.691   2.249   0.943 -0.6970 -0.1206 -0.3080
 1600TIP3   OH226290   4.829   5.868  12.627  0.1553  0.0551  0.0227
 1600TIP3    H126291   4.749   5.849  12.676 -0.2036  0.6871 -0.3096
 1600TIP3    H226292   4.850   5.786  12.582  0.3705 -0.4674  1.0573
 1601TIP3   OH226293   3.815   4.048  15.423  0.2832 -0.2412 -0.3446
 1601TIP3    H126294   3.734   4.085  15.459  0.2777 -1.6668  1.1741
 1601TIP3    H226295   3.832   4.100  15.344 -2.0194  0.1807 -0.6062
 1602TIP3   OH226296   6.071   4.686   6.206 -0.6611 -0.5599 -0.4337
 1602TIP3    H126297   6.156   4.652   6.177 -0.5912  0.1708 -1.1144
 1602TIP3    H226298   6.093   4.744   6.279 -0.7856 -1.9883  0.7529
 1603TIP3   OH226299   6.683   5.514  16.340  0.1533 -0.0514  0.1272
 1603TIP3    H126300   6.587   5.514  16.333  0.1965 -0.4271 -0.5425
 1603TIP3    H226301   6.712   5.563  16.263  0.4800  0.7444  0.7422
 1604TIP3   OH226302   1.290   0.739   4.435  0.1818 -0.3081 -0.2231
 1604TIP3    H126303   1.360   0.679   4.410  0.5939 -0.0555  0.3006
 1604TIP3    H226304   1.260   0.776   4.352  1.9270  0.9506 -0.3302
 1605TIP3   OH226305   1.537   5.197  17.079 -0.3517  0.2821  0.2583
 1605TIP3    H126306   1.475   5.269  17.066 -2.8095 -1.9884 -0.9703
 1605TIP3    H226307   1.535   5.180  17.173 -1.1757  0.5762  0.2909
 1606TIP3   OH226308   1.169   4.732   2.580  0.0556 -0.1766  0.5737
 1606TIP3    H126309   1.165   4.652   2.632 -1.5346  0.3323  1.2566
 1606TIP3    H226310   1.152   4.703   2.490  0.7513 -0.7736  0.6344
 1607TIP3   OH226311   0.695   2.438  16.572 -0.2287  0.1286  0.1676
 1607TIP3    H126312   0.672   2.520  16.615  1.2391  0.9250 -0.5572
 1607TIP3    H226313   0.765   2.401  16.626 -0.3525 -0.2765  0.0540
 1608TIP3   OH226314   4.280   5.445   4.999 -0.0000 -0.4865  0.0843
 1608TIP3    H126315   4.200   5.438   4.946  1.3277  0.1641 -2.0380
 1608TIP3    H226316   4.264   5.520   5.056 -0.7489 -0.1151 -0.6042
 1609TIP3   OH226317   4.392   3.673   5.289  0.7136 -0.3637 -0.1256
 1609TIP3    H126318   4.406   3.688   5.382  1.3892  0.2701 -0.3226
 1609TIP3    H226319   4.365   3.582   5.283 -0.0840 -0.1907  0.7642
 1610TIP3   OH226320   4.172   3.777   0.972 -0.2292  0.3562  0.1029
 1610TIP3    H126321   4.188   3.708   1.037 -1.6886  0.5888  0.7263
 1610TIP3    H226322   4.079   3.797   0.981 -0.7490 -0.4759 -2.9527
 1611TIP3   OH226323   1.407   3.694   2.709 -0.5628  0.1266  0.3336
 1611TIP3    H126324   1.497   3.722   2.718  0.0954 -1.5786 -0.6891
 1611TIP3    H226325   1.412   3.609   2.665 -2.6076 -0.3509  0.9340
 1612TIP3   OH226326   5.780   1.118   6.311 -0.1606  0.4283 -0.3443
 1612TIP3    H126327   5.870   1.149   6.318  0.1074  0.3007 -2.7244
 1612TIP3    H226328   5.789   1.027   6.282 -1.0550  0.3777 -0.4600
 1613TIP3   OH226329   1.918   0.329   0.850  0.0351  0.6422  0.3234
 1613TIP3    H126330   1.917   0.305   0.758 -2.5185  0.6107  0.3267
 1613TIP3    H226331   2.011   0.340   0.871  0.6178  1.4128 -2.4358
 1614TIP3   OH226332   1.876   6.293   0.729 -0.1880 -0.2740  0.0807
 1614TIP3    H126333   1.801   6.304   0.670  0.6063  0.2272 -0.8704
 1614TIP3    H226334   1.926   6.374   0.718 -0.8915  0.5570  2.7343
 1615TIP3   OH226335   0.072   4.850  10.919 -0.4487 -0.1486 -0.8203
 1615TIP3    H126336   0.156   4.884  10.886 -0.5576  1.6834  0.7534
 1615TIP3    H226337   0.094   4.810  11.003 -0.5783 -2.7778 -1.9825
 1616TIP3   OH226338   4.081   6.077  16.872 -0.1187  0.0370  0.4149
 1616TIP3    H126339   4.063   5.990  16.835  1.2805 -0.0572 -0.0951
 1616TIP3    H226340   4.029   6.137  16.817  3.0008  0.0466 -2.7364
 1617TIP3   OH226341   5.992   1.042  15.854 -0.1513 -0.1087  0.2251
 1617TIP3    H126342   5.962   0.975  15.916 -1.7461 -0.3038 -0.7519
 1617TIP3    H226343   6.043   1.102  15.908 -1.9654  0.0128  1.8384
 1618TIP3   OH226344   5.039   1.772  15.641  1.1205  0.0475 -0.0835
 1618TIP3    H126345   4.985   1.693  15.636  2.5879 -0.9460 -0.5042
 1618TIP3    H226346   4.981   1.843  15.611 -0.1936 -0.8673  0.2687
 1619TIP3   OH226347   2.589   3.047   3.837 -0.3957  0.4746  0.4086
 1619TIP3    H126348   2.639   3.078   3.913  1.0346  0.1511 -0.3704
 1619TIP3    H226349   2.650   3.056   3.763 -0.9817 -1.3021 -0.3208
 1620TIP3   OH226350   5.595   1.260   2.582  0.0363  0.1262  0.0224
 1620TIP3    H126351   5.539   1.264   2.505  1.2363 -1.5640 -0.9794
 1620TIP3    H226352   5.658   1.331   2.569 -1.4023  1.5820  0.8106
 1621TIP3   OH226353   5.901   1.896  14.950  0.5361  0.0917 -0.4471
 1621TIP3    H126354   5.895   1.911  14.855 -4.0487  1.3303 -0.1210
 1621TIP3    H226355   5.887   1.802  14.960 -2.1917  0.3880 -0.9321
 1622TIP3   OH226356   3.438   3.373  16.473  0.0297 -0.6787  0.0968
 1622TIP3    H126357   3.521   3.406  16.437 -0.7695 -0.0728 -1.2087
 1622TIP3    H226358   3.411   3.304  16.413 -0.0705 -1.3628  0.9110
 1623TIP3   OH226359   0.451   6.602  11.407 -0.2096 -0.4658 -0.4215
 1623TIP3    H126360   0.396   6.648  11.344 -0.6952 -1.3207 -0.6308
 1623TIP3    H226361   0.413   6.514  11.412  0.3726 -0.6725  0.3849
 1624TIP3   OH226362   4.364   3.173  11.973  0.1057  0.4664 -0.2806
 1624TIP3    H126363   4.350   3.214  11.887  0.2164  0.1282 -0.4590
 1624TIP3    H226364   4.448   3.129  11.965 -0.4671 -0.6211 -0.4012
 1625TIP3   OH226365   6.159   3.588   2.872  0.4964 -0.0645  0.1913
 1625TIP3    H126366   6.247   3.553   2.861  0.0922 -1.4101  1.1270
 1625TIP3    H226367   6.125   3.545   2.951 -0.6911  1.0616  0.3277
 1626TIP3   OH226368   0.782   4.502   4.389  0.2786  0.0446  0.0753
 1626TIP3    H126369   0.777   4.435   4.458 -1.0683  1.7034  1.6381
 1626TIP3    H226370   0.747   4.459   4.311  1.3088 -1.6947  0.5461
 1627TIP3   OH226371   3.150   3.573   0.253 -0.2269 -0.2337 -0.1146
 1627TIP3    H126372   3.184   3.612   0.173  1.0807  0.8409  0.9620
 1627TIP3    H226373   3.055   3.586   0.247 -0.2129 -0.7852 -1.8048
 1628TIP3   OH226374   5.484   3.089  11.607 -0.4497  0.0523 -0.1408
 1628TIP3    H126375   5.520   3.177  11.621 -0.2946  0.0966 -0.8172
 1628TIP3    H226376   5.498   3.072  11.514  0.9035 -1.3098  0.2882
 1629TIP3   OH226377   5.678   5.643  11.798 -0.0182 -0.3609 -0.7238
 1629TIP3    H126378   5.646   5.714  11.855  2.1929  0.2295 -0.1731
 1629TIP3    H226379   5.696   5.571  11.858  0.7945 -0.2858 -0.8745
 1630TIP3   OH226380   2.838   5.476  13.400  0.3400 -0.3315  0.0103
 1630TIP3    H126381   2.926   5.501  13.373  0.5622  0.4264  1.4003
 1630TIP3    H226382   2.832   5.504  13.491 -1.5356  0.1327 -0.2360
 1631TIP3   OH226383   0.142   4.906  11.458 -0.0237 -0.4542  0.6379
 1631TIP3    H126384   0.220   4.943  11.416  0.1893  0.2296  1.6154
 1631TIP3    H226385   0.077   4.903  11.388  0.5755 -0.1003  0.0548
 1632TIP3   OH226386   1.277   3.327   2.190 -0.0483  0.1511 -0.3339
 1632TIP3    H126387   1.239   3.270   2.122  0.8885  0.0210 -0.7733
 1632TIP3    H226388   1.203   3.357   2.242 -0.9084  1.0915 -2.0648
 1633TIP3   OH226389   6.388   1.961   3.248 -0.0592  0.5761  0.1682
 1633TIP3    H126390   6.438   1.886   3.280  0.7431  1.1998  0.4085
 1633TIP3    H226391   6.312   1.923   3.204 -0.3048 -0.3434  1.3426
 1634TIP3   OH226392   4.798   0.398   0.985  0.0417  0.5379 -0.1990
 1634TIP3    H126393   4.704   0.395   0.967 -0.0737 -0.3852  0.5776
 1634TIP3    H226394   4.804   0.417   1.078  0.6383  1.4845 -0.4218
 1635TIP3   OH226395   2.983   2.236   5.015  0.1898 -0.3533  0.0547
 1635TIP3    H126396   2.947   2.281   4.939 -0.4724  0.8456  1.0677
 1635TIP3    H226397   3.078   2.236   5.000  0.0906  0.2070 -0.5778
 1636TIP3   OH226398   2.829   1.326  12.545  0.0578  0.4786  0.1271
 1636TIP3    H126399   2.887   1.305  12.472 -2.5063 -1.8904 -1.3173
 1636TIP3    H226400   2.849   1.260  12.611 -1.8509 -1.1842 -0.9064
 1637TIP3   OH226401   1.167   2.951  12.621  0.1932  0.1336 -0.0958
 1637TIP3    H126402   1.180   2.928  12.529  0.7728 -1.4754  0.3876
 1637TIP3    H226403   1.228   3.023  12.636  0.2413  0.2669 -0.9109
 1638TIP3   OH226404   6.474   5.307   4.322 -0.0074  0.3738 -0.1692
 1638TIP3    H126405   6.417   5.306   4.245  0.9658  1.4189 -0.9157
 1638TIP3    H226406   6.503   5.397   4.329  0.6739  0.0759  0.8646
 1639TIP3   OH226407   3.875   0.542   0.892  0.5895 -0.2456  0.4046
 1639TIP3    H126408   3.933   0.591   0.950  1.4499 -2.6928  1.6907
 1639TIP3    H226409   3.841   0.471   0.946  2.0243 -3.0738 -2.2121
 1640TIP3   OH226410   4.691   0.538  10.377 -0.0614 -0.4688  0.1501
 1640TIP3    H126411   4.786   0.529  10.364  0.1634  0.4551  1.0305
 1640TIP3    H226412   4.667   0.462  10.429  0.3232 -0.3655  0.4867
 1641TIP3   OH226413   0.720   2.980  12.628 -0.4118  0.0938  0.3473
 1641TIP3    H126414   0.784   3.029  12.680 -0.1707 -1.4732  1.5643
 1641TIP3    H226415   0.637   3.027  12.642  0.4058  2.0301 -1.1118
 1642TIP3   OH226416   1.644   2.639  10.265 -0.3339 -0.3006 -0.7790
 1642TIP3    H126417   1.587   2.704  10.306 -0.3832 -1.2470  0.6738
 1642TIP3    H226418   1.608   2.555  10.292  0.2600 -0.9376 -1.9225
 1643TIP3   OH226419   5.499   0.496  15.575 -0.3314  0.2070 -0.0926
 1643TIP3    H126420   5.521   0.551  15.650  0.5262 -0.8518  0.4571
 1643TIP3    H226421   5.505   0.406  15.609  0.9263 -0.3272 -1.6485
 1644TIP3   OH226422   0.262   1.512   1.650 -0.2076  0.4387 -0.3173
 1644TIP3    H126423   0.193   1.532   1.587 -1.1401 -0.5880  0.3540
 1644TIP3    H226424   0.322   1.454   1.603 -1.0674 -0.5779 -0.1814
 1645TIP3   OH226425   5.071   2.402  14.762  0.1093 -0.1043  0.5435
 1645TIP3    H126426   5.126   2.386  14.685 -1.0207  1.4659 -0.6089
 1645TIP3    H226427   5.081   2.495  14.781 -0.7483 -0.1740  1.4287
 1646TIP3   OH226428   2.832   5.151  13.149  0.4964  0.0235  0.3985
 1646TIP3    H126429   2.738   5.133  13.152  0.7147 -0.9665  1.8493
 1646TIP3    H226430   2.838   5.243  13.124 -0.8887  0.2893  0.9825
 1647TIP3   OH226431   5.533   4.963   5.849  0.0209  0.4662  0.0046
 1647TIP3    H126432   5.472   4.911   5.796 -1.2104  2.5185 -0.6559
 1647TIP3    H226433   5.533   4.920   5.934 -1.5734 -0.1597 -0.2875
 1648TIP3   OH226434   6.138   5.016   5.899 -0.2453  0.7749  0.0968
 1648TIP3    H126435   6.143   5.020   5.804  0.3060 -0.2581  0.0852
 1648TIP3    H226436   6.183   5.096   5.928  2.2871 -0.4077 -0.4350
 1649TIP3   OH226437   5.516   0.088  14.797  0.0390 -0.3320  0.6716
 1649TIP3    H126438   5.585   0.138  14.752 -0.1631  2.7217  3.5174
 1649TIP3    H226439   5.459   0.058  14.727  2.6225 -0.3687 -1.5247
 1650TIP3   OH226440   1.593   0.468  12.076 -0.5198 -0.1789 -0.1142
 1650TIP3    H126441   1.661   0.405  12.102 -0.5420 -1.4575 -3.0066
 1650TIP3    H226442   1.512   0.417  12.076 -0.4981 -0.2672 -2.7570
 1651TIP3   OH226443   5.472   6.120  13.910  0.6162  0.5284  0.3843
 1651TIP3    H126444   5.568   6.122  13.907  0.6418 -0.6943  0.2335
 1651TIP3    H226445   5.452   6.058  13.980 -0.0630  1.0640  0.6614
 1652TIP3   OH226446   2.166   3.121  17.076 -0.0208 -0.3909 -0.2616
 1652TIP3    H126447   2.142   3.036  17.114 -0.6260  1.5596  4.0523
 1652TIP3    H226448   2.251   3.141  17.114 -0.2899  1.3227 -0.5163
 1653TIP3   OH226449   6.638   6.589  14.400 -0.0039  0.3786  0.1286
 1653TIP3    H126450   6.609   6.516  14.346  1.3952  0.1770 -0.3734
 1653TIP3    H226451   6.571   6.656  14.389 -0.2117 -0.0286 -1.0935
 1654TIP3   OH226452   2.805   4.898   3.068  0.4877 -0.4869 -0.5509
 1654TIP3    H126453   2.829   4.840   2.995 -0.8293 -2.2411  0.3676
 1654TIP3    H226454   2.848   4.860   3.144 -2.2220 -1.6341  0.4758
 1655TIP3   OH226455   4.751   3.324  12.049 -0.3042 -0.5239  0.2909
 1655TIP3    H126456   4.705   3.407  12.053 -2.1206 -1.4725 -0.6585
 1655TIP3    H226457   4.795   3.323  11.964  0.5648 -0.1168  0.7223
 1656TIP3   OH226458   6.602   3.384  17.142  0.2005  0.3220 -0.5006
 1656TIP3    H126459   6.591   3.421  17.229  0.7655  0.5741 -0.5314
 1656TIP3    H226460   6.682   3.332  17.147 -1.1482 -1.7733 -0.1714
 1657TIP3   OH226461   4.197   3.327  11.754 -0.3201  0.5446  0.0798
 1657TIP3    H126462   4.221   3.419  11.745  2.8238 -0.2081  0.2460
 1657TIP3    H226463   4.188   3.295  11.664 -1.1612  0.9235  0.0196
 1658TIP3   OH226464   3.116   3.044   1.314 -0.1142  0.2008  0.1547
 1658TIP3    H126465   3.045   3.044   1.249 -0.0815  0.0042  0.1193
 1658TIP3    H226466   3.183   3.101   1.276 -0.3106  0.5026  0.2533
 1659TIP3   OH226467   0.479   3.803  11.520  0.9497  0.0053 -0.5575
 1659TIP3    H126468   0.474   3.731  11.457  0.3369  0.3539 -0.9165
 1659TIP3    H226469   0.414   3.781  11.586  1.9443 -0.6103  0.2241
 1660TIP3   OH226470   6.683   5.592   1.467  0.0775  0.5396  0.0768
 1660TIP3    H126471   6.593   5.565   1.481  0.5411 -1.1394 -0.1366
 1660TIP3    H226472   6.708   5.635   1.550 -1.0351  1.3972 -0.0267
 1661TIP3   OH226473   4.544   4.379   3.420  1.3723 -0.0144  0.0261
 1661TIP3    H126474   4.631   4.379   3.462  0.8795  1.4757  1.0998
 1661TIP3    H226475   4.483   4.390   3.493  0.3797  0.6829 -0.9029
 1662TIP3   OH226476   5.429   6.568   0.480  0.5183 -0.0066  0.1836
 1662TIP3    H126477   5.362   6.501   0.472 -2.1639  2.9100 -3.0537
 1662TIP3    H226478   5.495   6.544   0.414 -0.2171  0.2919 -0.6644
 1663TIP3   OH226479   4.246   2.010  11.763  0.0149  0.2808  0.2704
 1663TIP3    H126480   4.242   2.015  11.858 -0.4445 -3.4279  0.5154
 1663TIP3    H226481   4.335   1.982  11.744 -0.4496 -0.8683 -0.2656
 1664TIP3   OH226482   0.685   5.745   3.830  0.3718 -0.0733  0.1693
 1664TIP3    H126483   0.670   5.754   3.736 -1.2203  0.4286  0.4600
 1664TIP3    H226484   0.762   5.800   3.847  0.0610  0.6337 -0.6783
 1665TIP3   OH226485   2.051   6.469   4.441 -0.2202  0.7519  0.8055
 1665TIP3    H126486   1.966   6.428   4.453  0.6260 -1.0234  1.0220
 1665TIP3    H226487   2.047   6.507   4.353 -1.1250  0.3791  0.6794
 1666TIP3   OH226488   0.288   1.473   3.158 -0.1101  0.6135 -0.1082
 1666TIP3    H126489   0.338   1.448   3.236 -2.4163 -0.6933  0.9871
 1666TIP3    H226490   0.284   1.569   3.163  1.1952  0.6478  0.4749
 1667TIP3   OH226491   5.582   0.768   0.544  0.2073  0.1251 -0.3370
 1667TIP3    H126492   5.495   0.729   0.535 -1.0539  3.1011 -1.6630
 1667TIP3    H226493   5.627   0.745   0.463  0.0990 -0.0294 -0.3544
 1668TIP3   OH226494   6.405   3.099   2.836 -0.1204 -0.6105  0.3082
 1668TIP3    H126495   6.441   3.030   2.892 -0.0355 -0.1898  0.7759
 1668TIP3    H226496   6.479   3.130   2.785  0.0708 -0.1110  0.8875
 1669TIP3   OH226497   2.128   6.037   4.391  0.1807  0.1894 -0.1134
 1669TIP3    H126498   2.139   6.089   4.471  0.6782  0.0760 -0.1087
 1669TIP3    H226499   2.136   6.100   4.320 -0.3749  0.3092 -0.0720
 1670TIP3   OH226500   0.486   0.143   5.267 -0.2272 -0.6008 -0.0243
 1670TIP3    H126501   0.433   0.185   5.200  1.9588  1.1772 -0.6928
 1670TIP3    H226502   0.529   0.070   5.222 -0.8791 -1.0872  0.1346
 1671TIP3   OH226503   0.851   4.491  16.939 -0.0294 -0.0264 -0.0162
 1671TIP3    H126504   0.925   4.489  16.878 -0.4222 -0.6689 -0.4782
 1671TIP3    H226505   0.789   4.552  16.900  0.6401  1.2377  0.8442
 1672TIP3   OH226506   1.667   6.125  16.208  0.2789  0.0648 -0.3572
 1672TIP3    H126507   1.583   6.156  16.174  1.0435  3.4620  0.6562
 1672TIP3    H226508   1.648   6.094  16.296  0.3461  2.3956  0.4995
 1673TIP3   OH226509   2.781   5.080  13.705  0.0600  0.4378 -0.0788
 1673TIP3    H126510   2.686   5.067  13.716  0.2786 -0.1882  1.2006
 1673TIP3    H226511   2.788   5.162  13.656 -1.1372  1.4208  1.3290
 1674TIP3   OH226512   6.139   3.840  12.038 -0.2908  0.0192 -0.6146
 1674TIP3    H126513   6.128   3.800  11.952  0.5975 -1.0524 -0.2389
 1674TIP3    H226514   6.189   3.920  12.022 -0.4321  0.0030 -1.1261
 1675TIP3   OH226515   4.218   1.649  14.855 -0.1074  0.3216 -0.3241
 1675TIP3    H126516   4.205   1.719  14.920  1.9597 -0.2521  0.7398
 1675TIP3    H226517   4.256   1.694  14.780  0.9755  0.4013  0.2609
 1676TIP3   OH226518   3.321   1.592  14.624 -0.6373 -0.4969 -0.3742
 1676TIP3    H126519   3.246   1.608  14.681  0.6042 -1.7048  1.6441
 1676TIP3    H226520   3.346   1.501  14.640  0.5764 -0.4502 -1.8381
 1677TIP3   OH226521   1.224   4.535   2.824  0.6476 -0.1915  0.2746
 1677TIP3    H126522   1.318   4.519   2.831  0.5522 -1.2388 -0.8692
 1677TIP3    H226523   1.198   4.561   2.913  1.7641 -1.2079  0.9125
 1678TIP3   OH226524   5.019   6.541  12.692 -0.2321  0.2932 -0.7238
 1678TIP3    H126525   5.037   6.557  12.599  1.1852 -2.0622 -0.8768
 1678TIP3    H226526   5.039   6.624  12.734  0.0153  1.1239 -2.4044
 1679TIP3   OH226527   3.329   2.097  17.138  0.3091  0.0848 -0.1864
 1679TIP3    H126528   3.254   2.155  17.154  0.0920 -0.0188 -0.8108
 1679TIP3    H226529   3.343   2.102  17.044 -0.2148 -1.4896 -0.3590
 1680TIP3   OH226530   0.943   2.330   4.979  0.3308  0.1441 -0.2887
 1680TIP3    H126531   0.868   2.389   4.967  0.2916  0.0456 -0.5325
 1680TIP3    H226532   0.928   2.290   5.064 -1.0668 -1.5348 -1.2907
 1681TIP3   OH226533   4.931   0.786  17.005  0.4408 -0.1694  0.4112
 1681TIP3    H126534   4.968   0.874  17.013  0.8050  0.0445 -2.9158
 1681TIP3    H226535   5.007   0.728  16.999  0.1980 -0.5832  1.2109
 1682TIP3   OH226536   0.505   0.669  10.763  0.1646 -0.4602  0.7575
 1682TIP3    H126537   0.503   0.692  10.856  1.1286 -1.4213  1.0232
 1682TIP3    H226538   0.530   0.749  10.719  1.1831 -0.3786  1.4645
 1683TIP3   OH226539   4.101   0.513  15.544 -0.6291 -0.1341  0.5558
 1683TIP3    H126540   4.186   0.555  15.558 -0.9523  1.3314 -1.6898
 1683TIP3    H226541   4.045   0.548  15.614  0.4278 -0.6796  1.7031
 1684TIP3   OH226542   1.801   1.003  12.291  0.3152 -0.3204  0.1701
 1684TIP3    H126543   1.828   0.957  12.370 -0.8253  1.3935  1.5957
 1684TIP3    H226544   1.743   0.942  12.246 -0.6167 -0.5689  1.6723
 1685TIP3   OH226545   4.367   6.775  13.133 -0.0802  0.2987 -0.0353
 1685TIP3    H126546   4.454   6.805  13.110  0.3146  0.8881  2.1437
 1685TIP3    H226547   4.337   6.836  13.200 -1.2894 -1.1737  0.7956
 1686TIP3   OH226548   1.137   5.092  13.191 -0.3558 -0.3925  0.1958
 1686TIP3    H126549   1.070   5.053  13.135  0.3957 -0.2237 -0.8427
 1686TIP3    H226550   1.216   5.093  13.136  0.9318 -2.0852  1.9293
 1687TIP3   OH226551   5.740   4.373   2.230 -0.8523 -0.0730 -0.4169
 1687TIP3    H126552   5.690   4.323   2.295 -1.0026  0.7105  0.0771
 1687TIP3    H226553   5.784   4.306   2.178  0.5134 -0.6931  1.4858
 1688TIP3   OH226554   5.086   1.650   5.046  0.0971 -0.3211  0.2214
 1688TIP3    H126555   5.034   1.708   5.101  0.2642 -0.9546  1.0493
 1688TIP3    H226556   5.023   1.586   5.012 -0.2392  0.8174 -1.3520
 1689TIP3   OH226557   3.423   3.007   1.977  0.6283  0.4517 -0.2156
 1689TIP3    H126558   3.370   2.981   2.051  2.1635  1.0379  1.1198
 1689TIP3    H226559   3.456   2.925   1.940 -0.4244  0.1439 -0.4878
 1690TIP3   OH226560   2.588   1.488  11.852 -0.3431 -0.2445 -0.0106
 1690TIP3    H126561   2.592   1.451  11.764 -0.5161  0.0840 -0.1571
 1690TIP3    H226562   2.675   1.469  11.889  0.3505  1.1319 -0.8730
 1691TIP3   OH226563   1.855   6.166  13.761 -0.4102  0.2935 -0.3222
 1691TIP3    H126564   1.824   6.145  13.850 -0.2102 -0.5219 -0.4429
 1691TIP3    H226565   1.812   6.249  13.740 -4.2150 -1.7984 -1.3050
 1692TIP3   OH226566   3.628   0.487   5.919 -0.0838 -0.0607  0.7314
 1692TIP3    H126567   3.615   0.550   5.990 -1.2784 -2.4017  2.6634
 1692TIP3    H226568   3.603   0.402   5.957 -1.2613 -1.3029 -2.6393
 1693TIP3   OH226569   0.004   3.809   4.384  0.1645 -0.1709 -0.0010
 1693TIP3    H126570   0.063   3.764   4.322 -1.0618 -0.0702 -1.2733
 1693TIP3    H226571  -0.020   3.890   4.339 -3.3962 -1.6404 -0.8723
 1694TIP3   OH226572   1.671   3.470  11.918 -0.0604 -0.1429 -0.5571
 1694TIP3    H126573   1.697   3.562  11.911 -1.4367  0.2643 -0.5098
 1694TIP3    H226574   1.583   3.473  11.955 -0.9419 -1.3929 -2.4939
 1695TIP3   OH226575   4.445   3.813  13.445 -0.3033  0.2680 -0.7239
 1695TIP3    H126576   4.471   3.892  13.398  1.3962  0.4305  0.4496
 1695TIP3    H226577   4.352   3.802  13.424  0.0594  1.1550 -2.8976
 1696TIP3   OH226578   4.888   2.060   5.647 -0.0753 -0.2937 -0.0219
 1696TIP3    H126579   4.901   2.108   5.729 -1.9045  1.1719 -0.5327
 1696TIP3    H226580   4.956   1.993   5.646  1.3800  1.1261  1.6166
 1697TIP3   OH226581   3.901   3.377  13.292 -0.3942  0.5235  0.4460
 1697TIP3    H126582   3.891   3.416  13.379  0.4859  0.3452  0.6303
 1697TIP3    H226583   3.847   3.298  13.296  1.2993 -0.6021  1.5398
 1698TIP3   OH226584   0.645   1.015   1.859  0.0567  0.5795  0.0145
 1698TIP3    H126585   0.614   1.018   1.950  1.7165 -0.8618  0.6546
 1698TIP3    H226586   0.571   0.978   1.811 -0.7452  1.1081  0.8062
 1699TIP3   OH226587   5.611   1.421  14.986 -0.6700 -0.3032  0.1628
 1699TIP3    H126588   5.614   1.504  15.034 -2.2542  0.8367 -1.6730
 1699TIP3    H226589   5.573   1.359  15.049  0.6750  0.2784  1.5995
 1700TIP3   OH226590   3.752   3.813  12.139 -0.1351  0.5308 -0.4055
 1700TIP3    H126591   3.668   3.838  12.100  0.8664  2.5189 -1.3966
 1700TIP3    H226592   3.815   3.874  12.100  1.3966  0.6414  2.1333
 1701TIP3   OH226593   0.234   4.336  12.072 -0.5594 -0.1643  0.4433
 1701TIP3    H126594   0.149   4.297  12.090 -0.2108 -2.3245 -2.2255
 1701TIP3    H226595   0.289   4.308  12.146 -1.9391  0.7177  1.8441
 1702TIP3   OH226596   3.004   1.971   1.820 -0.0725  0.0901  0.5280
 1702TIP3    H126597   2.951   2.044   1.787  1.4033  1.6543  1.5429
 1702TIP3    H226598   2.950   1.932   1.888 -1.0778 -0.0688 -0.3492
 1703TIP3   OH226599   1.698   3.699  13.649 -0.0016 -0.6105  0.0198
 1703TIP3    H126600   1.611   3.717  13.684 -0.5335 -0.3374 -1.4250
 1703TIP3    H226601   1.755   3.765  13.689 -0.3734 -1.0316  1.2629
 1704TIP3   OH226602   6.815   5.750   3.160 -0.9623 -0.3338  0.2490
 1704TIP3    H126603   6.797   5.840   3.134 -0.4575 -0.4110 -0.3888
 1704TIP3    H226604   6.852   5.756   3.248 -1.1005  0.0633  0.2781
 1705TIP3   OH226605   2.182   5.351  16.311  0.2290  0.6271  0.2107
 1705TIP3    H126606   2.175   5.393  16.225  2.0909  2.0485  0.7057
 1705TIP3    H226607   2.253   5.287  16.301  0.0213  0.3509  0.5046
 1706TIP3   OH226608   4.972   1.765   0.202 -0.3526 -0.3181 -0.1813
 1706TIP3    H126609   4.931   1.682   0.226 -2.1006  0.2805 -1.0580
 1706TIP3    H226610   4.976   1.763   0.107  1.2057 -0.1421 -0.1337
 1707TIP3   OH226611   1.870   0.405   4.852  0.0337 -0.0705 -0.0479
 1707TIP3    H126612   1.840   0.427   4.941 -0.0786 -1.2879  0.2209
 1707TIP3    H226613   1.963   0.385   4.863 -0.3497 -1.8289  0.0818
 1708TIP3   OH226614   5.308   6.635  16.430  0.1432 -0.0191  0.2764
 1708TIP3    H126615   5.321   6.681  16.347  0.5734  0.0839  0.4032
 1708TIP3    H226616   5.213   6.635  16.443  0.2829  3.2542  1.6348
 1709TIP3   OH226617   0.143   4.952  12.049  0.2465 -0.2401  0.2188
 1709TIP3    H126618   0.074   4.886  12.044  0.8254 -0.7768 -0.8896
 1709TIP3    H226619   0.212   4.919  11.992  0.9670  0.8333  0.4507
 1710TIP3   OH226620   0.630   0.696   5.672 -0.2380 -0.0377  0.0129
 1710TIP3    H126621   0.536   0.681   5.665 -0.2456 -1.0851  2.0557
 1710TIP3    H226622   0.639   0.761   5.742  0.5607 -0.0806 -0.0378
 1711TIP3   OH226623   0.799   2.675   1.417 -0.2398 -0.0695 -1.1544
 1711TIP3    H126624   0.760   2.686   1.504  0.5872  1.4152 -0.9460
 1711TIP3    H226625   0.884   2.635   1.435  0.2859  1.0034 -1.1834
 1712TIP3   OH226626   2.027   3.396  13.943  0.3208 -0.2828 -0.0681
 1712TIP3    H126627   2.001   3.338  13.871 -1.4065  0.6030 -0.1878
 1712TIP3    H226628   2.007   3.484  13.910  1.7207  0.2934  0.6002
 1713TIP3   OH226629   1.080   5.450   4.593 -0.3515  0.0895 -0.2488
 1713TIP3    H126630   1.158   5.407   4.557 -0.6254 -0.5163 -0.1210
 1713TIP3    H226631   1.017   5.449   4.521 -0.0766  1.0080 -0.5035
 1714TIP3   OH226632   5.144   0.491  16.229  0.0723 -0.8286  0.1000
 1714TIP3    H126633   5.157   0.584  16.211 -2.4741 -0.6223 -0.8665
 1714TIP3    H226634   5.209   0.447  16.175 -0.4802  0.2857 -1.5247
 1715TIP3   OH226635   6.750   0.343   3.224 -0.9515 -0.2857 -0.0749
 1715TIP3    H126636   6.694   0.386   3.159 -2.0824 -2.1768 -0.4098
 1715TIP3    H226637   6.832   0.326   3.177 -0.9303  0.4232 -0.2972
 1716TIP3   OH226638   5.926   4.376   0.293 -0.3851 -0.1039  0.5423
 1716TIP3    H126639   5.906   4.293   0.337  1.6975  0.5965  2.9510
 1716TIP3    H226640   5.907   4.443   0.359  0.6114  1.1537 -0.4106
 1717TIP3   OH226641   4.813   2.030  17.198  0.2353 -0.7189 -0.1420
 1717TIP3    H126642   4.762   2.000  17.274  0.9460 -0.9495  0.2463
 1717TIP3    H226643   4.771   2.113  17.173 -0.8244 -1.2965 -0.3185
 1718TIP3   OH226644   0.802   2.863  16.748 -0.1833  0.3802  0.2386
 1718TIP3    H126645   0.821   2.780  16.703  0.9011  1.1220 -0.7013
 1718TIP3    H226646   0.818   2.845  16.841 -0.3138 -0.5659  0.0776
 1719TIP3   OH226647   4.087   1.018  17.076 -0.7460 -0.0595 -0.3292
 1719TIP3    H126648   4.056   0.976  16.996 -0.9938 -0.4771 -0.0183
 1719TIP3    H226649   4.181   0.998  17.079 -0.4399  1.1450 -1.2351
 1720TIP3   OH226650   0.841   6.777  15.773  0.2247  0.3085 -0.8992
 1720TIP3    H126651   0.818   6.868  15.755  0.4031  0.3534 -0.9029
 1720TIP3    H226652   0.900   6.782  15.848  0.3097  0.2027 -0.9589
 1721TIP3   OH226653   4.455   2.088  15.575 -0.1466  0.4310 -0.2150
 1721TIP3    H126654   4.385   2.061  15.515  0.7355  0.1832 -1.1346
 1721TIP3    H226655   4.429   2.051  15.659 -1.8166  1.4712 -0.2383
 1722TIP3   OH226656   1.132   3.444  11.481  0.0918 -0.2658 -0.1512
 1722TIP3    H126657   1.068   3.514  11.491  0.3642  0.1241 -1.0857
 1722TIP3    H226658   1.183   3.468  11.404  0.5165 -1.2341 -0.1894
 1723TIP3   OH226659   4.717   3.738  12.369  0.1797 -0.0545 -0.0009
 1723TIP3    H126660   4.687   3.676  12.435 -2.3019  1.9152  0.7900
 1723TIP3    H226661   4.796   3.776  12.407 -0.4466  0.0597  1.2282
 1724TIP3   OH226662   0.262   3.152  10.706  0.0303 -0.1041 -0.0197
 1724TIP3    H126663   0.354   3.172  10.723  0.1525  0.1333 -0.9485
 1724TIP3    H226664   0.259   3.056  10.701  0.6627 -0.0186 -2.3875
 1725TIP3   OH226665   6.809   1.176   0.463 -0.1099 -0.5174  0.3097
 1725TIP3    H126666   6.888   1.153   0.414  0.1872 -0.1019  0.5918
 1725TIP3    H226667   6.837   1.246   0.522 -1.1034  0.8442 -0.8004
 1726TIP3   OH226668   3.755   3.209  14.336  0.6620 -0.3886 -0.3550
 1726TIP3    H126669   3.765   3.114  14.342  2.4606 -0.1413  0.9341
 1726TIP3    H226670   3.729   3.237  14.423 -0.6611  0.2363 -0.9284
 1727TIP3   OH226671   6.620   2.136  16.704  0.6175  0.6382  0.1440
 1727TIP3    H126672   6.697   2.128  16.761  0.0589 -1.1226  0.6991
 1727TIP3    H226673   6.646   2.199  16.637  2.1745  0.8635  0.9258
 1728TIP3   OH226674   0.955   3.086  11.958 -0.9436  0.1579  0.2037
 1728TIP3    H126675   0.920   3.054  11.875 -1.7026  1.2024  0.1107
 1728TIP3    H226676   0.880   3.124  12.003 -0.1067  1.6505  0.3709
 1729TIP3   OH226677   3.189   5.340   2.844 -0.0291 -0.4817  0.3777
 1729TIP3    H126678   3.169   5.292   2.763 -0.0512 -1.2153  0.8144
 1729TIP3    H226679   3.121   5.312   2.906  1.8873 -2.4052  1.6498
 1730TIP3   OH226680   5.705   5.962   2.815 -0.0960 -0.3482 -0.8299
 1730TIP3    H126681   5.710   5.888   2.754  0.0730  0.0434 -1.2874
 1730TIP3    H226682   5.728   5.924   2.900  3.0230 -0.1943 -1.5519
 1731TIP3   OH226683   4.347   1.806   4.306  0.3306  0.1734  0.1729
 1731TIP3    H126684   4.328   1.719   4.272 -2.1234  0.5685  0.4629
 1731TIP3    H226685   4.364   1.859   4.228  1.3399 -0.4161 -0.0283
 1732TIP3   OH226686   2.569   1.963   4.983 -0.2517 -1.0166  0.0218
 1732TIP3    H126687   2.657   1.951   5.018  0.6427 -0.9113 -2.0826
 1732TIP3    H226688   2.523   2.012   5.051  1.0971 -1.6793  1.4515
 1733TIP3   OH226689   4.495   0.790  13.775  0.2071 -0.2387 -0.4299
 1733TIP3    H126690   4.585   0.823  13.786  0.3295 -0.6210 -0.2534
 1733TIP3    H226691   4.443   0.868  13.756  0.6776 -0.0882 -1.1402
 1734TIP3   OH226692   3.499   0.565  17.038 -0.7814 -0.0507  0.5506
 1734TIP3    H126693   3.514   0.471  17.050  1.1109  0.2230  0.4001
 1734TIP3    H226694   3.560   0.591  16.970 -1.2445  1.3242  0.6401
 1735TIP3   OH226695   5.369   1.955   3.111  0.5512  0.1213  0.3521
 1735TIP3    H126696   5.376   1.913   3.026 -1.3543  2.1977 -0.8888
 1735TIP3    H226697   5.379   1.884   3.174 -1.3447 -1.9886 -1.6425
 1736TIP3   OH226698   0.835   0.686  16.864  0.5947  0.4994 -0.0559
 1736TIP3    H126699   0.919   0.705  16.823  0.3813 -0.9952 -1.2495
 1736TIP3    H226700   0.784   0.642  16.795  1.1060 -4.5108  2.5018
 1737TIP3   OH226701   4.695   6.404   3.030 -0.5595 -0.7808 -0.2807
 1737TIP3    H126702   4.656   6.491   3.031  0.1170 -0.4863  0.6201
 1737TIP3    H226703   4.647   6.355   3.096  1.5682  0.0168  1.9031
 1738TIP3   OH226704   2.283   0.871   2.733 -0.1961  0.2823 -0.3271
 1738TIP3    H126705   2.326   0.956   2.740 -0.0966  0.1535  0.6326
 1738TIP3    H226706   2.294   0.831   2.819 -1.0725 -0.3095 -0.4839
 1739TIP3   OH226707   1.584   0.688  16.364 -0.0569 -0.1505  0.1633
 1739TIP3    H126708   1.630   0.604  16.370 -0.2520 -0.2598  0.1176
 1739TIP3    H226709   1.503   0.674  16.413  0.0699  0.1194  0.4577
 1740TIP3   OH226710   6.509   2.379  16.498 -0.4736  0.4116  0.1171
 1740TIP3    H126711   6.497   2.288  16.469 -0.7182  0.0680  1.2605
 1740TIP3    H226712   6.463   2.383  16.582 -0.2758  1.5428  0.1731
 1741TIP3   OH226713   4.794   1.815  12.585 -0.3782 -0.5396  0.7389
 1741TIP3    H126714   4.755   1.871  12.652 -1.5350 -0.1278 -0.2634
 1741TIP3    H226715   4.725   1.802  12.521  0.6122 -1.2023 -0.2223
 1742TIP3   OH226716   0.871   4.116   2.141  0.0905 -0.7770  0.6022
 1742TIP3    H126717   0.832   4.131   2.227 -2.3313 -0.4442 -0.5357
 1742TIP3    H226718   0.809   4.154   2.079  2.3710  0.0562 -1.2493
 1743TIP3   OH226719   3.363   1.148  15.667 -0.3555 -0.3620  0.5048
 1743TIP3    H126720   3.407   1.111  15.590 -0.3637 -0.9061  0.7591
 1743TIP3    H226721   3.430   1.201  15.710 -0.1367 -0.6618  0.5331
 1744TIP3   OH226722   1.566   6.671  10.801  0.6659 -0.2505 -1.0547
 1744TIP3    H126723   1.588   6.688  10.709  0.7592  0.5611 -0.8812
 1744TIP3    H226724   1.642   6.625  10.836  1.0631  0.3568 -1.1119
 1745TIP3   OH226725   4.050   4.104  17.018 -0.1171 -0.0304 -0.0345
 1745TIP3    H126726   4.140   4.084  17.043 -0.0799  0.1992  0.0140
 1745TIP3    H226727   3.999   4.031  17.053 -0.1340  0.5463  1.1686
 1746TIP3   OH226728   6.368   4.676  10.511 -0.4404 -0.0893  0.3306
 1746TIP3    H126729   6.428   4.645  10.442  0.2167  0.7164  0.5388
 1746TIP3    H226730   6.355   4.769  10.491 -0.7486 -0.0047  0.9360
 1747TIP3   OH226731   6.633   0.309  13.507 -0.4592 -0.3310 -0.0013
 1747TIP3    H126732   6.580   0.327  13.585 -0.8599 -0.7378 -0.1811
 1747TIP3    H226733   6.583   0.346  13.435  0.1523  0.4955 -0.0148
 1748TIP3   OH226734   3.143   5.003  15.523  0.2289 -0.0588 -0.4257
 1748TIP3    H126735   3.048   5.014  15.511  0.0212  0.5743  1.5927
 1748TIP3    H226736   3.179   5.003  15.434 -1.4528  1.6666 -1.1249
 1749TIP3   OH226737   3.073   1.507  12.995 -0.0458 -0.1139 -0.4906
 1749TIP3    H126738   3.100   1.598  12.978  0.6799  0.1728  1.9906
 1749TIP3    H226739   3.143   1.471  13.049 -0.9922 -1.7420 -0.3278
 1750TIP3   OH226740   2.851   5.682  11.254 -0.2041  0.0834 -0.0381
 1750TIP3    H126741   2.940   5.695  11.288 -0.4482 -1.2889  1.1801
 1750TIP3    H226742   2.842   5.587  11.248 -1.5840  0.2193 -0.1990
 1751TIP3   OH226743   6.035   1.669   3.598 -0.7035  0.1826  0.1054
 1751TIP3    H126744   5.976   1.644   3.526  0.2542 -0.5269 -0.4315
 1751TIP3    H226745   6.050   1.763   3.585 -0.8036  0.1248 -0.4209
 1752TIP3   OH226746   2.836   1.014   3.925 -0.4671  0.1480  0.3066
 1752TIP3    H126747   2.798   0.926   3.933  0.1777 -0.1539  0.0443
 1752TIP3    H226748   2.769   1.064   3.879 -0.2953 -0.5557 -0.7342
 1753TIP3   OH226749   1.617   0.836   3.894  0.3961 -0.0769  0.0241
 1753TIP3    H126750   1.647   0.751   3.862 -1.3762 -1.0764  0.9844
 1753TIP3    H226751   1.605   0.888   3.814 -0.4461 -1.3741 -0.7173
 1754TIP3   OH226752   0.835   6.445  14.931 -0.2360 -0.1163  0.6419
 1754TIP3    H126753   0.917   6.397  14.927 -0.6837 -0.8317 -0.2416
 1754TIP3    H226754   0.842   6.500  15.009  1.2122  0.0792  0.3785
 1755TIP3   OH226755   0.610   2.307  17.205  0.8536 -0.0574  0.0511
 1755TIP3    H126756   0.560   2.345  17.133  2.2939  0.7664 -0.5299
 1755TIP3    H226757   0.549   2.306  17.279 -0.0964  0.6861 -0.7123
 1756TIP3   OH226758   5.381   4.761   1.287  0.1611 -0.1717  0.0397
 1756TIP3    H126759   5.349   4.762   1.197  0.2644  0.8835  0.0026
 1756TIP3    H226760   5.420   4.848   1.299  1.9778 -1.0159  0.4534
 1757TIP3   OH226761   4.297   1.454  16.372 -0.1683 -0.2869  0.1447
 1757TIP3    H126762   4.204   1.474  16.358 -0.4395 -1.7463 -0.2500
 1757TIP3    H226763   4.319   1.498  16.454 -0.4625  2.4110 -1.1671
 1758TIP3   OH226764   0.278   4.872  12.959  0.0060 -0.0462  0.1144
 1758TIP3    H126765   0.222   4.801  12.990 -1.6649  1.0805 -0.2995
 1758TIP3    H226766   0.270   4.869  12.864 -0.6578  1.1645  0.1273
 1759TIP3   OH226767   6.153   0.608   1.790 -0.2006 -0.7193 -0.1666
 1759TIP3    H126768   6.185   0.696   1.770  0.3405 -0.5106  1.5477
 1759TIP3    H226769   6.200   0.584   1.870 -0.1498 -2.6688 -0.7706
 1760TIP3   OH226770   5.441   1.772  16.310  0.0692 -0.0327 -0.1765
 1760TIP3    H126771   5.495   1.693  16.318  2.7441  1.7236 -0.2025
 1760TIP3    H226772   5.485   1.824  16.242 -1.6442  1.4694 -0.1585
 1761TIP3   OH226773   6.675   2.939   4.444 -0.4543 -0.1779  0.4000
 1761TIP3    H126774   6.610   2.993   4.400 -0.3540 -1.7695 -1.7949
 1761TIP3    H226775   6.641   2.850   4.437  0.4439 -0.6532  1.9873
 1762TIP3   OH226776   6.713   6.276  11.073  0.5009  0.6408 -0.9285
 1762TIP3    H126777   6.788   6.312  11.025  1.0171  1.8073  0.7015
 1762TIP3    H226778   6.636   6.313  11.029  1.0037  2.9826  0.1236
 1763TIP3   OH226779   5.377   4.928   1.544  0.0835 -0.2518 -0.4362
 1763TIP3    H126780   5.399   4.838   1.519  0.4756 -0.6062  1.1277
 1763TIP3    H226781   5.284   4.937   1.520  0.1960 -0.8829 -1.1331
 1764TIP3   OH226782   2.153   5.498   5.358  0.3652 -0.3477  0.2473
 1764TIP3    H126783   2.176   5.457   5.275  0.1975  0.7614 -0.3543
 1764TIP3    H226784   2.102   5.576   5.334 -1.1237 -0.9283  1.4434
 1765TIP3   OH226785   2.040   6.601   1.293  0.1144  0.6609 -0.1445
 1765TIP3    H126786   2.045   6.623   1.386  0.0229  0.0882 -0.0055
 1765TIP3    H226787   2.128   6.618   1.260  0.4063 -0.0420  0.2492
 1766TIP3   OH226788   3.225   1.233   4.056 -0.2330 -0.4123  0.0907
 1766TIP3    H126789   3.316   1.263   4.063 -0.3137 -0.1972  0.2208
 1766TIP3    H226790   3.173   1.309   4.081 -0.4464 -0.5690  0.1219
 1767TIP3   OH226791   1.300   1.116  14.205 -0.0492 -0.1219  0.0929
 1767TIP3    H126792   1.369   1.113  14.140 -0.7904  0.4230 -0.7333
 1767TIP3    H226793   1.330   1.180  14.270 -0.4423  1.2797 -1.0610
 1768TIP3   OH226794   2.133   6.566  12.665  0.3898 -0.0725 -0.1184
 1768TIP3    H126795   2.142   6.539  12.756  2.2827  3.7921  0.9645
 1768TIP3    H226796   2.043   6.598  12.658  0.8977  1.7472  1.1048
 1769TIP3   OH226797   1.677   3.711  13.264  0.2301  0.3297  0.5454
 1769TIP3    H126798   1.768   3.693  13.288  0.3769  0.0585 -0.1990
 1769TIP3    H226799   1.682   3.750  13.177 -0.3230  0.9411  0.7854
 1770TIP3   OH226800   0.469   4.016  17.217 -0.0493 -0.3269 -0.1743
 1770TIP3    H126801   0.458   3.953  17.146  3.6193  0.1143 -1.1972
 1770TIP3    H226802   0.520   3.969  17.283 -1.6831 -0.0500  1.3312
 1771TIP3   OH226803   1.720   5.232   5.702 -0.1292 -0.6333  0.4292
 1771TIP3    H126804   1.760   5.220   5.788  1.6995  0.6704 -0.2066
 1771TIP3    H226805   1.730   5.147   5.658 -0.7958 -1.2078  1.3802
 1772TIP3   OH226806   1.909   4.996   4.845 -0.0786  0.0093  0.7158
 1772TIP3    H126807   1.973   4.939   4.803  0.6323 -0.0415  1.8441
 1772TIP3    H226808   1.841   4.936   4.877 -0.8319  0.0840 -0.6834
 1773TIP3   OH226809   3.254   2.987  15.070  0.0305 -0.1561 -0.3355
 1773TIP3    H126810   3.214   2.954  15.151  0.0597 -0.5133 -0.4640
 1773TIP3    H226811   3.348   2.978  15.085  0.0193 -0.8114 -0.6532
 1774TIP3   OH226812   4.288   5.019  16.469  0.1066  0.1706  0.3996
 1774TIP3    H126813   4.234   5.052  16.397 -0.8720  0.6444  1.3488
 1774TIP3    H226814   4.264   5.073  16.544  0.9384 -0.4878  1.1524
 1775TIP3   OH226815   0.585   3.672  17.119  0.3313  0.5674 -0.0445
 1775TIP3    H126816   0.615   3.695  17.031  0.8718 -0.0354 -0.0161
 1775TIP3    H226817   0.491   3.691  17.117  0.6460  2.1589 -0.2236
 1776TIP3   OH226818   4.294   5.471  13.531  0.5698 -0.1921  0.3819
 1776TIP3    H126819   4.226   5.416  13.568  0.6748  0.0044  0.8712
 1776TIP3    H226820   4.295   5.449  13.438 -0.6808  0.3607  0.2320
 1777TIP3   OH226821   5.799   4.824   3.559  1.1109 -0.5256 -0.0403
 1777TIP3    H126822   5.825   4.869   3.479  0.1780  0.2903  0.1143
 1777TIP3    H226823   5.780   4.895   3.621 -1.6369 -1.0947 -0.1878
 1778TIP3   OH226824   2.259   3.486   0.698 -0.7992 -0.7337  0.1074
 1778TIP3    H126825   2.196   3.539   0.651 -1.0794 -0.2420  1.0132
 1778TIP3    H226826   2.343   3.531   0.687 -1.2225  0.5267  1.7764
 1779TIP3   OH226827   4.165   4.351   5.506 -0.0496 -0.0630 -0.1421
 1779TIP3    H126828   4.080   4.390   5.527 -0.6341 -1.8362  0.9494
 1779TIP3    H226829   4.216   4.358   5.587  0.2639 -0.4710 -0.3024
 1780TIP3   OH226830   0.105   2.637   2.394  0.5474 -0.1133  0.3585
 1780TIP3    H126831   0.074   2.725   2.413  2.5094  0.1541  2.4178
 1780TIP3    H226832   0.200   2.642   2.401  0.7240 -2.2799 -0.0294
 1781TIP3   OH226833   2.602   3.099  14.095  0.1270 -0.1789  0.1879
 1781TIP3    H126834   2.582   3.025  14.152 -1.2176 -0.9377 -1.2019
 1781TIP3    H226835   2.678   3.070  14.044 -0.8660 -0.9608 -0.9011
 1782TIP3   OH226836   4.820   4.583  14.178  0.0492  0.0155  0.4362
 1782TIP3    H126837   4.912   4.603  14.155  0.4209 -1.2899  0.7924
 1782TIP3    H226838   4.791   4.523  14.109 -0.2358 -0.3637  0.8908
 1783TIP3   OH226839   4.194   0.041  14.779  0.4085 -0.2888  0.1859
 1783TIP3    H126840   4.264   0.096  14.744  1.3100 -1.4613  0.0997
 1783TIP3    H226841   4.114   0.091  14.765  1.0962  0.5361 -0.8375
 1784TIP3   OH226842   2.454   4.330  14.761 -0.7071  0.2800  0.1881
 1784TIP3    H126843   2.524   4.321  14.825  0.4384  2.2246 -0.7374
 1784TIP3    H226844   2.380   4.364  14.811 -0.5797 -0.5066  0.9212
 1785TIP3   OH226845   1.291   5.320   2.272 -0.1202 -0.1087 -0.6314
 1785TIP3    H126846   1.272   5.335   2.180 -2.6660 -0.7988 -0.2782
 1785TIP3    H226847   1.322   5.229   2.276  0.8042  0.1983 -0.9170
 1786TIP3   OH226848   6.267   1.565  15.166  0.7000  0.3110  0.0336
 1786TIP3    H126849   6.229   1.609  15.243  0.0810 -0.6298  0.2756
 1786TIP3    H226850   6.361   1.581  15.174  0.5713  0.8405  0.5889
 1787TIP3   OH226851   1.582   1.277   5.922 -0.1346  0.7435 -0.6754
 1787TIP3    H126852   1.537   1.223   5.856 -0.7176  1.1133 -0.5827
 1787TIP3    H226853   1.646   1.327   5.872 -1.5360  2.0791 -1.1874
 1788TIP3   OH226854   1.485   6.153   1.445  0.7234  0.5172  0.2211
 1788TIP3    H126855   1.568   6.123   1.407 -0.1995  0.8926 -2.1714
 1788TIP3    H226856   1.434   6.182   1.370 -1.6337  0.1726  1.6556
 1789TIP3   OH226857   0.441   3.879  14.798  0.3746  0.0984  0.1325
 1789TIP3    H126858   0.397   3.926  14.869 -0.3482 -0.2650 -0.0800
 1789TIP3    H226859   0.493   3.812  14.842  0.1630  0.0669  0.3311
 1790TIP3   OH226860   3.014   5.170   5.677  0.2568  0.0055  0.2528
 1790TIP3    H126861   2.988   5.184   5.586  1.6618 -0.4386 -0.2257
 1790TIP3    H226862   3.019   5.258   5.715  0.1058  0.2191 -0.2184
 1791TIP3   OH226863   1.551   1.176   6.175  1.2097  0.0978 -0.3750
 1791TIP3    H126864   1.585   1.088   6.157 -0.4101 -0.8144  0.8392
 1791TIP3    H226865   1.567   1.225   6.095  0.9632 -1.6832 -1.5438
 1792TIP3   OH226866   2.168   6.386  17.268 -0.2496  0.1969 -0.2166
 1792TIP3    H126867   2.130   6.404  17.182 -1.4596  0.6781  0.4068
 1792TIP3    H226868   2.223   6.308  17.254 -0.0516  0.5578 -1.5220
 1793TIP3   OH226869   6.585   3.972  10.789 -0.2187 -0.0587  0.2418
 1793TIP3    H126870   6.534   3.895  10.814  0.8078 -0.8868 -0.2022
 1793TIP3    H226871   6.670   3.960  10.833  0.4608  0.0912 -1.0094
 1794TIP3   OH226872   0.834   0.309   5.397  0.3994  0.5681  0.0266
 1794TIP3    H126873   0.759   0.335   5.450  0.7791  1.3734  0.1813
 1794TIP3    H226874   0.821   0.355   5.313  0.2086 -0.0753 -0.2967
 1795TIP3   OH226875   5.723   4.209  13.122  0.5704  0.1013  0.5918
 1795TIP3    H126876   5.777   4.248  13.190 -0.4630 -1.7345  2.5388
 1795TIP3    H226877   5.737   4.114  13.130  1.3379 -0.1272 -2.5615
 1796TIP3   OH226878   3.497   3.070  13.836  0.4275  0.4864  0.1096
 1796TIP3    H126879   3.513   3.102  13.747 -0.9290  0.3144 -0.2102
 1796TIP3    H226880   3.488   3.149  13.889 -0.3921  0.6006 -0.2047
 1797TIP3   OH226881   2.240   5.037  15.398  0.0253  1.1499  0.1929
 1797TIP3    H126882   2.188   5.075  15.469  0.1730 -0.3419  1.1240
 1797TIP3    H226883   2.323   5.085  15.400  1.1771 -0.8255  2.9892
 1798TIP3   OH226884   2.081   3.341   2.985 -0.5003 -0.0708  0.6262
 1798TIP3    H126885   2.092   3.294   2.902  0.4295  0.5446  0.3896
 1798TIP3    H226886   1.987   3.354   2.994 -0.5306  0.8390 -0.8828
 1799TIP3   OH226887   3.122   4.348   5.085 -0.7419 -0.2321  0.0606
 1799TIP3    H126888   3.105   4.414   5.152  0.5063  0.5079 -0.3383
 1799TIP3    H226889   3.081   4.269   5.118  0.1753  0.0320  1.8747
 1800TIP3   OH226890   4.409   6.480   0.071  0.4765  0.3443 -0.0677
 1800TIP3    H126891   4.495   6.462   0.110 -0.3190 -0.1247  1.5141
 1800TIP3    H226892   4.387   6.400   0.023  0.8345  0.3904 -0.3079
 1801TIP3   OH226893   0.520   5.536  15.054  0.0696  0.1548 -0.3279
 1801TIP3    H126894   0.490   5.450  15.026 -0.2483 -0.4905  1.8921
 1801TIP3    H226895   0.443   5.592  15.047 -0.4754 -0.4188  0.9222
 1802TIP3   OH226896   5.449   0.199  15.670  0.7358 -0.0023  0.0953
 1802TIP3    H126897   5.364   0.222  15.632  0.2484 -0.0254  1.1437
 1802TIP3    H226898   5.491   0.144  15.605 -0.3660 -0.5960 -0.1255
 1803TIP3   OH226899   1.107   3.625  14.187 -0.2098  0.3142  0.5556
 1803TIP3    H126900   1.176   3.680  14.225 -0.7998  1.2227  0.3307
 1803TIP3    H226901   1.042   3.618  14.257  0.0632 -0.4548  0.7326
 1804TIP3   OH226902   1.103   0.420  13.366  0.0248 -0.2152 -0.9022
 1804TIP3    H126903   1.098   0.515  13.375 -1.4342 -0.0997 -2.5120
 1804TIP3    H226904   1.196   0.402  13.352  0.4629  0.8411  0.5402
 1805TIP3   OH226905   1.486   3.402  15.157  0.0006  0.4066  0.2619
 1805TIP3    H126906   1.518   3.318  15.189  1.1028  0.9470  0.6032
 1805TIP3    H226907   1.517   3.407  15.067 -0.3472  0.3040  0.1354
 1806TIP3   OH226908   3.840   2.228  13.708  0.4334  0.7741  0.2215
 1806TIP3    H126909   3.777   2.292  13.744 -1.2789 -0.4147 -0.5967
 1806TIP3    H226910   3.787   2.172  13.652  2.3392  0.0045 -0.8357
 1807TIP3   OH226911   5.533   0.574   3.389 -0.1615 -0.7294 -0.7636
 1807TIP3    H126912   5.505   0.606   3.304  2.0696  3.1065 -0.1664
 1807TIP3    H226913   5.612   0.523   3.370 -1.1335 -2.1042 -1.2183
 1808TIP3   OH226914   6.159   5.941  12.069  0.0830  0.1354  0.4814
 1808TIP3    H126915   6.244   5.962  12.030  0.1270 -0.3272  0.3324
 1808TIP3    H226916   6.170   5.854  12.106  0.0118  0.5329  1.4599
 1809TIP3   OH226917   5.834   4.204   1.548  0.0814 -0.0042  0.1003
 1809TIP3    H126918   5.843   4.299   1.537 -1.4695  0.4769  2.5276
 1809TIP3    H226919   5.916   4.168   1.515  1.7692  2.4173  1.5316
 1810TIP3   OH226920   6.606   6.757   1.015  0.7934  0.2863  0.1942
 1810TIP3    H126921   6.529   6.700   1.009  1.1678 -0.2028  0.0045
 1810TIP3    H226922   6.575   6.843   0.988  0.2142  0.1766  0.5077
 1811TIP3   OH226923   6.265   5.224  15.381 -0.2748 -0.0897  0.2800
 1811TIP3    H126924   6.352   5.204  15.346 -0.5865  1.6694 -1.5472
 1811TIP3    H226925   6.241   5.146  15.431  1.5283 -1.3699 -0.8026
 1812TIP3   OH226926   2.545   4.536   5.824  0.2452 -0.3702  0.5556
 1812TIP3    H126927   2.626   4.487   5.838  0.9228  0.2985 -0.8791
 1812TIP3    H226928   2.486   4.506   5.892  1.9659 -0.3102  2.1082
 1813TIP3   OH226929   2.650   0.887   5.602  0.9406  0.0715  0.3850
 1813TIP3    H126930   2.728   0.907   5.550  1.0728  1.2890  1.0101
 1813TIP3    H226931   2.610   0.973   5.618 -0.9715 -0.6097 -0.6043
 1814TIP3   OH226932   3.117   0.898   2.837  0.1393 -0.1179  0.8526
 1814TIP3    H126933   3.098   0.824   2.780  2.7002 -0.8012  0.8402
 1814TIP3    H226934   3.163   0.860   2.912  0.8378  1.3559  1.1879
 1815TIP3   OH226935   6.525   3.097   4.791 -0.4669 -0.1901 -0.0878
 1815TIP3    H126936   6.455   3.140   4.742 -0.9981 -0.4532  0.4379
 1815TIP3    H226937   6.528   3.143   4.875 -0.2983 -0.4572  0.0535
 1816TIP3   OH226938   5.658   3.329   1.740 -0.1178  0.0080 -0.1058
 1816TIP3    H126939   5.647   3.327   1.645  0.9250 -1.6795 -0.2180
 1816TIP3    H226940   5.582   3.283   1.774 -0.2875  0.2590 -0.1463
 1817TIP3   OH226941   3.774   0.760  12.670 -0.5574 -0.1875  0.0852
 1817TIP3    H126942   3.757   0.841  12.719  0.6874  0.1446 -0.0181
 1817TIP3    H226943   3.862   0.733  12.696 -0.7355 -1.2008 -0.3172
 1818TIP3   OH226944   6.499   4.794   2.422  0.3915 -0.0795 -0.4456
 1818TIP3    H126945   6.412   4.833   2.412 -0.3849 -1.0174  2.2339
 1818TIP3    H226946   6.498   4.718   2.365  0.5862  1.6413 -2.8172
 1819TIP3   OH226947   5.563   3.853   4.756  0.0738  0.3998 -0.6536
 1819TIP3    H126948   5.467   3.848   4.761  0.1071  0.8930  0.4917
 1819TIP3    H226949   5.580   3.936   4.710 -0.0151  1.3713  1.0393
 1820TIP3   OH226950   3.894   1.443   0.253 -0.3493  0.5457 -0.0913
 1820TIP3    H126951   3.859   1.376   0.311  0.6447  0.8700  0.8929
 1820TIP3    H226952   3.835   1.518   0.264 -0.0930  0.6479  0.5905
 1821TIP3   OH226953   0.674   3.904   1.024  0.8812 -0.0665  0.1805
 1821TIP3    H126954   0.613   3.974   1.050  2.0689  0.8821  0.4986
 1821TIP3    H226955   0.655   3.832   1.085  0.0173  0.1848  0.2160
 1822TIP3   OH226956   5.370   3.065   1.107 -0.7180 -0.0041 -0.0066
 1822TIP3    H126957   5.376   3.156   1.135 -0.8493 -0.2006  0.6642
 1822TIP3    H226958   5.280   3.039   1.128 -0.9644 -0.0181 -1.0330
 1823TIP3   OH226959   0.147   4.284  14.626  0.2525 -0.6794  0.3312
 1823TIP3    H126960   0.094   4.346  14.675  0.4658 -0.0234 -0.2517
 1823TIP3    H226961   0.182   4.223  14.692  0.9822  0.5147  1.0562
 1824TIP3   OH226962   6.343   3.038   2.263  0.0960  0.1955 -0.0706
 1824TIP3    H126963   6.360   3.122   2.304  0.5901 -0.5193  1.2328
 1824TIP3    H226964   6.419   2.984   2.284 -1.0736 -1.1827  0.7982
 1825TIP3   OH226965   0.916   4.856  17.025 -0.2062 -0.3737  0.2563
 1825TIP3    H126966   1.004   4.819  17.015  0.2787  1.0323 -0.8766
 1825TIP3    H226967   0.922   4.910  17.105  0.0736  0.0044 -0.0157
 1826TIP3   OH226968   1.438   3.190   1.732  0.6226  0.5854  0.2312
 1826TIP3    H126969   1.480   3.104   1.731  0.0562  0.3084  0.6253
 1826TIP3    H226970   1.485   3.238   1.800 -0.6119 -0.1802  1.6368
 1827TIP3   OH226971   0.664   4.672   3.828  0.8184 -0.6649  0.2243
 1827TIP3    H126972   0.682   4.753   3.781  1.2141 -0.3588  0.8877
 1827TIP3    H226973   0.743   4.658   3.882 -1.0099  0.8919  3.4859
 1828TIP3   OH226974   4.721   3.370  13.597  0.1987  0.4188 -0.0572
 1828TIP3    H126975   4.816   3.364  13.611  0.4165 -0.0315 -1.5334
 1828TIP3    H226976   4.687   3.408  13.677  1.7045  1.1400  0.2624
 1829TIP3   OH226977   4.895   2.183  15.147  0.2969 -0.4198  0.1991
 1829TIP3    H126978   4.827   2.118  15.129  1.9615 -2.0994 -0.0936
 1829TIP3    H226979   4.913   2.223  15.062  1.2112 -1.4959 -0.1159
 1830TIP3   OH226980   0.792   0.714  14.088 -0.0473 -0.0351 -0.3465
 1830TIP3    H126981   0.733   0.789  14.093 -1.4654 -1.2026  0.9146
 1830TIP3    H226982   0.746   0.650  14.034  0.5561 -0.5129 -0.3051
 1831TIP3   OH226983   3.006   4.578   5.909 -0.5573 -0.5932  0.3351
 1831TIP3    H126984   3.067   4.646   5.937  0.4825 -0.5733 -1.8495
 1831TIP3    H226985   3.059   4.498   5.906 -1.0803 -0.9345  0.1564
 1832TIP3   OH226986   0.456   3.498   5.016 -0.6814 -0.9541  0.6059
 1832TIP3    H126987   0.432   3.542   5.098  0.9306  1.4896 -0.1567
 1832TIP3    H226988   0.390   3.528   4.953 -0.3327 -0.6225  0.3924
 1833TIP3   OH226989   0.275   3.408  16.958 -0.0864 -0.1037  0.2085
 1833TIP3    H126990   0.352   3.396  17.014  0.1990 -0.3828 -0.2382
 1833TIP3    H226991   0.261   3.322  16.918 -0.8668 -0.1539  0.5843
 1834TIP3   OH226992   1.654   3.713  11.293  0.0180  1.0992  0.8563
 1834TIP3    H126993   1.633   3.622  11.315  1.1318  0.7033  0.3222
 1834TIP3    H226994   1.667   3.712  11.198 -0.1274  1.8589  0.8241
 1835TIP3   OH226995   4.873   3.332   3.117  0.0394 -0.2212  0.1345
 1835TIP3    H126996   4.825   3.251   3.103 -1.7669  0.6833  0.9190
 1835TIP3    H226997   4.895   3.363   3.030  0.3797 -1.3207 -0.1839
 1836TIP3   OH226998   1.462   2.946  14.390  0.1720 -0.1333 -0.2296
 1836TIP3    H126999   1.509   2.941  14.307  0.7935  0.0135  0.1062
 1836TIP3    H227000   1.369   2.946  14.366  0.3373 -1.0318 -0.8720
 1837TIP3   OH227001   4.419   4.227   3.713  0.5610 -0.4012  0.2854
 1837TIP3    H127002   4.415   4.294   3.781 -2.0541 -0.7305  0.5012
 1837TIP3    H227003   4.452   4.149   3.758 -0.3016 -0.3750  0.9632
 1838TIP3   OH227004   6.102   6.480   4.457  0.0708 -0.7115 -0.3925
 1838TIP3    H127005   6.134   6.561   4.498  1.9183 -1.9552  0.7001
 1838TIP3    H227006   6.079   6.423   4.530 -0.4303 -1.4721 -1.1339
 1839TIP3   OH227007   6.310   2.869  11.302  0.5130  0.3408 -0.7469
 1839TIP3    H127008   6.303   2.952  11.256  0.8173  2.0447  2.1398
 1839TIP3    H227009   6.220   2.847  11.326  0.5141  0.2103 -0.8629
 1840TIP3   OH227010   4.642   6.725   3.727 -0.0188 -0.3394  0.2211
 1840TIP3    H127011   4.699   6.693   3.797 -0.0282 -2.7648 -0.8301
 1840TIP3    H227012   4.574   6.774   3.773  0.0122 -1.8163  1.9345
 1841TIP3   OH227013   6.000   1.251  15.672 -0.3420  0.1610 -0.0478
 1841TIP3    H127014   5.943   1.321  15.705 -0.2469  0.3153 -0.2116
 1841TIP3    H227015   5.992   1.181  15.737 -2.1643 -0.5439 -1.0124
 1842TIP3   OH227016   3.585   6.023   4.044  0.3958  0.8164  0.2249
 1842TIP3    H127017   3.547   6.081   3.979  2.8417  0.3696 -1.6823
 1842TIP3    H227018   3.600   5.940   3.997  0.8914  0.0406  1.7146
 1843TIP3   OH227019   1.732   1.165   3.221 -0.1592  0.6018  0.4021
 1843TIP3    H127020   1.801   1.118   3.174 -0.7294  1.6323 -1.5134
 1843TIP3    H227021   1.681   1.097   3.264  1.8965 -0.1914  1.6442
 1844TIP3   OH227022   3.060   3.306   5.793 -0.0135 -0.0572 -0.1996
 1844TIP3    H127023   3.103   3.253   5.726 -0.9141  0.7402 -1.4349
 1844TIP3    H227024   3.023   3.243   5.854  1.4236 -0.7795 -0.0597
 1845TIP3   OH227025   4.859   6.283   5.531  0.3207 -0.4498 -0.3684
 1845TIP3    H127026   4.827   6.230   5.458 -3.3479  1.5373 -0.3246
 1845TIP3    H227027   4.872   6.370   5.493 -0.2055  0.2418  1.0068
 1846TIP3   OH227028   6.183   6.157  15.145 -0.5392  0.2580  0.1382
 1846TIP3    H127029   6.221   6.117  15.067 -2.2507  1.9196 -1.6003
 1846TIP3    H227030   6.252   6.214  15.179  0.3146 -0.6874  0.0171
 1847TIP3   OH227031   2.389   5.875  15.054 -0.3287  0.4278 -0.4961
 1847TIP3    H127032   2.424   5.787  15.069  0.5942  0.7551 -0.6816
 1847TIP3    H227033   2.375   5.880  14.960 -0.3030  0.5120 -0.4950
 1848TIP3   OH227034   1.199   4.549  16.142 -0.0992  0.1636  0.4078
 1848TIP3    H127035   1.172   4.489  16.073  0.2565 -0.9636  1.2283
 1848TIP3    H227036   1.216   4.632  16.098  1.4026 -0.8922 -1.0382
 1849TIP3   OH227037   1.224   0.677  11.409  0.3677 -1.0049  0.0728
 1849TIP3    H127038   1.301   0.624  11.427 -1.7916 -3.5661  2.1043
 1849TIP3    H227039   1.157   0.614  11.380 -2.1356  0.5873  2.1556
 1850TIP3   OH227040   3.574   6.520  16.293  0.4013 -0.0836 -0.1627
 1850TIP3    H127041   3.576   6.584  16.365 -2.2093 -0.3909  0.2248
 1850TIP3    H227042   3.556   6.437  16.336 -1.1042 -0.2788 -1.1368
 1851TIP3   OH227043   4.483   6.604  11.091 -0.0012  0.0172 -0.1053
 1851TIP3    H127044   4.508   6.534  11.030  0.0649  0.0197 -0.0801
 1851TIP3    H227045   4.559   6.617  11.147 -0.5195 -0.8891  0.8277
 1852TIP3   OH227046   5.409   0.775   0.154 -0.5825  0.0818 -0.2899
 1852TIP3    H127047   5.361   0.778   0.070 -0.0262  1.7299 -0.5837
 1852TIP3    H227048   5.492   0.733   0.133 -0.4153  0.5551 -0.5877
 1853TIP3   OH227049   6.769   2.953   2.691 -0.6485 -0.1622 -0.1404
 1853TIP3    H127050   6.713   3.023   2.725 -1.5748  0.3173 -2.6185
 1853TIP3    H227051   6.851   2.997   2.667 -1.2478  0.0991 -1.7425
 1854TIP3   OH227052   1.325   2.884   3.200  0.3624 -0.0661 -0.0072
 1854TIP3    H127053   1.282   2.832   3.267  0.4363  0.4352  0.4278
 1854TIP3    H227054   1.254   2.918   3.146  0.3055 -0.4841 -0.1990
 1855TIP3   OH227055   0.364   6.133   4.103 -0.0245 -0.1902  0.2509
 1855TIP3    H127056   0.298   6.203   4.100  0.2839  0.0340 -2.1182
 1855TIP3    H227057   0.321   6.058   4.061  0.0115 -1.1527  1.8720
 1856TIP3   OH227058   2.934   3.303   0.971  0.0695 -0.7072  0.3434
 1856TIP3    H127059   3.010   3.295   0.914  0.1558  1.3446  0.1354
 1856TIP3    H227060   2.965   3.352   1.047 -0.8362 -0.5734  0.6387
 1857TIP3   OH227061   3.367   3.270   4.023  0.5850  0.0941  0.1230
 1857TIP3    H127062   3.319   3.307   3.948  0.9090 -0.4629 -0.3631
 1857TIP3    H227063   3.303   3.214   4.067 -0.2346  2.0367  1.4857
 1858TIP3   OH227064   2.019   0.845   2.636  0.1506  0.0018  0.2299
 1858TIP3    H127065   1.996   0.853   2.544  0.7567 -2.9276 -0.2088
 1858TIP3    H227066   2.107   0.809   2.636  0.6880  1.2400  1.9653
 1859TIP3   OH227067   4.811   0.928   0.556 -0.3870 -0.3935  0.0652
 1859TIP3    H127068   4.729   0.885   0.579  0.0506  0.2303  3.0286
 1859TIP3    H227069   4.831   0.897   0.467 -2.3801 -2.7256  0.3854
 1860TIP3   OH227070   3.376   5.811   2.289 -0.5507  0.0780 -0.2300
 1860TIP3    H127071   3.318   5.772   2.224 -0.5836 -1.1755  0.5363
 1860TIP3    H227072   3.458   5.828   2.242 -0.2726 -1.6418 -0.3929
 1861TIP3   OH227073   3.090   2.597   1.201 -0.7399 -0.0071  0.3304
 1861TIP3    H127074   3.183   2.602   1.224 -1.4068  0.0428  3.1561
 1861TIP3    H227075   3.058   2.521   1.248 -2.4053  0.7118  0.3741
 1862TIP3   OH227076   4.101   0.973  15.610 -0.1224 -0.3158 -0.5316
 1862TIP3    H127077   4.083   1.036  15.539  0.8207 -3.0063 -3.2526
 1862TIP3    H227078   4.193   0.988  15.632  0.4473 -1.4580 -2.0034
 1863TIP3   OH227079   0.306   3.750  17.092 -0.1722  0.0860  0.1927
 1863TIP3    H127080   0.236   3.780  17.150  0.3548 -0.7883  1.3091
 1863TIP3    H227081   0.293   3.799  17.011 -1.9260  0.1290  0.4695
 1864TIP3   OH227082   3.540   5.174   2.856 -0.4799 -0.4296 -0.3853
 1864TIP3    H127083   3.540   5.214   2.769  1.8735  0.6538  0.0869
 1864TIP3    H227084   3.463   5.116   2.855 -2.5409  2.1885 -1.9487
 1865TIP3   OH227085   0.553   5.492  14.538  0.6027 -0.1548  0.3378
 1865TIP3    H127086   0.601   5.558  14.588  0.6411 -0.0068  0.1016
 1865TIP3    H227087   0.504   5.541  14.473 -1.4764 -0.1247  1.8768
 1866TIP3   OH227088   5.242   4.243   5.757 -0.4150 -0.4992 -0.3387
 1866TIP3    H127089   5.154   4.278   5.745 -0.0343  0.2865 -0.8975
 1866TIP3    H227090   5.250   4.172   5.694 -2.2708 -3.7187  2.8578
 1867TIP3   OH227091   4.246   3.977  12.136 -0.1678  0.4372  0.4104
 1867TIP3    H127092   4.253   4.034  12.059 -1.7952 -0.6502 -0.5841
 1867TIP3    H227093   4.334   3.941  12.148  0.0628  0.4637 -1.0904
 1868TIP3   OH227094   1.527   1.206  13.411 -0.3458  0.4558 -0.1700
 1868TIP3    H127095   1.550   1.298  13.399  0.1753  0.5122  1.1230
 1868TIP3    H227096   1.606   1.158  13.383 -0.4107  0.4289 -0.3056
 1869TIP3   OH227097   1.560   2.783   6.661  0.1319  0.2376 -0.2143
 1869TIP3    H127098   1.583   2.874   6.680 -1.0636  0.3455  0.7534
 1869TIP3    H227099   1.562   2.739   6.746  0.7637 -0.6608 -0.6875
 1870TIP3   OH227100   3.339   0.057  13.744 -0.1511  0.3378  0.2976
 1870TIP3    H127101   3.410   0.106  13.701 -0.9909  0.2849 -1.1818
 1870TIP3    H227102   3.378  -0.026  13.768  0.1190  0.0363 -1.1378
 1871TIP3   OH227103   3.376   4.732  15.675  0.0889  0.3129  0.6308
 1871TIP3    H127104   3.352   4.640  15.667  3.4042 -0.7109  1.3785
 1871TIP3    H227105   3.448   4.743  15.613  0.5826  2.0511  1.4901
 1872TIP3   OH227106   2.910   0.447  11.927  0.2166 -0.4039  0.0054
 1872TIP3    H127107   3.003   0.441  11.909  0.0103 -0.7807 -0.9596
 1872TIP3    H227108   2.878   0.357  11.925 -0.1852 -0.2716  0.2322
 1873TIP3   OH227109   5.245   6.684  14.979  0.4013  0.8870  0.4563
 1873TIP3    H127110   5.163   6.717  15.016  0.9167  1.0449  1.4519
 1873TIP3    H227111   5.294   6.650  15.054  0.0630 -1.7950 -0.4765
 1874TIP3   OH227112   1.505   2.700   6.400  0.0759  0.6467 -0.0804
 1874TIP3    H127113   1.511   2.739   6.487  0.4925 -0.1322  0.2486
 1874TIP3    H227114   1.512   2.605   6.416 -1.8860  0.3664 -0.7753
 1875TIP3   OH227115   1.662   6.248   2.704 -0.4552 -0.4247 -0.0637
 1875TIP3    H127116   1.675   6.310   2.776  0.2479 -0.0091 -0.5504
 1875TIP3    H227117   1.750   6.226   2.675 -0.7556  0.1146 -1.3962
 1876TIP3   OH227118   2.206   6.238   4.220  0.1060 -0.0087  0.0057
 1876TIP3    H127119   2.161   6.211   4.139 -0.3994  3.6789 -1.0302
 1876TIP3    H227120   2.164   6.321   4.243  1.9969  0.2333  2.6764
 1877TIP3   OH227121   6.263   4.719  16.163 -0.4378 -0.4296  0.1885
 1877TIP3    H127122   6.209   4.787  16.123  1.4703  0.5083 -0.8222
 1877TIP3    H227123   6.275   4.654  16.093  0.4107 -0.2439  0.1632
 1878TIP3   OH227124   2.913   6.305  14.538 -0.2017  0.2966  0.3867
 1878TIP3    H127125   2.925   6.313  14.443 -0.0012  1.8004  0.5283
 1878TIP3    H227126   2.906   6.211  14.553  2.3217 -0.1198 -0.8222
 1879TIP3   OH227127   0.560   3.558   1.884 -0.4215  0.1207  0.2637
 1879TIP3    H127128   0.482   3.515   1.918 -0.4922 -0.6781 -0.8872
 1879TIP3    H227129   0.590   3.501   1.813 -0.3999  1.8600 -1.1398
 1880TIP3   OH227130   1.857   3.411   5.684  0.2108  0.5260 -0.2076
 1880TIP3    H127131   1.796   3.477   5.650  1.3829  1.7388 -0.0368
 1880TIP3    H227132   1.861   3.429   5.778  1.8654  1.3780 -0.4172
 1881TIP3   OH227133   5.078   1.261  12.840 -0.3160 -0.0821 -0.6734
 1881TIP3    H127134   5.117   1.215  12.915 -1.9425  1.1427  0.9566
 1881TIP3    H227135   5.017   1.198  12.802 -0.6875 -0.1502  0.0276
 1882TIP3   OH227136   4.440   5.468  16.553  0.1767 -0.0773  0.0132
 1882TIP3    H127137   4.466   5.488  16.644  0.4711  0.0466 -0.0980
 1882TIP3    H227138   4.481   5.384  16.535 -1.3809 -0.9733  0.6052
 1883TIP3   OH227139   0.014   4.187   5.448  0.5743  0.3983  0.6718
 1883TIP3    H127140   0.053   4.265   5.407  0.1321  0.4147  0.2850
 1883TIP3    H227141   0.027   4.117   5.385  2.2754 -0.1924  1.6259
 1884TIP3   OH227142   1.050   0.364  15.653 -0.2174 -0.4987 -0.0409
 1884TIP3    H127143   1.085   0.451  15.670  1.6624 -1.2397  0.0190
 1884TIP3    H227144   0.964   0.379  15.614  1.0934  1.4277 -2.3023
 1885TIP3   OH227145   4.756   4.428   3.616 -0.3615 -0.0791  0.5123
 1885TIP3    H127146   4.834   4.380   3.641  0.0769  0.9343  1.1564
 1885TIP3    H227147   4.789   4.504   3.568 -0.8987  0.7189  1.3943
 1886TIP3   OH227148   0.284   2.868  15.770 -0.4873 -0.0058  0.6556
 1886TIP3    H127149   0.198   2.876  15.811 -0.9467 -3.1705  0.4440
 1886TIP3    H227150   0.331   2.807  15.827  0.4186 -0.9753 -1.1059
 1887TIP3   OH227151   3.701   1.974   1.479  0.0630  0.0021  0.0123
 1887TIP3    H127152   3.608   1.967   1.461 -0.2897  1.4091  1.1568
 1887TIP3    H227153   3.738   2.014   1.400 -0.4532  0.2930 -0.0801
 1888TIP3   OH227154   0.417   4.521   5.367 -0.4832  0.0889  0.1180
 1888TIP3    H127155   0.504   4.551   5.340 -0.3938 -0.1613  0.1308
 1888TIP3    H227156   0.426   4.503   5.460 -0.7410  0.7645  0.2806
 1889TIP3   OH227157   1.810   5.821  13.940  0.1524  0.6008  0.6683
 1889TIP3    H127158   1.716   5.834  13.950 -0.0161  0.6337 -0.8971
 1889TIP3    H227159   1.840   5.895  13.888  1.2269  1.0971  1.9452
 1890TIP3   OH227160   2.835   5.887  13.067  0.6561  0.6088  0.4434
 1890TIP3    H127161   2.796   5.880  13.154 -0.5368 -0.9195 -0.1752
 1890TIP3    H227162   2.928   5.869  13.080  0.4183  0.0239  1.3512
 1891TIP3   OH227163   6.770   4.306  15.368  0.0636  0.3161 -0.0402
 1891TIP3    H127164   6.773   4.299  15.463 -1.4418  1.9605  0.1521
 1891TIP3    H227165   6.860   4.289  15.340  0.8768  1.4350  1.7974
 1892TIP3   OH227166   2.973   1.985  15.164 -0.0137  0.4802 -0.4333
 1892TIP3    H127167   2.965   1.937  15.081  2.1476  0.2558 -0.5211
 1892TIP3    H227168   2.896   2.043  15.164 -1.7807 -1.7794 -1.0731
 1893TIP3   OH227169   4.399   2.966   5.484 -0.5222  0.5001 -0.0308
 1893TIP3    H127170   4.430   2.992   5.397 -0.6792  0.1868 -0.1778
 1893TIP3    H227171   4.451   2.889   5.506  0.9074  1.7170  0.9833
 1894TIP3   OH227172   3.105   1.475   4.100 -0.0953 -0.1426  0.8882
 1894TIP3    H127173   3.160   1.553   4.107 -0.2593  0.2481 -1.7281
 1894TIP3    H227174   3.016   1.509   4.093 -0.2210 -0.5845  0.3110
 1895TIP3   OH227175   5.552   4.815  10.970  0.6831 -1.0658 -0.0738
 1895TIP3    H127176   5.606   4.770  11.035  1.5534  0.7326  0.4624
 1895TIP3    H227177   5.464   4.817  11.009  0.8243 -1.5267  0.2730
 1896TIP3   OH227178   4.147   1.138   2.367 -0.0034  0.3440  0.0272
 1896TIP3    H127179   4.192   1.193   2.302 -0.5062 -1.7303 -2.1313
 1896TIP3    H227180   4.144   1.192   2.446  1.5742  2.5252 -1.3560
 1897TIP3   OH227181   6.746   1.417   3.653  0.1619  0.2628  0.2982
 1897TIP3    H127182   6.677   1.352   3.668  0.1673  0.2698  0.3518
 1897TIP3    H227183   6.803   1.377   3.587  0.6183 -0.1264  0.9180
 1898TIP3   OH227184   0.245   5.486  14.307  0.8759 -0.5604 -0.5256
 1898TIP3    H127185   0.152   5.506  14.295  0.3271 -0.9098  2.7145
 1898TIP3    H227186   0.289   5.569  14.290  0.1052 -0.6105 -3.0185
 1899TIP3   OH227187   2.545   3.106  10.588 -0.3488  0.2043 -0.4193
 1899TIP3    H127188   2.548   3.059  10.672  0.6653 -1.4429 -1.3615
 1899TIP3    H227189   2.452   3.106  10.564 -0.6566  0.7233  0.7004
 1900TIP3   OH227190   4.577   0.286  16.901  0.4102  0.1847  1.1724
 1900TIP3    H127191   4.632   0.269  16.978 -0.5224  0.0346  1.8161
 1900TIP3    H227192   4.497   0.235  16.917  0.3386 -0.0945 -0.0484
 1901TIP3   OH227193   4.324   0.702  15.598 -0.1415  0.3403 -0.2535
 1901TIP3    H127194   4.331   0.717  15.504  1.7955 -1.0699 -0.3628
 1901TIP3    H227195   4.397   0.752  15.635 -0.6075  0.4946  0.4701
 1902TIP3   OH227196   6.574   3.632  16.556  0.1752 -0.2281  0.0995
 1902TIP3    H127197   6.658   3.593  16.582 -0.6519 -1.1560  1.4603
 1902TIP3    H227198   6.519   3.623  16.634 -0.3984  2.6706  0.0653
 1903TIP3   OH227199   0.544   1.913   1.685  0.1404 -0.1298  0.1696
 1903TIP3    H127200   0.617   1.966   1.717  0.6415 -0.2193 -0.7829
 1903TIP3    H227201   0.546   1.834   1.739  0.2038  0.2572  0.7342
 1904TIP3   OH227202   0.855   5.155   1.105 -0.2269 -0.1708 -0.2638
 1904TIP3    H127203   0.770   5.199   1.109 -0.8336 -1.3531 -0.1268
 1904TIP3    H227204   0.837   5.064   1.129  1.2148 -0.2392  0.6441
 1905TIP3   OH227205   4.537   1.080  12.932  0.0177  0.3119 -0.3568
 1905TIP3    H127206   4.570   1.037  13.011  0.4307 -0.0069 -0.7004
 1905TIP3    H227207   4.602   1.146  12.912 -0.7205  1.2590  0.2885
 1906TIP3   OH227208   0.480   3.000   4.745  0.3763  0.0990  0.0910
 1906TIP3    H127209   0.411   3.022   4.808  0.7420 -0.4717  0.6999
 1906TIP3    H227210   0.434   2.986   4.662 -0.3282 -0.9922  0.6545
 1907TIP3   OH227211   3.519   1.469   5.184  0.5816  0.1143 -0.0265
 1907TIP3    H127212   3.590   1.501   5.128  0.8506  0.6979  0.6408
 1907TIP3    H227213   3.441   1.514   5.152  0.4770 -0.6698 -0.8809
 1908TIP3   OH227214   4.819   4.051   6.004 -0.0142  0.2487  0.6358
 1908TIP3    H127215   4.755   4.067   6.073 -0.3229 -1.2143  0.6985
 1908TIP3    H227216   4.871   3.978   6.036 -0.0146 -0.3004 -0.5886
 1909TIP3   OH227217   3.457   6.704  15.151  0.2532 -0.0505  0.3593
 1909TIP3    H127218   3.397   6.717  15.225 -0.2474  1.3049 -0.2730
 1909TIP3    H227219   3.414   6.747  15.077  1.7535  0.4825 -0.2345
 1910TIP3   OH227220   4.442   6.809   5.878 -0.5382  0.0359  0.2735
 1910TIP3    H127221   4.421   6.797   5.970  0.1800  1.2105  0.6020
 1910TIP3    H227222   4.383   6.749   5.832 -0.4289 -1.0476  1.5257
 1911TIP3   OH227223   4.380   0.862   4.427  0.0574  0.2134  0.1437
 1911TIP3    H127224   4.427   0.944   4.434  0.6008  0.2774 -3.3222
 1911TIP3    H227225   4.448   0.795   4.418 -0.4360 -0.0683 -1.6463
 1912TIP3   OH227226   6.357   0.891  16.604 -0.5584 -0.0410 -0.1593
 1912TIP3    H127227   6.291   0.936  16.656 -1.0839 -0.6335 -0.3141
 1912TIP3    H227228   6.310   0.856  16.529 -0.0119 -0.1980 -0.4340
 1913TIP3   OH227229   3.006   4.312  11.132  0.4047  0.0708 -0.0574
 1913TIP3    H127230   3.073   4.380  11.130  1.4104 -0.9128 -0.2083
 1913TIP3    H227231   2.994   4.286  11.041  2.1314 -1.9630  0.2473
 1914TIP3   OH227232   4.555   3.721   3.056 -0.2319 -0.1562 -0.1455
 1914TIP3    H127233   4.516   3.728   2.969 -0.9173  2.0341  0.3268
 1914TIP3    H227234   4.482   3.722   3.117  0.4107  1.8148  0.6307
 1915TIP3   OH227235   4.685   1.027  16.958 -1.2138  0.1031  0.6255
 1915TIP3    H127236   4.686   1.120  16.982  1.5361  0.3458 -0.1976
 1915TIP3    H227237   4.656   1.026  16.867 -0.4246  0.2611  0.3642
 1916TIP3   OH227238   6.276   2.330  17.158  0.3740  0.0645  0.0971
 1916TIP3    H127239   6.336   2.255  17.163 -1.2331 -1.4071 -1.7747
 1916TIP3    H227240   6.194   2.296  17.194 -0.4576  0.8120 -1.0731
 1917TIP3   OH227241   2.678   0.527   4.632  0.1327  0.4427 -0.2626
 1917TIP3    H127242   2.741   0.489   4.571 -0.3992  1.8754 -1.7405
 1917TIP3    H227243   2.682   0.621   4.617 -0.2776  0.8120  1.6734
 1918TIP3   OH227244   0.973   5.872  17.189 -0.2249  0.2743 -0.1520
 1918TIP3    H127245   1.032   5.843  17.260 -0.4348 -1.5552 -0.6953
 1918TIP3    H227246   0.918   5.939  17.230  0.9396  0.6392  0.8869
 1919TIP3   OH227247   4.595   5.867  13.694  0.3558 -0.7547  0.7454
 1919TIP3    H127248   4.646   5.795  13.657 -0.5054 -1.8174  1.6075
 1919TIP3    H227249   4.658   5.939  13.704  1.1122 -1.2179 -0.5564
 1920TIP3   OH227250   2.519   1.084   2.087  0.0946  0.0720 -0.5067
 1920TIP3    H127251   2.578   1.046   2.152 -0.2509  1.6166  0.7658
 1920TIP3    H227252   2.575   1.103   2.012  1.2425  1.5034  0.6781
 1921TIP3   OH227253   5.640   6.023  15.031  0.0900 -0.8617  0.0631
 1921TIP3    H127254   5.548   6.002  15.047 -1.1345  3.6243 -0.5024
 1921TIP3    H227255   5.650   6.019  14.936  0.8289 -2.5078  0.1936
 1922TIP3   OH227256   2.213   6.293   3.867  0.2391  0.0626 -0.0841
 1922TIP3    H127257   2.129   6.273   3.909  1.4002  0.0652  2.3109
 1922TIP3    H227258   2.252   6.208   3.850  0.7423  0.1018  0.8698
 1923TIP3   OH227259   5.222   5.858  11.347  0.1601  0.3297 -0.2349
 1923TIP3    H127260   5.296   5.914  11.325  0.4909 -0.0625 -0.1295
 1923TIP3    H227261   5.157   5.877  11.279  1.0988 -0.7125 -1.4658
 1924TIP3   OH227262   1.022   2.851  14.854 -0.1217  0.5481 -0.6347
 1924TIP3    H127263   0.941   2.885  14.817 -1.3580 -0.6932  0.8944
 1924TIP3    H227264   0.997   2.813  14.938  2.0078 -0.0153 -0.2150
 1925TIP3   OH227265   2.248   0.271  13.009  0.7235 -0.3005 -0.3819
 1925TIP3    H127266   2.156   0.297  13.009  0.3567 -1.5088  0.6060
 1925TIP3    H227267   2.294   0.348  13.043  0.1672  0.5544 -1.5287
 1926TIP3   OH227268   4.374   6.323  12.669  0.1674  0.2456 -0.0396
 1926TIP3    H127269   4.290   6.282  12.647  0.4849  0.1603 -1.1266
 1926TIP3    H227270   4.419   6.257  12.722 -0.5476  0.3879  0.7568
 1927TIP3   OH227271   0.348   3.547   0.047 -0.0040 -0.1324  0.0191
 1927TIP3    H127272   0.294   3.523  -0.028  1.0938  1.3564 -1.2755
 1927TIP3    H227273   0.381   3.463   0.081 -1.2600 -0.8687 -0.5768
 1928TIP3   OH227274   2.133   6.769  15.324  0.5922  0.2228 -0.1377
 1928TIP3    H127275   2.068   6.719  15.374  1.3729  0.0677  0.7452
 1928TIP3    H227276   2.088   6.851  15.302  0.1756  0.2261  0.6819
 1929TIP3   OH227277   1.470   5.601   0.559 -0.0507  0.4526 -0.7773
 1929TIP3    H127278   1.423   5.522   0.534  0.5586 -0.3517  0.5312
 1929TIP3    H227279   1.402   5.660   0.592 -0.0983 -1.0830  2.0702
 1930TIP3   OH227280   4.632   0.681  12.153  0.2277  0.8116  0.0550
 1930TIP3    H127281   4.584   0.600  12.171  0.3402  0.6956 -0.1659
 1930TIP3    H227282   4.644   0.721  12.239 -0.3180  0.8724  0.1041
 1931TIP3   OH227283   3.723   2.116   3.410 -0.5733 -0.3160  0.0226
 1931TIP3    H127284   3.645   2.088   3.361 -0.5800 -1.0799  0.4652
 1931TIP3    H227285   3.790   2.127   3.343 -1.1963  0.8956 -0.4351
 1932TIP3   OH227286   2.511   4.723  12.479 -0.6083  0.2740  0.1223
 1932TIP3    H127287   2.458   4.687  12.549 -1.4937  0.1731 -0.5990
 1932TIP3    H227288   2.476   4.684  12.399  1.6131 -1.1130 -0.2380
 1933TIP3   OH227289   0.539   6.747   3.960  0.0048 -0.3705  0.1498
 1933TIP3    H127290   0.471   6.805   3.925  0.9074  0.5141 -0.1805
 1933TIP3    H227291   0.492   6.668   3.988 -1.0467 -0.0869 -0.7930
 1934TIP3   OH227292   4.460   4.957   3.109  0.0045  0.0594 -0.2437
 1934TIP3    H127293   4.451   5.005   3.027 -0.7512  0.1657 -0.1055
 1934TIP3    H227294   4.554   4.944   3.120  0.1930  1.2640 -0.4258
 1935TIP3   OH227295   0.720   2.010   4.367  0.0505 -0.5984 -0.5329
 1935TIP3    H127296   0.740   1.967   4.284  2.5108 -2.4312  0.9283
 1935TIP3    H227297   0.804   2.044   4.397 -0.6340 -0.7935  1.6674
 1936TIP3   OH227298   6.400   6.061  14.417  0.0825 -0.2017  0.1174
 1936TIP3    H127299   6.406   6.018  14.332  0.3283  1.5016 -0.7478
 1936TIP3    H227300   6.311   6.097  14.420  0.7705  1.5929 -0.3485
 1937TIP3   OH227301   1.907   4.922   4.068  0.2151 -0.4241  0.0993
 1937TIP3    H127302   1.910   4.975   4.148 -0.6962  0.0354 -0.1672
 1937TIP3    H227303   1.961   4.970   4.005  0.5288 -0.5288  0.2915
 1938TIP3   OH227304   4.018   0.496  11.535 -0.3849 -0.0806 -0.1363
 1938TIP3    H127305   4.040   0.454  11.618  0.5101  1.0663  0.2057
 1938TIP3    H227306   4.054   0.436  11.469 -1.7318 -1.3638  0.2634
 1939TIP3   OH227307   3.372   3.482  13.131  0.1212 -0.5279 -0.2198
 1939TIP3    H127308   3.405   3.449  13.215 -2.2426 -1.5312  0.3523
 1939TIP3    H227309   3.303   3.544  13.154 -0.8382 -1.1241 -1.4012
 1940TIP3   OH227310   0.013   0.236  14.757  0.0521 -0.4180  0.1723
 1940TIP3    H127311   0.057   0.266  14.836 -1.2571 -0.3952  0.9218
 1940TIP3    H227312  -0.076   0.271  14.765 -0.0039 -0.1732 -1.4567
 1941TIP3   OH227313   4.856   4.539  13.365  0.3647 -0.1242 -0.5557
 1941TIP3    H127314   4.807   4.607  13.411 -0.3003 -0.0199 -1.3848
 1941TIP3    H227315   4.946   4.571  13.363  1.1713 -1.8891  3.9247
 1942TIP3   OH227316   0.047   6.420  12.866 -0.2384 -0.1390 -0.3469
 1942TIP3    H127317  -0.040   6.382  12.854 -1.3225  2.1123  0.0896
 1942TIP3    H227318   0.043   6.463  12.951  0.4064  2.2585 -1.4719
 1943TIP3   OH227319   2.528   1.333   3.647  0.0121 -0.6182 -0.2845
 1943TIP3    H127320   2.477   1.268   3.599 -1.7453  0.6484 -0.1978
 1943TIP3    H227321   2.504   1.416   3.606 -0.2232  0.2996  1.6484
 1944TIP3   OH227322   4.026   5.808   5.260 -0.3574  0.0153  0.0380
 1944TIP3    H127323   3.996   5.733   5.209  3.3681 -1.0607 -0.6556
 1944TIP3    H227324   4.053   5.771   5.344  1.9349  0.4680 -0.4728
 1945TIP3   OH227325   0.541   3.976  16.331  0.1381 -0.3917 -0.1845
 1945TIP3    H127326   0.495   3.911  16.385  1.5866  0.4288  2.1236
 1945TIP3    H227327   0.627   3.984  16.372  0.4362  2.0446 -1.2133
 1946TIP3   OH227328   4.036   3.355   3.629  0.0284 -0.4585 -0.5976
 1946TIP3    H127329   4.041   3.344   3.724  1.2839  0.9412 -0.4857
 1946TIP3    H227330   4.056   3.268   3.594 -0.9291 -1.0961  0.4203
 1947TIP3   OH227331   4.445   3.862  15.604 -0.0563  0.5771 -0.0432
 1947TIP3    H127332   4.472   3.926  15.538  0.7141  0.3754  0.0761
 1947TIP3    H227333   4.526   3.838  15.649 -0.4574  0.0900  0.4230
 1948TIP3   OH227334   2.546   3.061  16.355 -0.4215  0.3046  0.0148
 1948TIP3    H127335   2.557   3.154  16.375 -2.3300  0.5462  0.0248
 1948TIP3    H227336   2.463   3.056  16.307  0.1490 -1.2763 -0.8588
 1949TIP3   OH227337   5.431   5.083   0.904 -0.0008  0.4852 -0.1524
 1949TIP3    H127338   5.444   4.992   0.875 -1.7596  0.4018 -0.7516
 1949TIP3    H227339   5.448   5.136   0.826 -0.6696  0.5402 -0.2665
 1950TIP3   OH227340   0.172   3.465   2.288  0.3448  0.1784  0.4332
 1950TIP3    H127341   0.118   3.539   2.312 -0.4045 -0.4774  0.7928
 1950TIP3    H227342   0.139   3.436   2.203  1.1209  0.7124 -0.0581
 1951TIP3   OH227343   1.792   2.799  16.248 -0.3242  0.2492  0.3677
 1951TIP3    H127344   1.699   2.779  16.243 -0.3074  0.2949 -0.1362
 1951TIP3    H227345   1.796   2.895  16.250 -0.3308  0.2421  1.3538
 1952TIP3   OH227346   4.899   0.167   3.114  0.1854  0.3108 -0.5579
 1952TIP3    H127347   4.950   0.163   3.033 -0.7717 -0.2921 -1.1413
 1952TIP3    H227348   4.889   0.075   3.140 -1.0975  0.3731 -0.7796
 1953TIP3   OH227349   2.496   0.102   3.219 -0.5493 -1.0171 -0.5731
 1953TIP3    H127350   2.442   0.065   3.289  0.7362 -1.6795  0.1125
 1953TIP3    H227351   2.453   0.183   3.195 -1.4446 -1.1680  0.4592
 1954TIP3   OH227352   6.789   2.112  13.895 -0.0816 -0.5076 -0.3522
 1954TIP3    H127353   6.743   2.068  13.966  0.4793  0.9660  0.9537
 1954TIP3    H227354   6.732   2.101  13.819 -0.9913 -1.5477  0.4600
 1955TIP3   OH227355   1.285   2.450   1.885 -0.2154  0.3017 -0.1061
 1955TIP3    H127356   1.331   2.436   1.967 -0.0034 -2.1977 -0.5917
 1955TIP3    H227357   1.347   2.420   1.818 -1.7499 -1.2434 -0.8930
 1956TIP3   OH227358   1.024   1.285  15.404 -0.3676 -0.5977 -0.3063
 1956TIP3    H127359   0.984   1.259  15.487  0.1729 -0.6000 -0.0503
 1956TIP3    H227360   1.088   1.216  15.385 -0.9736 -0.9597 -1.0723
 1957TIP3   OH227361   3.986   3.544   3.453  0.2309 -0.1521 -0.4505
 1957TIP3    H127362   3.996   3.488   3.529  0.4742  0.2657 -0.1707
 1957TIP3    H227363   4.075   3.571   3.431  0.0859  0.4211 -0.3530
 1958TIP3   OH227364   4.710   6.495   5.219  0.0221 -0.3334 -0.0025
 1958TIP3    H127365   4.683   6.460   5.134  0.1668 -2.5708  0.8257
 1958TIP3    H227366   4.805   6.506   5.212 -0.0109 -0.1966 -0.2387
 1959TIP3   OH227367   0.600   0.870  15.372  0.5564 -0.0482  0.0234
 1959TIP3    H127368   0.635   0.815  15.443 -1.8598 -0.7146  0.7564
 1959TIP3    H227369   0.643   0.954  15.385  0.5797 -0.3175  1.9825
 1960TIP3   OH227370   0.148   6.749   0.948 -0.2770 -0.4450  0.3543
 1960TIP3    H127371   0.083   6.721   1.012  1.2524  2.0171  3.1005
 1960TIP3    H227372   0.171   6.838   0.974 -0.1468  0.9442 -4.1146
 1961TIP3   OH227373   5.868   5.150  12.379 -0.4102 -0.2495  0.0326
 1961TIP3    H127374   5.890   5.164  12.287  1.3751  2.7217  0.8445
 1961TIP3    H227375   5.952   5.135  12.422 -1.0819 -0.1054  1.4224
 1962TIP3   OH227376   0.422   3.423   5.753 -0.0602  0.0053  0.2905
 1962TIP3    H127377   0.451   3.472   5.830 -1.1217  2.3974 -0.7941
 1962TIP3    H227378   0.465   3.338   5.761  0.1449  0.3545  3.3108
 1963TIP3   OH227379   0.827   6.627  15.498 -0.0534 -0.9624  0.1325
 1963TIP3    H127380   0.866   6.562  15.441 -0.4028 -1.1610  0.1159
 1963TIP3    H227381   0.814   6.582  15.581 -1.7542 -1.4014 -0.3407
 1964TIP3   OH227382   5.629   1.539   1.730 -0.4968 -0.5681  0.2280
 1964TIP3    H127383   5.596   1.521   1.819  0.1288  0.4907  0.6870
 1964TIP3    H227384   5.717   1.502   1.729 -0.9565 -1.6559 -0.3551
 1965TIP3   OH227385   0.757   1.349  13.999  0.4015 -0.7086  0.1644
 1965TIP3    H127386   0.755   1.282  14.068  0.4165 -2.6608 -1.6669
 1965TIP3    H227387   0.798   1.305  13.925  0.8502  1.5222 -0.9363
 1966TIP3   OH227388   3.432   4.566  13.563 -0.3571 -0.3772  0.0271
 1966TIP3    H127389   3.525   4.580  13.579 -0.6157 -0.8213  1.9966
 1966TIP3    H227390   3.405   4.643  13.512  0.8359  0.3214  0.4313
 1967TIP3   OH227391   1.802   3.362   2.996  0.6845 -0.7543 -0.3165
 1967TIP3    H127392   1.757   3.412   3.064  2.0377 -0.0392  0.0851
 1967TIP3    H227393   1.743   3.365   2.921 -0.7746 -1.4679  0.7884
 1968TIP3   OH227394   1.761   5.392  15.776  0.2871 -0.3061 -0.4450
 1968TIP3    H127395   1.737   5.327  15.711 -0.6520  0.2025 -0.6131
 1968TIP3    H227396   1.718   5.473  15.747 -0.0940 -0.0563  0.7638
 1969TIP3   OH227397   5.273   2.369   0.873  0.0547 -0.1373 -0.1985
 1969TIP3    H127398   5.273   2.449   0.821  0.9366  0.0668  0.1163
 1969TIP3    H227399   5.365   2.346   0.884  0.0538  1.1941  3.3824
 1970TIP3   OH227400   0.629   1.501  15.114 -0.4753 -0.3751  0.1924
 1970TIP3    H127401   0.620   1.563  15.042 -2.7593 -2.3919 -1.3419
 1970TIP3    H227402   0.589   1.545  15.189 -3.0287 -0.3305 -1.1311
 1971TIP3   OH227403   3.878   5.084   1.791  0.5845  0.2827 -0.3079
 1971TIP3    H127404   3.831   5.148   1.738 -1.4578 -0.2819  0.7626
 1971TIP3    H227405   3.916   5.134   1.862  1.0822  0.6574 -0.8355
 1972TIP3   OH227406   0.656   2.839   5.372 -0.2555 -0.6653  0.3956
 1972TIP3    H127407   0.565   2.810   5.385 -0.5241 -0.3428 -0.6948
 1972TIP3    H227408   0.654   2.933   5.390 -0.7083 -0.1384 -2.1458
 1973TIP3   OH227409   3.459   0.562  15.444 -0.7237  0.0160 -0.7085
 1973TIP3    H127410   3.463   0.622  15.519 -0.5393  1.1031 -1.5771
 1973TIP3    H227411   3.511   0.487  15.472  0.3913  0.9478 -0.2087
 1974TIP3   OH227412   0.246   2.312   1.578 -0.0737 -0.2086  0.4920
 1974TIP3    H127413   0.280   2.383   1.634  1.9578  0.1631 -1.1388
 1974TIP3    H227414   0.321   2.254   1.565 -0.5372 -0.3358 -1.7571
 1975TIP3   OH227415   1.302   0.731   6.247  0.2257  0.3242  0.5227
 1975TIP3    H127416   1.238   0.665   6.221  0.8305 -0.3383  0.7226
 1975TIP3    H227417   1.338   0.699   6.330 -0.0284  1.2822  1.0223
 1976TIP3   OH227418   3.521   3.152   1.098 -0.2350 -0.3786  1.1525
 1976TIP3    H127419   3.434   3.188   1.085 -0.4803 -1.6624 -1.0659
 1976TIP3    H227420   3.577   3.228   1.115 -1.2285  0.7451 -0.5397
 1977TIP3   OH227421   5.850   1.604   0.333  0.0288  0.1817  0.4575
 1977TIP3    H127422   5.895   1.688   0.338  1.8611 -0.7365  0.0343
 1977TIP3    H227423   5.792   1.613   0.257  0.7767  0.8159 -0.0540
 1978TIP3   OH227424   1.635   6.649   1.223 -0.1111  0.0520 -0.0192
 1978TIP3    H127425   1.663   6.734   1.256 -0.3392  0.3233 -0.5198
 1978TIP3    H227426   1.716   6.604   1.201 -0.0167  0.3967 -0.3838
 1979TIP3   OH227427   3.555   1.474  11.577 -0.2751  0.2361 -0.2003
 1979TIP3    H127428   3.470   1.493  11.536 -0.2684 -0.2955 -0.4741
 1979TIP3    H227429   3.615   1.463  11.503 -0.2933 -0.8782 -0.0597
 1980TIP3   OH227430   2.037   1.779  13.402  0.1232  0.0765 -0.1774
 1980TIP3    H127431   2.103   1.757  13.467 -0.7644 -2.9350 -0.2170
 1980TIP3    H227432   2.034   1.703  13.344 -1.5426  1.2384 -1.6688
 1981TIP3   OH227433   3.238   5.103  15.980  0.1698  0.7645  0.1689
 1981TIP3    H127434   3.217   5.171  15.916 -0.8901  0.9563  0.7117
 1981TIP3    H227435   3.210   5.022  15.938 -2.5868  1.1023  1.2429
 1982TIP3   OH227436   0.266   0.667  11.828 -0.3323 -0.0281 -0.0671
 1982TIP3    H127437   0.298   0.579  11.811  0.1805  0.0126  0.6350
 1982TIP3    H227438   0.221   0.659  11.912  0.4294  0.5485  0.4020
 1983TIP3   OH227439   0.789   3.468  15.610  0.5616  0.0288  0.2847
 1983TIP3    H127440   0.735   3.390  15.596 -0.7990  1.2568 -1.4830
 1983TIP3    H227441   0.738   3.523  15.668  0.6279  0.4637 -0.0643
 1984TIP3   OH227442   2.316   0.547  16.809 -0.1920  0.5200  0.1917
 1984TIP3    H127443   2.388   0.606  16.832  0.7227 -1.5803  2.9571
 1984TIP3    H227444   2.248   0.565  16.874  0.6248 -2.3271  1.9230
 1985TIP3   OH227445   2.640   2.424   5.141  0.3718  0.3665  0.8221
 1985TIP3    H127446   2.620   2.469   5.059 -1.2294  2.1651  2.1388
 1985TIP3    H227447   2.720   2.467   5.173 -0.3142  1.2888  1.3322
 1986TIP3   OH227448   4.848   5.617   6.443  0.1356  0.5311  0.1115
 1986TIP3    H127449   4.850   5.705   6.480 -0.5380  0.4431  0.3747
 1986TIP3    H227450   4.788   5.569   6.500  0.6769 -0.1581  0.1065
 1987TIP3   OH227451   6.104   0.387  12.725  0.3590  0.0518 -0.8628
 1987TIP3    H127452   6.102   0.481  12.703 -0.3253 -0.2186 -2.0305
 1987TIP3    H227453   6.012   0.363  12.733  0.4963 -0.7788 -1.7467
 1988TIP3   OH227454   5.700   5.802   5.557 -0.4749  0.0782 -0.2337
 1988TIP3    H127455   5.765   5.818   5.626 -0.4622 -0.6364 -0.0726
 1988TIP3    H227456   5.719   5.713   5.527  2.1863  1.7818 -4.0339
 1989TIP3   OH227457   0.557   2.709  17.146 -0.0543  0.2190 -0.3144
 1989TIP3    H127458   0.637   2.737  17.189 -0.3494  1.3042 -0.4523
 1989TIP3    H227459   0.517   2.646  17.207  0.9335 -0.3882 -0.2894
 1990TIP3   OH227460   0.370   5.023  12.205 -0.0095 -0.2998  0.0508
 1990TIP3    H127461   0.323   5.084  12.262 -0.9684  0.0818 -1.1322
 1990TIP3    H227462   0.312   5.010  12.130  1.6674  0.0496 -1.3566
 1991TIP3   OH227463   6.799   1.467  14.923 -0.3904 -0.2870  0.0209
 1991TIP3    H127464   6.747   1.513  14.856 -0.5048 -0.0247  0.2891
 1991TIP3    H227465   6.888   1.498  14.910 -0.2323 -0.9762 -0.6510
 1992TIP3   OH227466   6.761   6.249  11.572 -0.1863  0.2972 -0.5313
 1992TIP3    H127467   6.838   6.285  11.616  0.5342 -1.3409 -0.3905
 1992TIP3    H227468   6.687   6.294  11.611  0.5440 -0.0783  1.3237
 1993TIP3   OH227469   5.358   2.518  16.100  0.2707 -0.1861  0.0639
 1993TIP3    H127470   5.357   2.592  16.160 -2.7860  0.8156 -1.1430
 1993TIP3    H227471   5.344   2.556  16.014 -1.3311 -2.1263 -0.5901
 1994TIP3   OH227472   6.625   1.196  15.739 -0.7550 -0.0936 -0.1323
 1994TIP3    H127473   6.552   1.144  15.708  0.8103 -2.2459 -0.3064
 1994TIP3    H227474   6.703   1.152  15.705  0.6380  2.1484  0.0290
 1995TIP3   OH227475   5.289   4.761   1.030 -0.5321 -0.3110 -0.0754
 1995TIP3    H127476   5.340   4.724   0.958 -0.5250 -3.0403  1.2552
 1995TIP3    H227477   5.205   4.784   0.990  1.4299  3.7451 -2.1741
 1996TIP3   OH227478   3.565   1.822   3.426  0.3844  0.2167  0.5501
 1996TIP3    H127479   3.561   1.773   3.344 -0.1796 -0.0239  0.7176
 1996TIP3    H227480   3.657   1.847   3.435  0.2636  1.1649 -0.6990
 1997TIP3   OH227481   4.019   3.319   3.921 -0.6348  0.1038  0.3178
 1997TIP3    H127482   3.945   3.315   3.982 -0.5459  1.0697  0.4912
 1997TIP3    H227483   4.090   3.359   3.972 -0.0627 -0.6051  0.0798
 1998TIP3   OH227484   6.436   1.938  12.185  0.7163 -0.0603  0.3836
 1998TIP3    H127485   6.415   2.018  12.233 -3.0229 -0.6950 -0.0127
 1998TIP3    H227486   6.459   1.874  12.252 -0.6598  0.1283  1.0354
 1999TIP3   OH227487   0.127   1.131   5.445  0.0835 -0.3155  0.0864
 1999TIP3    H127488   0.175   1.191   5.503 -0.7455  0.4444  0.0075
 1999TIP3    H227489   0.195   1.077   5.405  1.2842  2.9248 -2.5418
 2000TIP3   OH227490   0.912   4.768  12.835 -0.5800 -0.0246 -0.6085
 2000TIP3    H127491   0.936   4.833  12.769 -1.2206  0.0182 -0.7978
 2000TIP3    H227492   0.818   4.780  12.848 -1.0534 -2.0141 -1.8614
 2001TIP3   OH227493   2.724   2.932   2.258  0.0336 -0.3836 -0.4130
 2001TIP3    H127494   2.754   2.987   2.186  3.2862  1.4414  2.1854
 2001TIP3    H227495   2.632   2.957   2.271  0.0251  0.7882 -2.4979
 2002TIP3   OH227496   4.121   1.760  15.500  0.0636  0.2573  0.3599
 2002TIP3    H127497   4.092   1.693  15.438 -0.1736 -0.2994  1.0638
 2002TIP3    H227498   4.216   1.745  15.508 -0.1607 -0.7498  1.3823
 2003TIP3   OH227499   5.399   6.282  12.250  0.0699  0.3192 -0.6895
 2003TIP3    H127500   5.485   6.298  12.212  0.5030 -2.5796 -1.0827
 2003TIP3    H227501   5.343   6.260  12.175 -0.9513  1.8614 -0.4043
 2004TIP3   OH227502   1.895   2.660  16.004  0.5350  0.6821 -0.2875
 2004TIP3    H127503   1.930   2.575  16.031  1.7501  0.9728 -0.9436
 2004TIP3    H227504   1.852   2.694  16.083  0.9490 -0.0791  0.2742
 2005TIP3   OH227505   3.214   4.708  11.382 -0.2162  0.0838 -0.2416
 2005TIP3    H127506   3.304   4.679  11.370 -0.8463 -1.4279 -1.6606
 2005TIP3    H227507   3.199   4.772  11.312 -0.1516  0.5950  0.2055
 2006TIP3   OH227508   1.296   6.172   3.870  0.7285 -0.2471 -0.3074
 2006TIP3    H127509   1.381   6.169   3.827  0.8809 -0.6233  0.0177
 2006TIP3    H227510   1.254   6.089   3.847 -0.4234  0.8383 -2.2467
 2007TIP3   OH227511   1.215   1.830  16.180  0.2405  0.3924 -0.3784
 2007TIP3    H127512   1.307   1.843  16.157  0.9657 -2.1808  0.8567
 2007TIP3    H227513   1.185   1.760  16.121 -0.4798  0.1475  0.2649
 2008TIP3   OH227514   4.241   4.714   5.142 -0.0485  0.0601  0.7212
 2008TIP3    H127515   4.191   4.759   5.209 -1.0668  0.2208 -0.1305
 2008TIP3    H227516   4.329   4.752   5.148 -0.5144  1.1239  0.9748
 2009TIP3   OH227517   3.953   0.681  17.031  0.0244 -0.2594  0.1592
 2009TIP3    H127518   3.973   0.646  17.118  0.3118 -0.0096  0.1953
 2009TIP3    H227519   4.034   0.723  17.003 -0.9352  2.2756  1.0372
 2010TIP3   OH227520   3.403   5.951  11.107 -0.1927 -0.5409 -0.0565
 2010TIP3    H127521   3.421   5.863  11.140  1.4146  0.2952  1.3719
 2010TIP3    H227522   3.384   6.003  11.185  2.3234  1.1597 -0.5036
 2011TIP3   OH227523   4.292   4.185  16.739  0.2291  0.0575 -0.5449
 2011TIP3    H127524   4.314   4.096  16.710  0.5349 -1.2276  3.3550
 2011TIP3    H227525   4.198   4.193  16.722 -0.2352 -1.8201  0.9676
 2012TIP3   OH227526   3.087   5.292  14.087 -0.0624  0.6759 -0.0909
 2012TIP3    H127527   2.999   5.258  14.071 -0.4225  0.4065  2.3652
 2012TIP3    H227528   3.073   5.371  14.140  1.2459 -0.3494  1.8172
 2013TIP3   OH227529   5.920   3.658   1.033 -0.1592  0.0687  0.5568
 2013TIP3    H127530   5.930   3.570   0.996  1.0789 -0.2758  1.6488
 2013TIP3    H227531   5.904   3.642   1.126 -0.0567  1.0006  0.7307
 2014TIP3   OH227532   2.175   1.223   3.818  0.4843 -0.0568 -0.3070
 2014TIP3    H127533   2.223   1.190   3.742  1.0115  0.4357 -0.2015
 2014TIP3    H227534   2.244   1.243   3.882  0.1260  0.4714 -0.0793
 2015TIP3   OH227535   3.710   5.918  14.277  0.5221 -0.0933  0.3675
 2015TIP3    H127536   3.702   5.827  14.250  1.3924  0.1813 -0.8610
 2015TIP3    H227537   3.620   5.946  14.295  0.3619 -1.5087  1.8754
 2016TIP3   OH227538   4.971   0.776   3.234 -0.4309  0.3467  0.3081
 2016TIP3    H127539   4.956   0.843   3.301 -1.3752  0.6618 -0.2193
 2016TIP3    H227540   4.891   0.775   3.182  0.4282  0.3275 -1.0222
 2017TIP3   OH227541   0.876   4.636  11.335 -0.0559 -0.0889 -0.6375
 2017TIP3    H127542   0.829   4.552  11.334  0.4884 -0.4723  2.1046
 2017TIP3    H227543   0.923   4.638  11.251 -0.2026 -2.4487 -0.8200
 2018TIP3   OH227544   0.787   0.354  12.479 -0.0672  0.2749 -0.3043
 2018TIP3    H127545   0.833   0.402  12.410  1.1076  0.3213  0.4927
 2018TIP3    H227546   0.755   0.423  12.538  0.6064  0.1419  0.2171
 2019TIP3   OH227547   4.700   1.575   0.388  0.1079 -0.4221 -0.0351
 2019TIP3    H127548   4.673   1.512   0.454 -1.7029 -1.5255 -1.7657
 2019TIP3    H227549   4.691   1.660   0.431  0.1882 -1.1904  1.5259
 2020TIP3   OH227550   6.584   6.471  16.360  0.3137  0.1935  0.5489
 2020TIP3    H127551   6.520   6.403  16.340  0.0672  0.0699  1.7397
 2020TIP3    H227552   6.669   6.430  16.341  0.1428 -0.2822  0.8024
 2021TIP3   OH227553   3.836   1.226   1.347 -0.3000 -0.0108 -0.3586
 2021TIP3    H127554   3.789   1.143   1.344 -1.9142  0.8649  0.2616
 2021TIP3    H227555   3.921   1.206   1.308 -0.2254 -2.2202  0.8666
 2022TIP3   OH227556   3.815   5.216  13.205 -0.1661 -0.3141  0.0002
 2022TIP3    H127557   3.743   5.270  13.239 -1.1081 -1.0071 -0.8601
 2022TIP3    H227558   3.831   5.250  13.117 -1.7486 -2.3367 -1.1113
 2023TIP3   OH227559   1.259   2.886   2.456 -0.5382  0.1386  0.2533
 2023TIP3    H127560   1.259   2.978   2.429 -0.4046  0.7314  2.1614
 2023TIP3    H227561   1.326   2.881   2.525 -0.7942 -1.3051  0.4128
 2024TIP3   OH227562   6.644   3.996   2.291  0.1977 -0.1292  0.0369
 2024TIP3    H127563   6.562   3.965   2.331  0.4018 -0.7323 -0.0066
 2024TIP3    H227564   6.712   3.943   2.333  0.4787 -0.2683 -0.5937
 2025TIP3   OH227565   2.115   6.550   5.944  0.3499 -0.2003 -0.3298
 2025TIP3    H127566   2.123   6.480   6.008  0.5673  0.0572 -0.0726
 2025TIP3    H227567   2.203   6.589   5.940 -0.2849  1.4929  1.1799
 2026TIP3   OH227568   0.638   5.449  12.734 -0.7941 -0.1633  0.3364
 2026TIP3    H127569   0.560   5.502  12.750  0.2906  1.3543  0.7651
 2026TIP3    H227570   0.691   5.460  12.813  0.1265 -0.6629 -0.1953
 2027TIP3   OH227571   4.825   4.829   0.592  0.1474 -0.5481  0.1371
 2027TIP3    H127572   4.847   4.918   0.620  0.4076 -0.7692  0.6407
 2027TIP3    H227573   4.848   4.827   0.498 -0.0967 -0.0115  0.0672
 2028TIP3   OH227574   3.084   0.959   4.020  0.2199 -0.1015  0.3409
 2028TIP3    H127575   2.999   1.000   4.003  2.0105  1.8135 -5.1002
 2028TIP3    H227576   3.145   1.033   4.030  1.7204 -1.4545  1.5793
 2029TIP3   OH227577   4.600   1.465   6.248  0.0596 -0.0335  0.3621
 2029TIP3    H127578   4.597   1.386   6.194 -0.0416 -0.5485  1.1164
 2029TIP3    H227579   4.509   1.479   6.274  0.1038  0.2368  0.3705
 2030TIP3   OH227580   3.930   5.017   3.214  0.0151 -0.1349 -0.1331
 2030TIP3    H127581   3.992   4.948   3.192  1.2094  1.3490 -1.5193
 2030TIP3    H227582   3.932   5.077   3.140 -1.7093  0.9060  0.6187
 2031TIP3   OH227583   2.036   0.948   4.303  0.7607 -0.0859  0.2274
 2031TIP3    H127584   2.017   0.856   4.288  1.7542 -0.1294 -0.8334
 2031TIP3    H227585   2.025   0.989   4.217  2.2775  0.4192  0.2440
 2032TIP3   OH227586   3.854   4.067   6.613 -0.3745 -0.1600 -0.3074
 2032TIP3    H127587   3.934   4.033   6.574 -0.9949 -0.9362 -0.9256
 2032TIP3    H227588   3.830   4.002   6.680  0.8657  1.3281  1.6344
 2033TIP3   OH227589   3.678   1.669  16.896  0.0282  0.5601  0.1218
 2033TIP3    H127590   3.603   1.612  16.912  0.0867  0.7215  0.9985
 2033TIP3    H227591   3.734   1.619  16.836  0.3627 -0.5632  1.3598
 2034TIP3   OH227592   0.690   6.594  16.000 -0.6161  0.0716 -0.5462
 2034TIP3    H127593   0.656   6.680  15.977 -3.8735 -0.5764  1.4654
 2034TIP3    H227594   0.612   6.538  16.006  1.3876 -2.9961 -1.6012
 2035TIP3   OH227595   4.823   2.867   2.614 -0.0299 -0.5427 -0.3935
 2035TIP3    H127596   4.791   2.876   2.524 -0.4308 -1.0083 -0.3055
 2035TIP3    H227597   4.896   2.806   2.608  1.4076  1.1866 -0.7137
 2036TIP3   OH227598   6.380   3.373   2.236 -0.4179  0.0939 -0.3056
 2036TIP3    H127599   6.376   3.386   2.141 -1.3448 -1.1008 -0.4348
 2036TIP3    H227600   6.407   3.459   2.270 -0.4417  0.6384 -1.6147
 2037TIP3   OH227601   1.680   3.731   5.209 -0.3659  0.4503 -0.3566
 2037TIP3    H127602   1.687   3.812   5.259  0.6347  0.0326  0.1834
 2037TIP3    H227603   1.603   3.744   5.153 -0.7243  1.4222  0.3548
 2038TIP3   OH227604   1.556   6.086  15.148  0.1963  0.5676  0.0158
 2038TIP3    H127605   1.639   6.053  15.182 -0.6247 -1.2865  0.2632
 2038TIP3    H227606   1.491   6.056  15.212 -1.0084 -0.4667 -1.6757
 2039TIP3   OH227607   0.197   5.162  11.042  0.8069 -0.0872  0.0420
 2039TIP3    H127608   0.220   5.253  11.021 -0.3401  0.1128 -0.4329
 2039TIP3    H227609   0.223   5.113  10.964  0.5080 -0.0001 -0.1178
 2040TIP3   OH227610   0.636   6.037   0.240  0.4281 -0.5340 -0.4948
 2040TIP3    H127611   0.609   6.126   0.262 -0.3751 -1.0615  0.7829
 2040TIP3    H227612   0.601   6.022   0.152  0.4342  0.3557 -0.6496
 2041TIP3   OH227613   5.346   1.637  14.317 -0.6629 -0.2659 -0.1870
 2041TIP3    H127614   5.379   1.557  14.357 -1.8837 -0.8084 -0.2606
 2041TIP3    H227615   5.332   1.615  14.225 -1.6691 -0.1889 -0.0643
 2042TIP3   OH227616   5.609   3.080  11.362  0.6489  0.2380  0.0708
 2042TIP3    H127617   5.693   3.035  11.356  0.9733  0.0935  4.2937
 2042TIP3    H227618   5.632   3.172  11.375  0.1317  0.4502 -0.5342
 2043TIP3   OH227619   1.172   0.179   5.769 -0.0865 -0.4220 -0.3951
 2043TIP3    H127620   1.113   0.140   5.833 -0.0446 -0.0776 -0.1385
 2043TIP3    H227621   1.120   0.249   5.728  1.0768  2.0076  2.0641
 2044TIP3   OH227622   1.931   4.347  14.811 -0.2114  0.5550  0.1649
 2044TIP3    H127623   1.884   4.393  14.881 -2.3306 -1.5860  0.2094
 2044TIP3    H227624   1.892   4.381  14.730  0.6667  1.3774  0.0809
 2045TIP3   OH227625   0.213   0.359   3.135 -0.2645  0.1359 -0.7160
 2045TIP3    H127626   0.189   0.300   3.064 -0.3730  1.1547 -1.5319
 2045TIP3    H227627   0.223   0.445   3.093  0.5342  0.5698  0.3457
 2046TIP3   OH227628   2.486   3.197  12.022 -0.1260 -0.3129 -0.2135
 2046TIP3    H127629   2.419   3.137  12.052 -1.1714  0.6904 -0.5002
 2046TIP3    H227630   2.492   3.181  11.927 -1.4878  1.0841 -0.5447
 2047TIP3   OH227631   2.125   0.959  16.916 -0.4708  0.2456  0.0009
 2047TIP3    H127632   2.072   0.958  16.836  0.5196  1.5741 -0.6696
 2047TIP3    H227633   2.178   0.880  16.910  0.3997  0.9135 -1.1923
 2048TIP3   OH227634   4.099   0.086  12.539 -0.1709 -0.4181  0.0017
 2048TIP3    H127635   4.151   0.119  12.466  1.0070 -0.0561  0.9939
 2048TIP3    H227636   4.008   0.101  12.513  0.2765  0.8201 -0.8670
 2049TIP3   OH227637   5.751   5.315  11.547 -0.0263 -0.5739  0.6769
 2049TIP3    H127638   5.773   5.295  11.638  1.0924  2.4486  1.0975
 2049TIP3    H227639   5.835   5.326  11.503 -0.5782 -0.2906 -0.3414
 2050TIP3   OH227640   1.367   1.111  17.009 -0.5438 -0.0794 -0.1660
 2050TIP3    H127641   1.409   1.029  16.985  0.8190  0.6756 -0.4033
 2050TIP3    H227642   1.275   1.088  17.021 -0.5601 -1.2445 -2.2592
 2051TIP3   OH227643   2.138   6.176  15.912  0.1199 -0.5554  0.3548
 2051TIP3    H127644   2.069   6.190  15.847  0.1312 -0.1666  0.4285
 2051TIP3    H227645   2.124   6.244  15.978 -0.4067 -1.4649  1.2011
 2052TIP3   OH227646   3.915   2.201  16.322 -0.0057  0.5394 -0.4161
 2052TIP3    H127647   3.858   2.225  16.395  0.2122 -0.7534  0.1767
 2052TIP3    H227648   3.868   2.131  16.277  1.4018 -0.9857  0.4634
 2053TIP3   OH227649   5.150   2.382   5.279  0.1354  0.0909  0.2658
 2053TIP3    H127650   5.075   2.415   5.328  1.0530  1.5478  0.7244
 2053TIP3    H227651   5.131   2.404   5.188 -0.0337  0.3839  0.3701
 2054TIP3   OH227652   4.128   2.390   2.553  0.0002  0.0571 -0.0281
 2054TIP3    H127653   4.176   2.309   2.540 -0.9219 -0.2098 -1.9096
 2054TIP3    H227654   4.066   2.371   2.623 -0.3729 -0.9359 -0.6280
 2055TIP3   OH227655   2.626   5.912  12.693  0.5862 -0.1344 -0.0018
 2055TIP3    H127656   2.678   5.984  12.659  1.0672 -0.5456 -0.1499
 2055TIP3    H227657   2.685   5.836  12.690 -0.2826 -0.7879 -0.9589
 2056TIP3   OH227658   6.530   1.589  14.416  0.4194 -0.6325 -0.5541
 2056TIP3    H127659   6.586   1.661  14.387 -1.1921  1.1298  0.5849
 2056TIP3    H227660   6.502   1.547  14.334  0.3937  0.8132 -1.3268
 2057TIP3   OH227661   6.738   1.081   6.037  0.7230  0.1835  0.7280
 2057TIP3    H127662   6.700   1.164   6.009 -1.4839 -1.0364  0.0675
 2057TIP3    H227663   6.703   1.067   6.125  3.5260  1.4270  2.1107
 2058TIP3   OH227664   3.187   0.100  17.157  0.3324 -0.0083 -0.3976
 2058TIP3    H127665   3.126   0.078  17.087 -0.2313  2.5748 -0.7677
 2058TIP3    H227666   3.246   0.025  17.163 -0.9745 -1.1827 -2.1494
 2059TIP3   OH227667   6.472   4.404  13.685 -0.8299  0.4906  0.3716
 2059TIP3    H127668   6.389   4.370  13.718  0.5262 -1.4700  1.8972
 2059TIP3    H227669   6.538   4.348  13.725  1.3232  2.8870  0.2890
 2060TIP3   OH227670   6.261   1.847  11.446 -0.1833 -0.1455 -0.0390
 2060TIP3    H127671   6.235   1.767  11.490 -2.4342 -0.0383 -1.0685
 2060TIP3    H227672   6.334   1.822  11.389  0.5434 -0.9752  1.2526
 2061TIP3   OH227673   1.867   1.660   0.040  0.1814 -0.8719 -0.1002
 2061TIP3    H127674   1.958   1.685   0.054 -0.5647  1.2749  1.2608
 2061TIP3    H227675   1.861   1.642  -0.054  1.6394  0.6364 -0.5139
 2062TIP3   OH227676   0.254   6.213   1.226 -0.8361 -0.0194  0.4519
 2062TIP3    H127677   0.266   6.118   1.228 -0.3801 -0.0185 -1.4561
 2062TIP3    H227678   0.342   6.248   1.238 -0.9739  0.1539  0.9354
 2063TIP3   OH227679   4.281   6.073  16.322  0.4597 -0.0659  0.6449
 2063TIP3    H127680   4.351   6.012  16.302 -0.0797 -0.0760 -1.3015
 2063TIP3    H227681   4.265   6.119  16.239 -0.1166  1.6903  1.7087
 2064TIP3   OH227682   6.651   0.068   2.241 -0.2460  0.0109 -0.1961
 2064TIP3    H127683   6.744   0.051   2.223 -0.3591  1.1985 -2.0692
 2064TIP3    H227684   6.623   0.125   2.169 -2.1746  0.4931  0.9035
 2065TIP3   OH227685   5.006   3.706   5.465 -0.2410 -0.1770 -0.6198
 2065TIP3    H127686   5.095   3.713   5.431 -0.7175 -0.6147 -1.9877
 2065TIP3    H227687   4.987   3.612   5.467 -1.9168  0.0257 -3.7370
 2066TIP3   OH227688   3.540   5.768   5.740  0.1937 -0.5238  0.0918
 2066TIP3    H127689   3.634   5.785   5.731  0.1631 -0.7608 -0.7323
 2066TIP3    H227690   3.530   5.737   5.830  0.9892 -1.0014  0.0274
 2067TIP3   OH227691   0.892   1.867   4.760  0.0867  0.5257 -0.4877
 2067TIP3    H127692   0.830   1.879   4.833 -1.6825  1.8228 -2.1545
 2067TIP3    H227693   0.962   1.814   4.797 -0.3983  1.7702  2.3957
 2068TIP3   OH227694   0.381   5.616  11.126  0.4177 -0.1304  0.1335
 2068TIP3    H127695   0.438   5.682  11.088  1.3677 -0.5222  0.8627
 2068TIP3    H227696   0.298   5.661  11.141  0.6887  0.5728 -0.4728
 2069TIP3   OH227697   5.299   2.332   3.623 -0.1137  0.1970  0.0089
 2069TIP3    H127698   5.275   2.282   3.701  1.1014  0.6071  0.6561
 2069TIP3    H227699   5.299   2.268   3.552 -3.0512  0.1567 -0.0281
 2070TIP3   OH227700   5.263   2.268   4.725  0.4331 -0.2850  0.5613
 2070TIP3    H127701   5.214   2.282   4.644 -0.2494  0.4329  1.0827
 2070TIP3    H227702   5.304   2.353   4.742 -0.7415  0.0491  1.8140
 2071TIP3   OH227703   0.364   1.229  15.800  0.4687  0.4230 -0.1798
 2071TIP3    H127704   0.442   1.278  15.776  0.0655  1.9774  1.5360
 2071TIP3    H227705   0.319   1.285  15.863 -1.3555 -1.0274 -0.1395
 2072TIP3   OH227706   3.492   4.126   6.064  0.2358 -0.0731 -0.1539
 2072TIP3    H127707   3.495   4.045   6.115  1.1627 -0.4446 -0.7742
 2072TIP3    H227708   3.566   4.119   6.003 -0.2962  0.7651 -0.9231
 2073TIP3   OH227709   4.114   2.390   3.645 -0.1652 -0.2355  0.3103
 2073TIP3    H127710   4.033   2.351   3.680  0.3436 -1.8634 -0.2583
 2073TIP3    H227711   4.158   2.317   3.601  1.9592  0.4753  1.1918
 2074TIP3   OH227712   5.709   0.798   3.504 -0.2543 -0.2911  0.3154
 2074TIP3    H127713   5.730   0.710   3.536 -0.7195 -0.3092  0.5767
 2074TIP3    H227714   5.722   0.793   3.410  0.5095 -0.4144  0.4263
 2075TIP3   OH227715   5.158   1.991  15.140 -0.2146 -0.2834 -0.0281
 2075TIP3    H127716   5.187   2.051  15.071 -1.4332 -2.9621 -2.9928
 2075TIP3    H227717   5.088   2.038  15.185 -0.2969  1.0242 -1.4705
 2076TIP3   OH227718   1.285   3.500   0.798 -0.4292 -0.1341  0.6728
 2076TIP3    H127719   1.192   3.482   0.813  0.0108 -1.6217  1.7581
 2076TIP3    H227720   1.290   3.526   0.706 -2.1275  1.5350  1.0058
 2077TIP3   OH227721   2.747   4.200   3.643 -0.0816 -0.5659 -0.1259
 2077TIP3    H127722   2.691   4.276   3.661 -2.4871 -2.0246 -1.0819
 2077TIP3    H227723   2.727   4.139   3.714  0.4240 -1.0416 -0.3935
 2078TIP3   OH227724   5.198   0.548  14.336  1.0232 -0.0556 -0.3265
 2078TIP3    H127725   5.272   0.531  14.394 -0.3202 -2.7916  0.6792
 2078TIP3    H227726   5.218   0.501  14.256  0.8409  0.0660 -0.4461
 2079TIP3   OH227727   0.832   4.402   3.089 -0.7968  0.2676  0.4529
 2079TIP3    H127728   0.830   4.398   3.184 -1.1470  2.4911  0.5620
 2079TIP3    H227729   0.924   4.391   3.066 -0.5694  0.7363  1.1179
 2080TIP3   OH227730   2.125   6.817   0.768 -0.2568  0.9668 -0.5296
 2080TIP3    H127731   2.123   6.893   0.710 -3.1511  0.2980 -1.3640
 2080TIP3    H227732   2.165   6.748   0.715 -2.9415  0.3393 -1.8570
 2081TIP3   OH227733   4.004   5.667  11.769 -0.5023  0.0044 -0.2677
 2081TIP3    H127734   3.993   5.611  11.846 -2.1210  1.2372  0.4269
 2081TIP3    H227735   4.066   5.620  11.714 -2.2945 -2.7608 -0.0153
 2082TIP3   OH227736   6.712   4.402   0.604 -0.8438  0.5312  0.1383
 2082TIP3    H127737   6.681   4.455   0.677  0.9332  0.7900  0.7352
 2082TIP3    H227738   6.634   4.355   0.573 -1.3279 -0.9088  3.3112
 2083TIP3   OH227739   6.191   4.339  16.213  0.2396  0.0200 -0.3544
 2083TIP3    H127740   6.143   4.273  16.262 -0.3152  0.2346 -0.6143
 2083TIP3    H227741   6.283   4.321  16.233 -0.0327  0.9627  1.8554
 2084TIP3   OH227742   4.584   1.058   3.037 -0.5141  0.0512  0.1394
 2084TIP3    H127743   4.674   1.072   3.010 -0.6191  0.7802  0.1497
 2084TIP3    H227744   4.537   1.040   2.956 -0.2179 -1.0926  0.2231
 2085TIP3   OH227745   2.757   1.332  16.257 -0.0188 -0.2224 -0.1260
 2085TIP3    H127746   2.839   1.310  16.214 -0.3017 -1.5390 -0.0306
 2085TIP3    H227747   2.760   1.427  16.270  0.3363  0.1185 -2.4718
 2086TIP3   OH227748   6.380   5.237   0.988 -0.1082  0.2299  0.1511
 2086TIP3    H127749   6.366   5.186   1.067 -0.6823 -2.1455 -1.4296
 2086TIP3    H227750   6.432   5.180   0.931  1.4017  2.3882 -0.6951
 2087TIP3   OH227751   2.034   6.411  16.034  1.0078  0.1831 -0.1250
 2087TIP3    H127752   2.036   6.398  15.939  0.4405 -2.7507  0.2176
 2087TIP3    H227753   1.973   6.483  16.048  0.9871  0.5366 -1.9807
 2088TIP3   OH227754   5.013   5.301  13.795  0.2452  0.4697 -0.2973
 2088TIP3    H127755   5.094   5.272  13.753  0.8579  0.9278  0.5573
 2088TIP3    H227756   5.040   5.373  13.852 -0.9175  1.2657 -0.7276
 2089TIP3   OH227757   3.692   6.371   2.465  0.0209  0.2295 -0.1745
 2089TIP3    H127758   3.624   6.390   2.400 -0.5118  0.7075  0.5140
 2089TIP3    H227759   3.651   6.393   2.549  0.0032 -2.2709  0.4935
 2090TIP3   OH227760   3.425   0.500  15.982  0.3578  0.4664 -0.3000
 2090TIP3    H127761   3.501   0.449  16.009 -0.3449 -0.2863  0.2881
 2090TIP3    H227762   3.415   0.566  16.052 -1.9005 -1.9421  1.7428
 2091TIP3   OH227763   6.107   3.043  12.323  0.0070  0.1756 -0.7998
 2091TIP3    H127764   6.120   2.950  12.345 -0.0598  0.1942 -0.6794
 2091TIP3    H227765   6.195   3.081  12.329  0.2131 -0.1073 -1.9460
 2092TIP3   OH227766   5.519   1.861   0.501  0.7526 -0.2336 -0.3224
 2092TIP3    H127767   5.606   1.888   0.473  0.2589 -0.1172 -1.7983
 2092TIP3    H227768   5.508   1.772   0.468  0.3687 -0.2916 -0.0484
 2093TIP3   OH227769   1.861   2.336   6.273 -0.2104 -0.0545 -0.2412
 2093TIP3    H127770   1.889   2.261   6.326  2.2785  0.7950 -0.3147
 2093TIP3    H227771   1.835   2.298   6.189 -0.2328 -0.9555  0.1619
 2094TIP3   OH227772   5.535   5.018  15.766 -0.1694  0.0693  0.2263
 2094TIP3    H127773   5.487   5.091  15.726  1.6475  0.7066 -0.8576
 2094TIP3    H227774   5.487   4.940  15.738 -1.3944  0.7613  0.3422
 2095TIP3   OH227775   4.237   1.545  12.646  0.3666 -0.0676 -0.7602
 2095TIP3    H127776   4.258   1.484  12.574 -0.9077 -0.4069 -0.8508
 2095TIP3    H227777   4.318   1.551  12.696  0.7596 -1.1907 -1.2426
 2096TIP3   OH227778   2.748   1.880  12.701  0.4093  0.0191  0.8967
 2096TIP3    H127779   2.753   1.785  12.710  0.9546  0.2435  3.1405
 2096TIP3    H227780   2.839   1.908  12.692  0.2719  0.3700  0.5696
 2097TIP3   OH227781   1.544   3.382  11.650  0.1617  0.5211 -0.2497
 2097TIP3    H127782   1.461   3.362  11.694 -0.2281  1.1840 -0.6663
 2097TIP3    H227783   1.606   3.396  11.721  0.5035 -2.3217  0.0588
 2098TIP3   OH227784   5.903   3.795   0.183  0.2533 -0.5125 -0.1945
 2098TIP3    H127785   5.972   3.831   0.127  1.9265 -2.3874  0.5992
 2098TIP3    H227786   5.893   3.705   0.154  0.2733 -1.1522  1.7045
 2099TIP3   OH227787   4.135   6.147   5.011 -0.7651  0.1245  0.0917
 2099TIP3    H127788   4.153   6.215   5.076 -0.7010 -0.5425  0.7877
 2099TIP3    H227789   4.144   6.191   4.926  0.1205  0.7700  0.5164
 2100TIP3   OH227790   4.550   1.811   1.074  0.0785 -0.5614  0.2944
 2100TIP3    H127791   4.526   1.804   0.982 -2.2328  1.4764  0.7068
 2100TIP3    H227792   4.486   1.871   1.111  4.0912  2.7771  2.1301
 2101TIP3   OH227793   2.381   0.997   4.305 -0.2888 -0.4387  0.0355
 2101TIP3    H127794   2.364   0.921   4.361  1.1104 -1.7115 -1.2046
 2101TIP3    H227795   2.467   0.979   4.266 -0.7742  0.8882 -1.7163
 2102TIP3   OH227796   4.923   2.573   5.799  0.5101 -0.6566 -0.0488
 2102TIP3    H127797   4.935   2.667   5.800 -0.6308 -0.4948 -0.7423
 2102TIP3    H227798   4.892   2.551   5.887  0.1887 -0.3108 -0.0767
 2103TIP3   OH227799   4.388   2.778   0.630 -0.1093  0.4893  0.3610
 2103TIP3    H127800   4.307   2.797   0.678  0.0135 -0.3135  0.8907
 2103TIP3    H227801   4.366   2.798   0.539 -1.7573 -2.1724  0.0987
 2104TIP3   OH227802   6.434   1.600  17.045  0.7859  0.0061 -0.2357
 2104TIP3    H127803   6.415   1.650  17.124  0.9254  2.5676 -1.7537
 2104TIP3    H227804   6.348   1.578  17.009  0.7234 -1.0687  0.5524
 2105TIP3   OH227805   5.749   4.831  16.446  0.3218  0.0266 -1.1237
 2105TIP3    H127806   5.699   4.909  16.473  0.3515  0.5680 -2.5687
 2105TIP3    H227807   5.684   4.761  16.444  0.2327  0.0716 -0.1023
 2106TIP3   OH227808   1.452   1.318  12.623 -0.0422  0.1084 -0.8943
 2106TIP3    H127809   1.466   1.239  12.572  0.7450 -0.8835  0.7833
 2106TIP3    H227810   1.361   1.313  12.653  0.6858 -1.4500  1.2287
 2107TIP3   OH227811   4.841   0.924   4.242  0.2784 -0.0225 -0.0808
 2107TIP3    H127812   4.884   0.892   4.163 -1.1956 -0.6231 -0.6692
 2107TIP3    H227813   4.758   0.877   4.244 -0.1241  0.7203  1.3041
 2108TIP3   OH227814   2.551   4.622   1.937  0.0748  0.1383  0.4747
 2108TIP3    H127815   2.499   4.549   1.971 -1.2644  1.2546  0.9008
 2108TIP3    H227816   2.606   4.583   1.869 -1.2335 -1.1087  0.1044
 2109TIP3   OH227817   4.718   3.501   2.681 -0.3300 -0.3884 -0.1706
 2109TIP3    H127818   4.719   3.595   2.664  0.4731 -0.2531  0.5676
 2109TIP3    H227819   4.752   3.462   2.601  2.3199  0.1602  0.6305
 2110TIP3   OH227820   6.285   4.072  12.092 -0.4179 -0.3851  0.4942
 2110TIP3    H127821   6.311   4.161  12.071 -0.0499 -0.1076  2.0685
 2110TIP3    H227822   6.364   4.031  12.127 -0.8451 -1.0060  0.7397
 2111TIP3   OH227823   3.137   1.258   3.775 -0.3568  0.1697  0.4076
 2111TIP3    H127824   3.174   1.290   3.693 -0.2232 -0.6081  0.1636
 2111TIP3    H227825   3.174   1.316   3.842  1.0351 -0.3798  0.1281
 2112TIP3   OH227826   2.051   0.078  13.199 -0.0952 -0.1467 -0.7083
 2112TIP3    H127827   2.124   0.134  13.225 -0.1445 -0.2138 -0.4135
 2112TIP3    H227828   2.007   0.126  13.129 -0.4996  0.4746 -0.0428
 2113TIP3   OH227829   3.824   3.492  17.260 -0.1241  0.2791  0.3825
 2113TIP3    H127830   3.904   3.479  17.311  0.2082 -0.7720 -0.4042
 2113TIP3    H227831   3.756   3.445  17.309 -0.2027  0.8866  0.8676
 2114TIP3   OH227832   4.420   1.152   2.227 -0.1668 -0.0083  0.0340
 2114TIP3    H127833   4.373   1.233   2.245 -1.6537 -0.5356 -1.3932
 2114TIP3    H227834   4.478   1.174   2.155 -2.0221 -0.7147 -1.7063
 2115TIP3   OH227835   5.558   2.479  16.394 -0.4755  0.2476  0.2492
 2115TIP3    H127836   5.524   2.408  16.448 -1.8078  2.3666  2.2544
 2115TIP3    H227837   5.487   2.500  16.333 -1.1642  1.7279  1.5353
 2116TIP3   OH227838   1.274   3.785  13.254  0.0876  0.3872  0.2531
 2116TIP3    H127839   1.224   3.727  13.312  0.4714  1.2383  1.4461
 2116TIP3    H227840   1.306   3.727  13.185 -0.1301 -0.6964  1.0471
 2117TIP3   OH227841   4.674   1.495  13.599  0.5830 -0.1051 -0.4892
 2117TIP3    H127842   4.763   1.529  13.607  0.3695  0.4738 -0.5356
 2117TIP3    H227843   4.681   1.425  13.534  1.0192 -0.1102 -0.4370
 2118TIP3   OH227844   1.129   5.242  16.773 -0.2844 -0.3158 -0.0333
 2118TIP3    H127845   1.212   5.200  16.795 -0.3549 -0.4719 -0.0643
 2118TIP3    H227846   1.065   5.171  16.777 -0.0590 -0.6671 -2.2383
 2119TIP3   OH227847   4.880   0.286   0.741  0.5740  0.0269 -0.6775
 2119TIP3    H127848   4.832   0.335   0.808  1.7776 -0.2357  0.3958
 2119TIP3    H227849   4.812   0.256   0.681 -0.4253  1.0915 -0.1115
 2120TIP3   OH227850   1.745   2.176   4.636 -0.5250 -0.6155 -0.2045
 2120TIP3    H127851   1.738   2.221   4.552  1.2456 -0.2834 -0.1985
 2120TIP3    H227852   1.679   2.107   4.633 -0.3123 -0.7534 -1.9595
 2121TIP3   OH227853   3.132   6.045   4.449 -0.9015 -0.0625 -0.3670
 2121TIP3    H127854   3.072   6.119   4.445  2.4198  2.8288  0.5233
 2121TIP3    H227855   3.118   6.008   4.536  1.1716  2.9791  1.3549
 2122TIP3   OH227856   2.349   1.951   1.648 -0.1175 -0.1424 -0.3312
 2122TIP3    H127857   2.352   2.046   1.641 -0.8645 -0.2355 -2.1114
 2122TIP3    H227858   2.437   1.926   1.678  0.3735  1.0264 -0.7931
 2123TIP3   OH227859   1.174   3.697   5.219  0.4177  0.6424  0.2173
 2123TIP3    H127860   1.099   3.638   5.213  2.1206 -1.7888  1.9333
 2123TIP3    H227861   1.161   3.744   5.302  0.8500  0.1167  0.5857
 2124TIP3   OH227862   1.891   3.706  12.258 -0.0509  0.2332  0.5095
 2124TIP3    H127863   1.807   3.711  12.213 -0.1416  1.1116  0.7669
 2124TIP3    H227864   1.940   3.639  12.210 -0.6735  0.1473 -0.0102
 2125TIP3   OH227865   0.372   3.137   2.997  0.0805 -0.6257 -0.0600
 2125TIP3    H127866   0.462   3.159   3.022 -0.0744  1.0671 -0.9240
 2125TIP3    H227867   0.382   3.070   2.930  0.7633  0.3783 -0.9865
 2126TIP3   OH227868   4.970   3.912   2.874 -0.2591  0.4226  0.1146
 2126TIP3    H127869   4.890   3.963   2.883  0.0805  0.7940  1.0571
 2126TIP3    H227870   4.940   3.824   2.851 -0.8835  0.8280 -0.6198
 2127TIP3   OH227871   4.681   3.061  13.596 -0.4658 -0.3158 -0.4944
 2127TIP3    H127872   4.592   3.097  13.594 -0.2290  0.5180  1.8906
 2127TIP3    H227873   4.676   2.988  13.658  0.9937  1.2345  1.5152
 2128TIP3   OH227874   5.743   5.661  16.983  0.2704  0.0472 -0.2538
 2128TIP3    H127875   5.765   5.753  16.967 -1.4949  0.9706  2.3338
 2128TIP3    H227876   5.699   5.633  16.903 -0.6358  1.9447 -0.4412
 2129TIP3   OH227877   5.958   3.671   2.641  0.0376  0.7395  0.3302
 2129TIP3    H127878   5.920   3.623   2.567 -0.0996 -0.8340  1.3793
 2129TIP3    H227879   6.052   3.664   2.628  0.0212  0.0143  0.5638
 2130TIP3   OH227880   5.803   0.399  15.033  0.1433  0.5421  0.4519
 2130TIP3    H127881   5.856   0.474  15.007 -0.6031  1.2981  1.0960
 2130TIP3    H227882   5.816   0.335  14.963 -1.2343  2.2419 -1.3836
 2131TIP3   OH227883   1.642   4.694  14.029 -0.1822 -0.2467  0.6404
 2131TIP3    H127884   1.647   4.784  13.996 -0.1601 -0.6396 -0.4529
 2131TIP3    H227885   1.617   4.642  13.952 -1.6602 -0.9694  1.5831
 2132TIP3   OH227886   2.320   1.895   3.353 -0.4840  0.1128 -0.1587
 2132TIP3    H127887   2.330   1.861   3.264  0.8140  0.0779 -0.0066
 2132TIP3    H227888   2.370   1.835   3.407 -0.7242  0.5152  0.5118
 2133TIP3   OH227889   2.703   5.721   1.132  0.3017 -0.1239  0.2856
 2133TIP3    H127890   2.702   5.625   1.122  1.4908 -0.3075  1.8396
 2133TIP3    H227891   2.733   5.753   1.047 -0.0576 -1.1174 -0.2287
 2134TIP3   OH227892   4.444   6.383   1.805  0.0568 -0.0337 -0.0888
 2134TIP3    H127893   4.427   6.463   1.756  0.1008 -1.4459 -2.5081
 2134TIP3    H227894   4.537   6.366   1.792 -0.2010 -1.1139 -0.6648
 2135TIP3   OH227895   3.172   2.592   5.288  0.5830 -0.1515 -0.2746
 2135TIP3    H127896   3.251   2.564   5.241  0.1002 -1.1957 -0.4761
 2135TIP3    H227897   3.165   2.529   5.360 -0.9279 -0.9973 -1.1482
 2136TIP3   OH227898   2.377   2.089   2.567  0.1672 -0.0358 -0.2205
 2136TIP3    H127899   2.304   2.038   2.602 -0.6329  0.5927 -0.9479
 2136TIP3    H227900   2.409   2.140   2.641 -0.5618  0.1899 -0.0600
 2137TIP3   OH227901   2.465   3.807  13.814 -0.4827 -0.7354 -0.0526
 2137TIP3    H127902   2.425   3.770  13.893  0.5148 -1.4623  0.1293
 2137TIP3    H227903   2.549   3.761  13.807 -0.7591 -1.0119 -1.7809
 2138TIP3   OH227904   5.187   2.962  11.212  0.2608 -0.2275  0.1329
 2138TIP3    H127905   5.097   2.944  11.239 -0.2221 -0.2223 -1.3981
 2138TIP3    H227906   5.218   2.879  11.176  0.8104 -0.1870  0.5135
 2139TIP3   OH227907   6.560   2.389  15.556 -0.9040 -0.3085  0.0780
 2139TIP3    H127908   6.631   2.405  15.494  1.1302 -0.8466  2.2052
 2139TIP3    H227909   6.536   2.297  15.542 -1.9627  0.1492 -1.3559
 2140TIP3   OH227910   5.122   4.450   5.005 -0.1336  0.9672 -0.1442
 2140TIP3    H127911   5.062   4.524   4.997 -1.3352 -0.0067 -0.2457
 2140TIP3    H227912   5.105   4.397   4.927 -0.4594 -0.2718  0.7545
 2141TIP3   OH227913   4.544   0.160   5.681  0.3059  0.1982  0.6411
 2141TIP3    H127914   4.501   0.082   5.717  0.4958 -0.2542 -0.1150
 2141TIP3    H227915   4.622   0.171   5.736  0.5454 -0.4365  0.4397
 2142TIP3   OH227916   0.129   4.057  12.262 -0.2756 -0.6316  0.5416
 2142TIP3    H127917   0.061   4.106  12.309 -1.4564 -0.5967 -1.1534
 2142TIP3    H227918   0.205   4.059  12.320 -1.5633 -0.2251  2.2437
 2143TIP3   OH227919   1.715   3.630   4.338 -0.4804 -0.6875 -0.4023
 2143TIP3    H127920   1.710   3.725   4.330 -1.1821 -0.7673 -0.9582
 2143TIP3    H227921   1.780   3.604   4.273 -1.1733 -0.6908 -1.1095
 2144TIP3   OH227922   4.688   1.942   1.380  0.8824  0.6227 -0.3919
 2144TIP3    H127923   4.784   1.947   1.379  0.9562  0.3027  2.3702
 2144TIP3    H227924   4.669   1.865   1.434 -0.9372 -0.0212 -1.9045
 2145TIP3   OH227925   5.320   0.632  14.848 -0.1766  0.0813 -0.2004
 2145TIP3    H127926   5.337   0.539  14.861 -2.3848 -0.4167 -0.5300
 2145TIP3    H227927   5.304   0.666  14.937  0.1478  0.0316 -0.1253
 2146TIP3   OH227928   2.326   2.112   6.913 -0.1681  0.3841  0.5747
 2146TIP3    H127929   2.247   2.080   6.870  0.4003  1.0415 -1.0246
 2146TIP3    H227930   2.389   2.041   6.903  0.1604  0.7871 -0.2656
 2147TIP3   OH227931   3.540   0.279  16.128  0.4604  0.4501 -0.2203
 2147TIP3    H127932   3.628   0.258  16.158  0.0304 -0.0246  0.7603
 2147TIP3    H227933   3.484   0.213  16.170 -0.7446  2.5998  1.7235
 2148TIP3   OH227934   3.878   0.360   4.826  0.4358 -0.6800 -0.3615
 2148TIP3    H127935   3.833   0.280   4.801  0.1057 -0.0659 -1.7356
 2148TIP3    H227936   3.917   0.340   4.911  0.7212 -2.4425 -0.9045
 2149TIP3   OH227937   6.219   1.324  15.967 -0.2925 -0.4220  0.4573
 2149TIP3    H127938   6.180   1.408  15.990 -2.9145 -0.8379 -2.3270
 2149TIP3    H227939   6.301   1.347  15.922  0.1772  0.5382  1.7579
 2150TIP3   OH227940   6.576   1.878   1.587  0.7892  0.1311 -0.1441
 2150TIP3    H127941   6.608   1.876   1.497 -0.2296  0.3544 -0.5152
 2150TIP3    H227942   6.492   1.832   1.583  0.5493  0.5067  0.6187
 2151TIP3   OH227943   2.673   4.874  14.602  0.5126  0.1481 -0.4719
 2151TIP3    H127944   2.663   4.833  14.516  0.3929 -1.5372  0.3056
 2151TIP3    H227945   2.757   4.842  14.634  1.1080  1.7202 -0.4514
 2152TIP3   OH227946   0.910   0.967  14.875  0.1820  0.0904  0.4936
 2152TIP3    H127947   0.815   0.972  14.883  0.2419 -0.4176  1.5016
 2152TIP3    H227948   0.931   1.030  14.805 -0.8571  0.4385  0.4880
 2153TIP3   OH227949   5.544   6.304  11.380 -0.6039 -0.7003 -0.0438
 2153TIP3    H127950   5.600   6.299  11.303 -2.3021  0.2961 -1.3733
 2153TIP3    H227951   5.532   6.397  11.395 -0.9477 -0.8993  0.9428
 2154TIP3   OH227952   5.545   1.643   4.815 -0.3608 -0.3775 -0.0185
 2154TIP3    H127953   5.499   1.559   4.821 -3.6967  1.3666  0.2460
 2154TIP3    H227954   5.553   1.659   4.721  0.8237 -1.2710 -0.0704
 2155TIP3   OH227955   6.796   6.024  11.425  0.0667  0.2172 -0.1247
 2155TIP3    H127956   6.793   6.114  11.458  0.8531 -0.6392  2.4585
 2155TIP3    H227957   6.722   5.981  11.468  0.0630 -0.5125 -0.8684
 2156TIP3   OH227958   5.771   0.859  16.872  0.1889 -0.0026 -0.2437
 2156TIP3    H127959   5.726   0.775  16.864  0.6751 -0.5306  2.1373
 2156TIP3    H227960   5.700   0.924  16.874 -0.3565 -0.6216  0.9803
 2157TIP3   OH227961   0.840   2.096  10.923  0.0043 -0.1528 -0.1508
 2157TIP3    H127962   0.836   2.167  10.859  0.8381  1.4671  1.5534
 2157TIP3    H227963   0.893   2.029  10.881 -0.4126  0.4026 -1.6048
 2158TIP3   OH227964   6.121   0.683   2.700 -0.0393  0.3847  0.0782
 2158TIP3    H127965   6.138   0.610   2.640  0.1834 -0.6744  1.3982
 2158TIP3    H227966   6.035   0.716   2.675 -0.1138 -0.2906 -0.5667
 2159TIP3   OH227967   2.985   6.730   4.080 -0.0934 -0.1065 -0.0438
 2159TIP3    H127968   2.911   6.683   4.117  0.5744 -0.0786  1.3722
 2159TIP3    H227969   2.948   6.811   4.045 -0.5373  0.5460  1.9039
 2160TIP3   OH227970   1.667   5.109   2.325 -0.5272 -0.5318 -0.3220
 2160TIP3    H127971   1.576   5.080   2.311 -0.4277 -1.1056  0.2093
 2160TIP3    H227972   1.715   5.029   2.345  0.1534 -0.2612 -0.8549
 2161TIP3   OH227973   4.605   5.636  14.802 -0.1416  1.0001  0.4964
 2161TIP3    H127974   4.592   5.552  14.846 -1.5945  1.0566  0.1763
 2161TIP3    H227975   4.641   5.612  14.717 -0.1150  0.7328  0.5794
 2162TIP3   OH227976   5.003   5.677  11.335 -0.6458  0.0182 -0.3107
 2162TIP3    H127977   4.921   5.628  11.335 -0.5040 -0.2189  0.6437
 2162TIP3    H227978   5.066   5.619  11.293 -0.8796  0.0588 -0.7220
 2163TIP3   OH227979   1.880   2.513   5.752 -0.4867  0.4465 -0.1050
 2163TIP3    H127980   1.955   2.489   5.697  1.2758 -0.5450  2.5920
 2163TIP3    H227981   1.832   2.578   5.701  1.5948  0.2751 -2.3815
 2164TIP3   OH227982   3.068   6.130  11.409 -0.1132  0.1289 -0.7449
 2164TIP3    H127983   3.002   6.160  11.346 -0.1370  0.5203 -0.5349
 2164TIP3    H227984   3.018   6.106  11.487  0.1234  1.9861  0.0039
 2165TIP3   OH227985   1.216   5.840  13.588  0.5002  0.2325  0.7104
 2165TIP3    H127986   1.135   5.794  13.607 -0.2064  0.6303 -1.2968
 2165TIP3    H227987   1.233   5.892  13.667  0.6534 -2.4472  2.5176
 2166TIP3   OH227988   6.228   0.475  15.184  0.1344 -0.3200  0.2400
 2166TIP3    H127989   6.180   0.420  15.122  2.0341  0.5314 -2.0679
 2166TIP3    H227990   6.222   0.563  15.147  0.2525  0.4239  1.9502
 2167TIP3   OH227991   3.952   6.654  13.098  0.2966  0.3129 -0.0657
 2167TIP3    H127992   3.967   6.731  13.043  2.5371 -1.5688 -2.2502
 2167TIP3    H227993   4.035   6.642  13.145 -0.1124 -0.5952  0.4269
 2168TIP3   OH227994   1.736   5.060  11.980 -0.3835  0.3174  0.5445
 2168TIP3    H127995   1.660   5.068  11.922 -0.1925 -1.7723 -0.0197
 2168TIP3    H227996   1.728   4.973  12.018  2.7066 -0.6561 -0.9043
 2169TIP3   OH227997   2.599   3.016   3.139 -0.4606 -0.0199 -0.6382
 2169TIP3    H127998   2.531   3.021   3.073 -1.7051  0.9700  0.6793
 2169TIP3    H227999   2.578   2.938   3.191  0.9552 -1.2388 -1.8566
 2170TIP3   OH228000   0.421   1.166  11.261 -0.1056 -0.2060  0.3434
 2170TIP3    H128001   0.445   1.243  11.311 -0.1059  0.4733 -0.6952
 2170TIP3    H228002   0.495   1.151  11.202  0.3314 -1.5837  1.2107
 2171TIP3   OH228003   0.703   6.125  14.036 -0.5078 -0.1990  0.4846
 2171TIP3    H128004   0.642   6.101  14.106 -2.0661  0.5927 -0.5619
 2171TIP3    H228005   0.754   6.196  14.072 -0.3159 -0.7647  1.3280
 2172TIP3   OH228006   2.505   2.806   1.560  0.2753 -0.3146 -0.2640
 2172TIP3    H128007   2.512   2.739   1.628  0.9475 -0.4106 -0.4257
 2172TIP3    H228008   2.414   2.800   1.529  0.2845 -1.0193 -0.1469
 2173TIP3   OH228009   6.683   4.630  12.577 -0.3836  0.7283  0.3398
 2173TIP3    H128010   6.769   4.648  12.539 -0.7102  1.7249  0.0754
 2173TIP3    H228011   6.655   4.713  12.614 -1.1793  0.3706  0.5533
 2174TIP3   OH228012   3.382   4.294   3.995 -0.2890  0.5962  0.0129
 2174TIP3    H128013   3.460   4.314   3.943  0.9017  0.1209  1.5642
 2174TIP3    H228014   3.361   4.204   3.972 -2.0628  1.6038 -2.4773
 2175TIP3   OH228015   0.975   2.773  14.226  0.4576  0.2408 -0.1147
 2175TIP3    H128016   0.964   2.679  14.240 -0.9781  0.5917  1.3682
 2175TIP3    H228017   0.911   2.795  14.159  2.6245 -0.2604 -2.4275
 2176TIP3   OH228018   3.199   6.415  15.079 -0.4579  0.2012  0.5267
 2176TIP3    H128019   3.144   6.491  15.066 -0.6352  0.2103  1.2836
 2176TIP3    H228020   3.265   6.420  15.010 -0.9453  0.6020  0.0883
 2177TIP3   OH228021   6.420   0.688  16.291 -0.2128 -0.3781 -0.4029
 2177TIP3    H128022   6.418   0.594  16.308 -0.2918 -0.5745 -1.4604
 2177TIP3    H228023   6.342   0.723  16.336 -1.5237 -1.1716 -2.0331
 2178TIP3   OH228024   1.610   2.355   5.602  0.0662  0.0187 -0.2032
 2178TIP3    H128025   1.603   2.441   5.562 -0.1854 -0.4820 -1.2573
 2178TIP3    H228026   1.704   2.345   5.620 -0.0952  1.1507  1.4017
 2179TIP3   OH228027   5.470   6.062   2.836  0.6421  0.8047  0.4840
 2179TIP3    H128028   5.562   6.037   2.828  0.6060  0.6415  0.5711
 2179TIP3    H228029   5.471   6.155   2.860  0.7844  0.7798  0.5681
 2180TIP3   OH228030   1.694   4.427  14.129 -0.2825 -0.5965  0.2283
 2180TIP3    H128031   1.628   4.361  14.148 -0.7203 -0.7751 -1.7672
 2180TIP3    H228032   1.647   4.510  14.133 -0.1994 -0.5745  0.7062
 2181TIP3   OH228033   0.610   5.076   4.200  0.3234  0.2648 -0.1898
 2181TIP3    H128034   0.602   4.990   4.239  1.0761 -0.8300 -2.3577
 2181TIP3    H228035   0.524   5.095   4.163  0.6039 -0.3114 -1.1655
 2182TIP3   OH228036   4.575   0.444   3.887 -0.2887  0.9963  0.2916
 2182TIP3    H128037   4.647   0.449   3.950  0.0030 -1.3271  0.1878
 2182TIP3    H228038   4.617   0.450   3.802 -0.3175  0.5711  0.2483
 2183TIP3   OH228039   5.542   3.622  15.763  0.3404 -0.5592  0.3331
 2183TIP3    H128040   5.634   3.596  15.760  0.5950  0.2204  1.3124
 2183TIP3    H228041   5.537   3.685  15.834 -0.9189 -0.4437  0.1513
 2184TIP3   OH228042   0.579   5.268   6.152  0.0639 -0.0173 -0.4477
 2184TIP3    H128043   0.613   5.326   6.084 -2.2112  2.1962  0.2299
 2184TIP3    H228044   0.545   5.327   6.219 -2.5653 -2.1283  0.1420
 2185TIP3   OH228045   6.804   1.901   3.294 -1.1944 -0.0773 -0.6665
 2185TIP3    H128046   6.750   1.931   3.367 -0.9634  0.2354 -0.6257
 2185TIP3    H228047   6.799   1.971   3.230 -2.0964 -0.7279 -1.3146
 2186TIP3   OH228048   3.807   2.283   0.246  0.2065  0.6058  0.4805
 2186TIP3    H128049   3.729   2.329   0.215 -0.7563 -1.6607 -0.5368
 2186TIP3    H228050   3.878   2.346   0.234 -1.2081  2.1325 -0.0467
 2187TIP3   OH228051   0.595   2.735   2.647 -0.0245  0.0329  0.0992
 2187TIP3    H128052   0.619   2.786   2.724 -0.0611 -1.1949  0.9476
 2187TIP3    H228053   0.655   2.661   2.648  2.6297  2.0169 -3.3093
 2188TIP3   OH228054   4.773   2.915   1.756  0.0437  0.0100  1.1089
 2188TIP3    H128055   4.712   2.865   1.809  0.1517 -0.1523  1.0817
 2188TIP3    H228056   4.842   2.943   1.817  0.9048 -1.3764  0.7896
 2189TIP3   OH228057   4.427   1.644   0.209 -1.2218 -0.0842 -0.4057
 2189TIP3    H128058   4.403   1.580   0.277  1.3080 -1.5650 -0.8226
 2189TIP3    H228059   4.401   1.728   0.245 -1.2382 -0.9983  1.7982
 2190TIP3   OH228060   6.732   2.908  10.838 -0.9461  0.3904 -0.9928
 2190TIP3    H128061   6.748   2.814  10.828 -2.1042  0.1642 -0.7491
 2190TIP3    H228062   6.667   2.929  10.772 -1.6720  0.7523 -0.1781
 2191TIP3   OH228063   0.330   4.816   6.649  0.3453 -0.0743  0.2155
 2191TIP3    H128064   0.276   4.820   6.571 -0.8533 -0.2887  1.0184
 2191TIP3    H228065   0.334   4.722   6.671 -1.3645  0.1779  1.7804
 2192TIP3   OH228066   6.743   0.615  13.701  0.5685 -0.2861  0.2832
 2192TIP3    H128067   6.727   0.596  13.609 -2.8898 -2.8478  1.3102
 2192TIP3    H228068   6.808   0.550  13.728  1.4960  0.3927 -0.2817
 2193TIP3   OH228069   1.234   3.032   3.486  0.8418 -0.1694 -0.0937
 2193TIP3    H128070   1.222   3.056   3.578 -2.9091 -1.1412 -0.2754
 2193TIP3    H228071   1.236   2.937   3.486  0.6738 -0.1790 -1.0553
 2194TIP3   OH228072   6.212   1.163  15.526 -0.0812 -0.3570  0.1826
 2194TIP3    H128073   6.228   1.238  15.469 -0.9844  0.6519  1.2253
 2194TIP3    H228074   6.138   1.190  15.580  0.3563 -1.5400  1.3946
 2195TIP3   OH228075   2.624   1.214   4.080  0.6725  0.2459 -0.3125
 2195TIP3    H128076   2.635   1.189   3.988  0.4558  0.5964 -0.4366
 2195TIP3    H228077   2.707   1.258   4.102 -0.2236  2.4197 -1.0939
 2196TIP3   OH228078   5.737   0.185  12.206 -0.1649 -0.3974 -0.0447
 2196TIP3    H128079   5.733   0.209  12.299  0.0702 -0.7178  0.0478
 2196TIP3    H228080   5.825   0.150  12.194 -0.5581 -1.3779 -0.1326
 2197TIP3   OH228081   5.701   1.307   5.472 -0.0225  0.1329 -0.2361
 2197TIP3    H128082   5.795   1.313   5.453 -0.1053  0.5893 -0.5078
 2197TIP3    H228083   5.658   1.348   5.396 -0.3428  2.2514  1.0615
 2198TIP3   OH228084   4.362   2.193   0.358  0.4262  0.2280 -0.9868
 2198TIP3    H128085   4.295   2.261   0.359 -0.7855 -0.9344 -1.2263
 2198TIP3    H228086   4.417   2.213   0.434 -1.0069  0.4214  0.0209
 2199TIP3   OH228087   3.336   2.422  16.145  0.4130 -0.0846 -0.0208
 2199TIP3    H128088   3.360   2.496  16.089 -2.0093 -0.6878 -1.9342
 2199TIP3    H228089   3.241   2.413  16.135  0.2322 -1.5782  2.5228
 2200TIP3   OH228090   3.579   6.192  14.576  0.4246 -0.9223 -0.4367
 2200TIP3    H128091   3.554   6.164  14.664 -0.1870  1.2463  0.1159
 2200TIP3    H228092   3.498   6.184  14.524 -0.0574  0.7703 -0.0032
 2201TIP3   OH228093   5.071   5.953   2.990 -0.3418 -0.1326 -0.2681
 2201TIP3    H128094   5.083   5.953   2.895 -0.8583  0.9368 -0.3449
 2201TIP3    H228095   5.023   5.873   3.009 -0.0932 -0.4295 -0.8895
 2202TIP3   OH228096   5.069   5.878  16.859 -0.1172  0.2045 -0.0398
 2202TIP3    H128097   5.093   5.899  16.769  0.1978 -0.7019 -0.1797
 2202TIP3    H228098   5.078   5.782  16.864 -0.5611  0.2062  0.8242
 2203TIP3   OH228099   1.440   4.585   0.462 -0.5415  0.4616  0.5191
 2203TIP3    H128100   1.363   4.529   0.451 -0.8367  1.0953 -0.7035
 2203TIP3    H228101   1.510   4.525   0.488 -0.9841 -0.4043 -0.2795
 2204TIP3   OH228102   5.579   5.950   3.711 -0.3049 -0.0034 -0.4492
 2204TIP3    H128103   5.638   5.879   3.736 -0.2731 -0.1961 -1.0607
 2204TIP3    H228104   5.525   5.964   3.788  0.3206 -0.0524 -0.0032
 2205TIP3   OH228105   0.386   1.690   3.744 -0.4285 -0.4486  0.5249
 2205TIP3    H128106   0.423   1.651   3.824 -1.3967 -0.3680  1.0234
 2205TIP3    H228107   0.374   1.782   3.766 -0.2820 -0.3355  0.1283
 2206TIP3   OH228108   2.371   2.453  13.019  0.1928  0.6537 -0.5899
 2206TIP3    H128109   2.352   2.375  13.071 -1.7639  0.8551 -0.9586
 2206TIP3    H228110   2.433   2.503  13.072 -0.4685  0.0407  0.7881
 2207TIP3   OH228111   5.948   2.400  14.536  0.1821 -0.6332 -0.2855
 2207TIP3    H128112   5.859   2.395  14.571  0.5239 -0.5618  0.5861
 2207TIP3    H228113   5.945   2.347  14.456 -0.7740 -0.2073 -0.5424
 2208TIP3   OH228114   2.183   1.866   0.832  0.8017  0.7446 -0.1857
 2208TIP3    H128115   2.094   1.890   0.860  1.1253  2.3507 -0.5308
 2208TIP3    H228116   2.224   1.833   0.912  0.3542  1.3393  0.3013
 2209TIP3   OH228117   0.721   5.173   6.684  0.7359  0.1350  0.2816
 2209TIP3    H128118   0.655   5.182   6.614 -0.5550  0.4640  1.5074
 2209TIP3    H228119   0.735   5.079   6.691  1.0022  0.1082 -0.5440
 2210TIP3   OH228120   0.097   6.568   3.529 -0.4646  0.3224  0.5315
 2210TIP3    H128121   0.024   6.626   3.505 -0.1603  0.8007  0.7348
 2210TIP3    H228122   0.105   6.579   3.624  2.1692  3.0625  0.0945
 2211TIP3   OH228123   1.055   4.305  14.149 -0.1491  0.0969  0.1259
 2211TIP3    H128124   1.002   4.228  14.168 -0.8238  0.3397 -0.7293
 2211TIP3    H228125   0.997   4.379  14.168  0.1875  0.3802  0.0602
 2212TIP3   OH228126   2.568   5.337  12.286  0.1083  0.1131  0.1624
 2212TIP3    H128127   2.637   5.362  12.224 -1.0237  0.3334 -1.0103
 2212TIP3    H228128   2.495   5.310  12.232 -0.2197 -1.6077  1.4205
 2213TIP3   OH228129   5.077   5.735   5.141 -0.1247 -0.4280 -0.4866
 2213TIP3    H128130   5.096   5.642   5.125 -1.0150 -0.4547 -1.4461
 2213TIP3    H228131   5.153   5.767   5.190  0.7001 -1.4005 -1.1084
 2214TIP3   OH228132   1.338   6.768   6.047 -0.5901 -0.3932  0.4658
 2214TIP3    H128133   1.325   6.738   5.957 -0.2015 -1.0630  0.6295
 2214TIP3    H228134   1.429   6.796   6.051 -1.4585  2.7284 -0.2213
 2215TIP3   OH228135   6.173   1.969   5.440 -1.3040 -0.0543 -0.7620
 2215TIP3    H128136   6.128   1.986   5.523 -0.3543  1.7495 -0.5863
 2215TIP3    H228137   6.149   1.879   5.417  1.5729 -2.0481  3.4630
 2216TIP3   OH228138   2.240   1.452   2.659 -0.4549 -0.3496 -0.7058
 2216TIP3    H128139   2.332   1.436   2.681 -0.2726 -0.3834 -1.4610
 2216TIP3    H228140   2.225   1.396   2.582 -2.0795 -3.0798  1.4838
 2217TIP3   OH228141   0.682   6.251  15.054  0.6868 -0.1154 -0.1654
 2217TIP3    H128142   0.748   6.253  15.123 -2.5747  2.1135  3.0888
 2217TIP3    H228143   0.690   6.336  15.010 -0.2452  0.3405  0.5240
 2218TIP3   OH228144   2.153   1.107  14.781  0.3517  0.0207  0.0797
 2218TIP3    H128145   2.103   1.088  14.861 -0.2960 -2.3102 -0.8214
 2218TIP3    H228146   2.147   1.202  14.771 -1.3195  0.1268  1.6735
 2219TIP3   OH228147   3.642   4.927  13.649  0.2173  0.4010  0.4326
 2219TIP3    H128148   3.629   5.019  13.671  0.3153  0.7213 -0.7871
 2219TIP3    H228149   3.567   4.905  13.593 -0.2476 -0.4953  1.3851
 2220TIP3   OH228150   3.155   2.141   5.740  0.0167  0.0689 -0.2894
 2220TIP3    H128151   3.165   2.159   5.834  1.6824 -0.5424 -0.3183
 2220TIP3    H228152   3.061   2.129   5.727 -0.1323 -0.7764  1.4737
 2221TIP3   OH228153   1.057   5.796   5.755 -0.0648  1.0115 -0.1505
 2221TIP3    H128154   1.078   5.704   5.773 -0.9011  0.7809 -0.3277
 2221TIP3    H228155   0.964   5.796   5.736  0.1116  1.7626 -1.0893
 2222TIP3   OH228156   6.455   5.723   3.359  0.6170 -0.6196  0.6211
 2222TIP3    H128157   6.424   5.638   3.326  1.7096 -0.6747 -0.2668
 2222TIP3    H228158   6.384   5.784   3.338 -0.0648 -1.2600  1.0403
 2223TIP3   OH228159   6.609   1.549   0.198  0.7198 -0.3648 -0.0110
 2223TIP3    H128160   6.588   1.629   0.247  0.9672  0.0442 -0.5706
 2223TIP3    H228161   6.524   1.508   0.184  0.4634  0.3908 -0.7264
 2224TIP3   OH228162   5.630   5.515   0.679 -0.0500 -0.2026  0.1861
 2224TIP3    H128163   5.628   5.503   0.584 -0.1256 -2.1022  0.4107
 2224TIP3    H228164   5.676   5.598   0.691  1.4263 -0.7462 -1.4528
 2225TIP3   OH228165   0.642   1.990  15.753  0.3508  0.3533  0.1840
 2225TIP3    H128166   0.568   1.985  15.815 -2.0593 -1.3436 -2.6839
 2225TIP3    H228167   0.609   2.044  15.682  2.6502  1.2644 -0.2125
 2226TIP3   OH228168   5.153   2.420  14.123  0.0565 -0.3453 -0.2260
 2226TIP3    H128169   5.239   2.459  14.108  0.0143 -0.1563  0.0041
 2226TIP3    H228170   5.124   2.458  14.206 -0.6377  0.2693 -0.7457
 2227TIP3   OH228171   2.970   3.722  11.478  0.2980 -0.1245 -0.1728
 2227TIP3    H128172   2.946   3.715  11.571  0.6649  0.1939 -0.0521
 2227TIP3    H228173   3.032   3.794  11.475 -0.3134  0.3843 -0.7850
 2228TIP3   OH228174   1.372   3.925   2.885 -0.6398 -0.5039  0.2747
 2228TIP3    H128175   1.314   3.902   2.957 -0.9597  0.2542  0.2643
 2228TIP3    H228176   1.394   3.841   2.844 -0.9870 -0.8761  0.8432
 2229TIP3   OH228177   2.667   3.273   0.887  0.2761  0.5797  0.2099
 2229TIP3    H128178   2.758   3.268   0.916  0.5334 -1.8252 -0.8201
 2229TIP3    H228179   2.617   3.290   0.967  1.5123  0.4975  1.0124
 2230TIP3   OH228180   5.267   0.957  15.778  0.3188  0.4895 -0.1407
 2230TIP3    H128181   5.289   0.984  15.689  0.6136 -0.8001 -0.4660
 2230TIP3    H228182   5.171   0.966  15.783  0.1834 -0.5100 -0.9489
 2231TIP3   OH228183   2.186   3.267  11.999  0.0335 -0.3108  0.1923
 2231TIP3    H128184   2.267   3.245  11.954  1.4258  0.7391  2.1061
 2231TIP3    H228185   2.129   3.192  11.984  1.2214 -0.9053 -1.4899
 2232TIP3   OH228186   5.647   1.776   2.160  0.6415  0.3805  0.0711
 2232TIP3    H128187   5.607   1.780   2.073  1.3871  1.3476 -0.2334
 2232TIP3    H228188   5.738   1.752   2.144  0.2350 -1.7236  0.7624
 2233TIP3   OH228189   4.543   5.967   1.213  0.5627  0.0338  0.3542
 2233TIP3    H128190   4.466   5.921   1.247 -1.1043  1.2216 -1.6768
 2233TIP3    H228191   4.616   5.934   1.265 -1.0010 -2.7203  0.9090
 2234TIP3   OH228192   1.058   1.576   4.952  0.3792  0.2272  0.6208
 2234TIP3    H128193   0.984   1.605   5.006  0.1820 -0.6524  0.8196
 2234TIP3    H228194   1.099   1.506   5.002 -0.2543 -1.1245 -0.7001
 2235TIP3   OH228195   2.361   1.818   0.041 -0.2303 -0.1998 -0.2307
 2235TIP3    H128196   2.300   1.746   0.050 -0.5769  0.2488  1.0444
 2235TIP3    H228197   2.335   1.881   0.108  2.6935 -0.7551  1.5071
 2236TIP3   OH228198   5.095   0.821  12.063 -0.0299  0.4254 -0.1265
 2236TIP3    H128199   5.019   0.776  12.026 -0.7505  0.4167  1.3384
 2236TIP3    H228200   5.148   0.845  11.987 -1.0745 -0.3207 -1.1052
 2237TIP3   OH228201   0.162   1.025   2.741  0.2481 -0.2651 -0.0692
 2237TIP3    H128202   0.179   1.024   2.647  0.5918 -2.3602  0.0044
 2237TIP3    H228203   0.105   1.101   2.754  0.6533  0.3701 -1.8792
 2238TIP3   OH228204   0.434   0.969   1.324  0.5536 -0.0532  0.0656
 2238TIP3    H128205   0.448   0.891   1.270  1.0681  0.4608 -0.5569
 2238TIP3    H228206   0.372   0.942   1.391 -0.3796 -0.6038 -1.0150
 2239TIP3   OH228207   1.083   0.924  16.590  0.5467 -0.1288  0.4926
 2239TIP3    H128208   1.019   0.903  16.522 -0.4668 -0.4910  1.5446
 2239TIP3    H228209   1.148   0.854  16.586  0.7855  0.1455 -0.4615
 2240TIP3   OH228210   4.841   4.263  16.545  0.8347  0.4330  0.2487
 2240TIP3    H128211   4.871   4.249  16.635  0.4534 -2.5350 -0.0105
 2240TIP3    H228212   4.758   4.214  16.540  0.4522  1.2340 -1.4915
 2241TIP3   OH228213   0.174   1.906   2.557  0.1311 -0.0986 -0.2455
 2241TIP3    H128214   0.267   1.917   2.535 -0.0079  0.9325 -0.3351
 2241TIP3    H228215   0.176   1.864   2.644  0.7163  2.0798  0.8440
 2242TIP3   OH228216   4.863   2.341   4.177 -0.1909 -0.0188  0.3314
 2242TIP3    H128217   4.933   2.278   4.162 -0.6184 -0.9606  2.1335
 2242TIP3    H228218   4.782   2.289   4.177 -0.6877  0.7406  0.3286
 2243TIP3   OH228219   6.609   3.753  12.570 -0.0708 -0.0969  0.5437
 2243TIP3    H128220   6.539   3.783  12.513 -0.4515 -0.4714  0.8072
 2243TIP3    H228221   6.688   3.793  12.534 -0.3954  0.1936  0.1457
 2244TIP3   OH228222   2.570   6.320   0.193  0.1500  0.0023 -0.2263
 2244TIP3    H128223   2.627   6.396   0.182  0.2855  0.3390  2.4389
 2244TIP3    H228224   2.482   6.356   0.195  0.2070  0.1152  0.9206
 2245TIP3   OH228225   4.701   0.531  13.070 -0.2025  0.1737 -0.2831
 2245TIP3    H128226   4.652   0.569  12.997  0.5738  0.5472 -0.6191
 2245TIP3    H228227   4.789   0.568  13.061 -0.6003  1.7607  1.9825
 2246TIP3   OH228228   2.825   4.274  15.187 -0.2995 -0.0887  0.4700
 2246TIP3    H128229   2.848   4.182  15.175 -0.7121  0.0853 -1.8413
 2246TIP3    H228230   2.909   4.321  15.183 -0.5119  0.1439 -3.9504
 2247TIP3   OH228231   2.487   3.272  10.852  0.3305  0.2942  0.6877
 2247TIP3    H128232   2.493   3.336  10.781  0.8565  0.1062  0.5602
 2247TIP3    H228233   2.507   3.188  10.811 -0.7471 -0.0176  0.7732
 2248TIP3   OH228234   3.141   1.111   0.622  0.1650  0.2745 -0.0986
 2248TIP3    H128235   3.173   1.027   0.656  0.4205  0.0106 -0.9909
 2248TIP3    H228236   3.207   1.138   0.558 -0.0028  1.0837  0.0551
 2249TIP3   OH228237   2.406   6.528   2.757 -0.6987 -0.4241 -0.0765
 2249TIP3    H128238   2.398   6.611   2.711 -0.8465  0.3207  1.2614
 2249TIP3    H228239   2.445   6.468   2.693 -1.3500  0.4461 -1.3033
 2250TIP3   OH228240   6.727   2.038  15.913 -0.2955  0.0287 -0.8153
 2250TIP3    H128241   6.633   2.048  15.895 -0.3601  0.6804 -0.1582
 2250TIP3    H228242   6.754   1.964  15.860 -1.1499 -0.0477 -1.1523
 2251TIP3   OH228243   5.670   3.776   1.969 -0.1615 -0.0674 -0.0534
 2251TIP3    H128244   5.631   3.861   1.991 -0.5249 -0.4788  0.9078
 2251TIP3    H228245   5.728   3.757   2.042  1.9537  0.5886 -1.5092
 2252TIP3   OH228246   2.473   4.057   3.640  0.3218  0.0443  0.0027
 2252TIP3    H128247   2.449   3.990   3.704 -0.3066  0.1831 -0.0769
 2252TIP3    H228248   2.514   4.126   3.692 -0.6784  0.3974  0.3395
 2253TIP3   OH228249   1.017   5.660   1.154 -0.0096 -0.4478 -0.1503
 2253TIP3    H128250   0.981   5.581   1.193  1.0290 -1.1358 -0.5757
 2253TIP3    H228251   1.085   5.629   1.094 -0.6282  0.6810 -1.4599
 2254TIP3   OH228252   3.644   3.988  13.157 -0.6498  0.0212 -0.0578
 2254TIP3    H128253   3.575   4.029  13.208 -1.1537  0.1238 -0.8126
 2254TIP3    H228254   3.724   4.005  13.207 -0.6525  3.0239 -0.9675
 2255TIP3   OH228255   5.094   1.990  17.218 -0.6946  0.0470  0.4498
 2255TIP3    H128256   5.000   1.982  17.201 -0.5221  0.5595 -0.8043
 2255TIP3    H228257   5.135   1.966  17.136  0.2490  0.6799  0.7293
 2256TIP3   OH228258   6.477   3.905   5.945  0.1730 -0.5780  0.1534
 2256TIP3    H128259   6.461   3.825   5.994  0.3144 -1.1894 -0.7683
 2256TIP3    H228260   6.505   3.874   5.858 -0.5946  0.4693 -0.4767
 2257TIP3   OH228261   1.271   6.422   5.254 -0.2073  0.2290  0.0811
 2257TIP3    H128262   1.237   6.503   5.293 -0.1152 -0.2189  1.0915
 2257TIP3    H228263   1.245   6.428   5.162 -2.6814  0.0668  0.7378
 2258TIP3   OH228264   3.460   3.482   1.574  0.4811 -0.5069  0.0058
 2258TIP3    H128265   3.401   3.557   1.569  1.9580  0.6919  0.0498
 2258TIP3    H228266   3.519   3.503   1.646 -0.7563 -2.9721  1.8073
 2259TIP3   OH228267   4.847   6.251  16.863  0.0321  0.0186 -0.1339
 2259TIP3    H128268   4.913   6.320  16.858  1.2112 -1.1835 -1.7337
 2259TIP3    H228269   4.875   6.186  16.798 -2.6439 -0.5878 -0.7505
 2260TIP3   OH228270   0.878   1.902  11.572 -0.1250 -0.2159 -0.0344
 2260TIP3    H128271   0.896   1.875  11.482  0.9016 -2.4705  0.8238
 2260TIP3    H228272   0.785   1.888  11.583 -0.0803 -0.8335 -0.4391
 2261TIP3   OH228273   5.506   3.383   5.652 -0.0631 -0.1362 -0.7495
 2261TIP3    H128274   5.561   3.360   5.577 -0.2329 -1.7930 -0.3775
 2261TIP3    H228275   5.464   3.301   5.677 -0.2663  0.4751  0.9531
 2262TIP3   OH228276   5.006   0.097  13.077  0.1305  0.4820 -0.5636
 2262TIP3    H128277   5.063   0.168  13.107 -1.1296  1.2840  0.0044
 2262TIP3    H228278   5.025   0.089  12.984  1.5468  0.3834 -0.2689
 2263TIP3   OH228279   6.340   3.999  14.484  0.4473 -0.3139  0.1839
 2263TIP3    H128280   6.245   4.006  14.483  0.3673 -1.3231  0.2998
 2263TIP3    H228281   6.363   3.970  14.395  0.6419 -0.0707  0.1532
 2264TIP3   OH228282   1.924   4.948  11.200  0.0037 -0.2002  0.0952
 2264TIP3    H128283   1.945   4.859  11.227  2.1091  0.8509  2.0330
 2264TIP3    H228284   1.940   4.949  11.106  1.0935 -1.5444  0.2588
 2265TIP3   OH228285   0.104   3.119   4.409  0.3972  0.2838 -0.4506
 2265TIP3    H128286   0.121   3.059   4.336  0.8299  0.2222 -0.2983
 2265TIP3    H228287   0.015   3.097   4.437  0.3296  0.1235 -0.7842
 2266TIP3   OH228288   4.214   2.053   2.717  0.2002 -0.1956 -0.1089
 2266TIP3    H128289   4.124   2.039   2.746  0.3835 -0.6039  0.2650
 2266TIP3    H228290   4.259   2.086   2.794  0.1279  1.0280 -0.5792
 2267TIP3   OH228291   5.869   5.382  14.846  0.1199 -0.5664  0.2711
 2267TIP3    H128292   5.854   5.476  14.856 -0.7542 -0.6449 -0.3034
 2267TIP3    H228293   5.950   5.377  14.794  0.1281 -0.1328  0.2324
 2268TIP3   OH228294   1.841   2.647   2.294  0.2581 -0.2571 -0.4337
 2268TIP3    H128295   1.805   2.577   2.348  0.8325  0.6217  1.1237
 2268TIP3    H228296   1.934   2.624   2.284  0.6152  0.6575  0.7111
 2269TIP3   OH228297   0.629   1.365  15.495 -0.2453  0.1059  0.1767
 2269TIP3    H128298   0.693   1.363  15.425 -0.2021  2.2775  0.1099
 2269TIP3    H228299   0.679   1.388  15.573 -1.0648  3.1304 -0.1119
 2270TIP3   OH228300   2.065   5.775   3.443 -0.0715  0.6084  0.3154
 2270TIP3    H128301   2.090   5.862   3.475 -0.7915  0.9971 -0.1605
 2270TIP3    H228302   2.014   5.792   3.364 -2.0974 -0.1312  1.4131
 2271TIP3   OH228303   4.476   4.839   0.125  0.0548 -0.4759 -0.1014
 2271TIP3    H128304   4.505   4.852   0.035  1.2572  0.6515  0.4166
 2271TIP3    H228305   4.524   4.906   0.175 -5.3943  3.3176  0.4694
 2272TIP3   OH228306   2.551   2.492   2.644 -0.0818 -0.2461 -0.4164
 2272TIP3    H128307   2.601   2.410   2.643  0.5163  0.0074  2.5707
 2272TIP3    H228308   2.603   2.554   2.593  0.1525 -1.3242 -1.5100
 2273TIP3   OH228309   4.004   0.224   5.544  0.3033  0.2281  0.2325
 2273TIP3    H128310   4.025   0.240   5.636  0.1310 -0.4477  0.3947
 2273TIP3    H228311   4.089   0.212   5.502  0.4665  2.0162  0.0093
 2274TIP3   OH228312   3.482   2.464  17.132  0.1903  0.1825 -0.4750
 2274TIP3    H128313   3.518   2.553  17.122  2.4507 -0.6102  0.1838
 2274TIP3    H228314   3.528   2.413  17.065 -0.5345 -0.6546 -0.3333
 2275TIP3   OH228315   0.833   1.610  14.433  0.0433  0.1433 -0.1319
 2275TIP3    H128316   0.773   1.572  14.368  0.1509  0.1716 -0.2491
 2275TIP3    H228317   0.907   1.549  14.435  0.2760  0.4148 -0.4150
 2276TIP3   OH228318   1.882   1.912  15.623  0.3680  0.0368 -0.1691
 2276TIP3    H128319   1.872   1.818  15.605  1.0327  0.5275 -3.4930
 2276TIP3    H228320   1.799   1.950  15.594  0.3212  0.5327  0.6251
 2277TIP3   OH228321   5.989   0.417  15.593 -1.1529  0.4111 -0.1215
 2277TIP3    H128322   6.034   0.500  15.609  0.2323 -0.5579  1.1792
 2277TIP3    H228323   6.054   0.363  15.547 -2.4199  0.4161 -1.9527
 2278TIP3   OH228324   1.379   4.591  13.225  0.2682 -0.4794  0.4724
 2278TIP3    H128325   1.366   4.499  13.249  0.8111 -0.5514  0.4943
 2278TIP3    H228326   1.313   4.638  13.276 -0.0018 -0.8542  0.4741
 2279TIP3   OH228327   4.670   5.155   6.587 -0.2012  0.5805  0.3330
 2279TIP3    H128328   4.739   5.146   6.522 -0.3601  0.9741  0.1090
 2279TIP3    H228329   4.686   5.083   6.649 -1.4373 -1.2522 -1.4133
 2280TIP3   OH228330   2.804   2.788   5.258 -0.0346  0.2522  0.0494
 2280TIP3    H128331   2.721   2.758   5.294 -0.7409  1.2326 -0.7468
 2280TIP3    H228332   2.866   2.779   5.330 -0.9415 -0.0025  0.8021
 2281TIP3   OH228333   2.080   0.861  15.933 -0.2766  0.2913  0.3155
 2281TIP3    H128334   2.171   0.832  15.930 -0.2808  0.4002 -1.2635
 2281TIP3    H228335   2.029   0.785  15.906 -0.4385  1.0897 -1.6927
 2282TIP3   OH228336   3.166   5.604  10.986  0.0114 -0.2413  0.1726
 2282TIP3    H128337   3.078   5.566  10.974 -0.0652 -0.0448  0.1119
 2282TIP3    H228338   3.225   5.539  10.949 -0.1001 -0.4282  0.3192
 2283TIP3   OH228339   6.440   3.873   0.559  0.2252  0.1958  0.1861
 2283TIP3    H128340   6.478   3.801   0.609 -0.7183 -1.1972 -1.0519
 2283TIP3    H228341   6.387   3.921   0.623 -1.0320 -1.5998  0.5724
 2284TIP3   OH228342   3.256   2.195   5.076 -0.1284  0.4805  0.0582
 2284TIP3    H128343   3.260   2.254   5.151 -2.8212  3.4692 -1.9960
 2284TIP3    H228344   3.339   2.207   5.031  0.6987  0.1443  1.4647
 2285TIP3   OH228345   2.980   0.777  12.134 -0.1430 -0.3885  0.2987
 2285TIP3    H128346   3.034   0.794  12.210 -1.0100  0.1822  0.7911
 2285TIP3    H228347   3.020   0.700  12.093 -0.3408 -1.3962  1.9601
 2286TIP3   OH228348   2.219   2.025  14.690 -0.4067 -0.5223  0.3018
 2286TIP3    H128349   2.171   2.066  14.618 -2.7069 -2.8932  0.3842
 2286TIP3    H228350   2.259   1.947  14.651  2.4549  0.7970  0.5215
 2287TIP3   OH228351   0.920   5.049   0.690  0.3193 -0.6642 -0.5389
 2287TIP3    H128352   0.948   4.970   0.643  1.5758  0.2653 -1.3719
 2287TIP3    H228353   0.834   5.025   0.727  0.5148 -2.2921 -1.0748
 2288TIP3   OH228354   2.941   3.302   2.821 -0.2269  0.2807  0.8240
 2288TIP3    H128355   2.863   3.258   2.855 -0.4052 -0.6652 -0.7960
 2288TIP3    H228356   3.009   3.234   2.821  0.8874  1.3304  3.1060
 2289TIP3   OH228357   6.731   5.318   0.834  0.0217  0.3360  0.7307
 2289TIP3    H128358   6.821   5.351   0.845 -0.5633  3.1276 -2.1632
 2289TIP3    H228359   6.676   5.390   0.866 -1.2439 -1.2166  2.1448
 2290TIP3   OH228360   6.353   3.258   1.286 -0.1919 -0.4880 -0.0960
 2290TIP3    H128361   6.344   3.193   1.217  0.2890 -0.5811 -0.0752
 2290TIP3    H228362   6.324   3.213   1.366  0.6178 -0.8416  0.0041
 2291TIP3   OH228363   2.522   0.611  14.208 -0.3474 -0.3832  0.4755
 2291TIP3    H128364   2.547   0.660  14.286  0.9799 -1.4004  0.7122
 2291TIP3    H228365   2.597   0.620  14.150  0.1572 -2.6091  0.7632
 2292TIP3   OH228366   4.410   2.093  11.091  0.1359 -0.2594 -0.4862
 2292TIP3    H128367   4.453   2.072  11.175  1.7591 -0.1471 -1.2698
 2292TIP3    H228368   4.472   2.064  11.025  0.2677  2.5385 -1.6477
 2293TIP3   OH228369   4.412   4.908  13.629  0.1071  0.0119  0.0049
 2293TIP3    H128370   4.368   4.988  13.656 -1.0219 -0.8478  0.7497
 2293TIP3    H228371   4.504   4.934  13.618 -0.0369  1.1586  1.3030
 2294TIP3   OH228372   6.264   3.983   5.665  0.6814  0.5976  0.0173
 2294TIP3    H128373   6.223   4.058   5.621 -0.9897  0.0197  0.5716
 2294TIP3    H228374   6.193   3.941   5.712  1.7124 -1.0562  0.1320
 2295TIP3   OH228375   4.201   0.203  15.089 -0.1227  0.2238  0.2897
 2295TIP3    H128376   4.198   0.120  15.041  1.1602  1.7697 -2.5954
 2295TIP3    H228377   4.275   0.194  15.148  0.3900 -0.4615 -0.4527
 2296TIP3   OH228378   6.077   6.038   0.053 -0.0435 -0.1166  0.0602
 2296TIP3    H128379   6.043   6.010  -0.032  0.5361 -1.5136  0.2678
 2296TIP3    H228380   6.000   6.044   0.109 -0.2793 -0.4765 -0.2242
 2297TIP3   OH228381   6.700   4.159   1.538  0.1563 -0.2906 -0.4074
 2297TIP3    H128382   6.613   4.119   1.540  0.3615 -0.7244  0.1020
 2297TIP3    H228383   6.759   4.086   1.521  0.4554 -0.0629 -0.3568
 2298TIP3   OH228384   4.832   4.769   3.859 -0.1247  0.5580  0.1962
 2298TIP3    H128385   4.914   4.780   3.907 -0.5152  1.6811  0.6305
 2298TIP3    H228386   4.764   4.797   3.921 -0.9452 -1.5564  0.2664
 2299TIP3   OH228387   4.187   3.168   5.332 -0.4304  0.0490  0.1377
 2299TIP3    H128388   4.264   3.122   5.299  0.5872  1.7808  0.0270
 2299TIP3    H228389   4.126   3.099   5.356  0.6084 -1.3300 -1.1008
 2300TIP3   OH228390   3.833   1.824  13.435 -0.6201  0.2436  0.0988
 2300TIP3    H128391   3.887   1.748  13.457  0.9354  0.9864 -1.0027
 2300TIP3    H228392   3.841   1.833  13.340 -1.8235  1.0232  0.0548
 2301TIP3   OH228393   5.395   1.128  14.247  0.5193  0.5900  0.0448
 2301TIP3    H128394   5.429   1.106  14.160  0.3736 -0.5477  0.2684
 2301TIP3    H228395   5.301   1.139  14.234  0.1378 -1.9022  0.4754
 2302TIP3   OH228396   1.720   5.281   3.037 -0.2714  0.6585  0.4828
 2302TIP3    H128397   1.712   5.243   2.950 -0.3332  1.0201  0.3306
 2302TIP3    H228398   1.784   5.226   3.082  0.1982  0.8263  0.0130
 2303TIP3   OH228399   2.037   4.577   0.879  0.3911 -0.2592  0.7382
 2303TIP3    H128400   2.123   4.536   0.871  0.2039 -0.7690  1.2796
 2303TIP3    H228401   1.975   4.506   0.866  0.0481  0.1302  0.2377
 2304TIP3   OH228402   5.304   0.886   5.510 -0.1418 -0.1749 -0.3275
 2304TIP3    H128403   5.285   0.829   5.435 -1.3736 -0.5363  0.2450
 2304TIP3    H228404   5.282   0.833   5.587  2.7792 -0.4236  0.3800
 2305TIP3   OH228405   4.555   2.859  16.734  0.5430  0.2727  0.1429
 2305TIP3    H128406   4.464   2.830  16.745  0.3216  0.3337 -1.4105
 2305TIP3    H228407   4.604   2.778  16.721  0.6390  0.2786  0.4564
 2306TIP3   OH228408   5.770   2.771   1.888  0.3403 -0.0120 -0.0530
 2306TIP3    H128409   5.827   2.701   1.919 -0.4924 -1.1526 -1.0056
 2306TIP3    H228410   5.720   2.730   1.816  1.0001  2.0232 -1.7074
 2307TIP3   OH228411   1.371   5.590  15.990 -0.2836  0.3371 -0.3979
 2307TIP3    H128412   1.452   5.558  15.951  0.1006  0.2247  0.4725
 2307TIP3    H228413   1.388   5.683  16.009 -0.6253  0.5036 -0.9167
 2308TIP3   OH228414   4.838   4.116  11.377 -0.0456 -0.0071 -0.2494
 2308TIP3    H128415   4.925   4.095  11.345 -0.7798 -0.0188 -2.2787
 2308TIP3    H228416   4.782   4.047  11.343 -1.3360  1.5756 -1.4478
 2309TIP3   OH228417   3.042   1.952  16.789  0.4672 -0.2598  0.3481
 2309TIP3    H128418   2.965   1.929  16.840 -0.5662 -0.6239 -1.3161
 2309TIP3    H228419   3.113   1.898  16.824  0.3956  1.3233  3.0350
 2310TIP3   OH228420   5.915   5.214  16.357 -0.2015  0.7161  0.6029
 2310TIP3    H128421   5.981   5.214  16.427  0.4902 -0.2850 -0.0271
 2310TIP3    H228422   5.935   5.293  16.306  0.1380  0.7354  0.7622
 2311TIP3   OH228423   5.300   3.574   4.945  0.1162  0.3363  0.7409
 2311TIP3    H128424   5.356   3.523   4.887 -0.2793  0.7343 -0.0073
 2311TIP3    H228425   5.286   3.656   4.897 -0.6779  0.4404  1.1469
 2312TIP3   OH228426   6.580   5.214   6.262  0.0076 -0.9758 -0.3217
 2312TIP3    H128427   6.521   5.254   6.197 -0.0460 -0.9420 -0.2524
 2312TIP3    H228428   6.586   5.279   6.331  0.5015 -0.7835 -0.5450
 2313TIP3   OH228429   6.528   6.352   4.099  0.1850 -0.1774 -0.5911
 2313TIP3    H128430   6.434   6.356   4.119  0.3191 -1.9705  0.5175
 2313TIP3    H228431   6.566   6.422   4.152 -0.5021  0.4276 -0.8896
 2314TIP3   OH228432   6.013   4.892   2.088 -0.2829 -0.0002 -0.1684
 2314TIP3    H128433   6.088   4.875   2.144  0.1576  1.4441 -0.2851
 2314TIP3    H228434   5.938   4.896   2.148 -0.2263 -1.1551 -0.0183
 2315TIP3   OH228435   1.441   2.895   4.808 -0.1398  0.3729  0.1116
 2315TIP3    H128436   1.354   2.857   4.797 -0.2765  0.8095 -0.3257
 2315TIP3    H228437   1.454   2.898   4.903  0.2667 -1.6422  0.1516
 2316TIP3   OH228438   0.280   1.229   0.313 -0.0389  0.5384 -0.0248
 2316TIP3    H128439   0.269   1.259   0.222  1.1597  0.6083 -0.1465
 2316TIP3    H228440   0.335   1.151   0.306 -1.0328 -0.2263  0.5336
 2317TIP3   OH228441   1.275   5.643  14.850  0.2765 -0.0359  0.2025
 2317TIP3    H128442   1.254   5.610  14.938 -0.4046 -0.3971 -0.0855
 2317TIP3    H228443   1.341   5.583  14.817  0.1762 -0.1904  0.2807
 2318TIP3   OH228444   5.156   4.202  11.735  0.3305 -0.2589 -0.0746
 2318TIP3    H128445   5.226   4.147  11.702 -0.6770 -0.8004 -1.3416
 2318TIP3    H228446   5.076   4.153  11.718 -0.3986  0.5372  0.9647
 2319TIP3   OH228447   1.277   4.573  11.919  0.6193 -0.1283  0.4582
 2319TIP3    H128448   1.301   4.482  11.900  0.4996 -0.3592  1.3933
 2319TIP3    H228449   1.279   4.616  11.834 -1.6135 -1.5325 -0.3701
 2320TIP3   OH228450   3.648   3.806  16.264  0.8072 -0.4942 -0.6270
 2320TIP3    H128451   3.646   3.760  16.348 -3.2229 -0.3861 -0.5360
 2320TIP3    H228452   3.619   3.895  16.284 -2.8060 -1.1543 -2.3561
 2321TIP3   OH228453   4.891   6.372   3.856  0.1982 -0.2987  0.1274
 2321TIP3    H128454   4.968   6.328   3.892  0.6136  0.1252 -0.2415
 2321TIP3    H228455   4.922   6.459   3.831 -0.5669  0.1296  0.6288
 2322TIP3   OH228456   1.687   1.053   0.049  0.5575  0.2693 -0.3011
 2322TIP3    H128457   1.633   0.993   0.099  1.7658  0.3502  1.1592
 2322TIP3    H228458   1.747   0.997  -0.000 -0.5983  0.1907 -1.6250
 2323TIP3   OH228459   4.539   0.750  15.815  0.3356  0.0918  0.0580
 2323TIP3    H128460   4.582   0.771  15.898  0.4474  0.9354 -0.2117
 2323TIP3    H228461   4.446   0.746  15.837  0.6908 -4.3961  1.2173
 2324TIP3   OH228462   2.650   6.018   4.398  0.0401 -0.1632  0.4298
 2324TIP3    H128463   2.616   6.105   4.417  0.4985 -0.2071  1.4434
 2324TIP3    H228464   2.579   5.976   4.348  0.4658  1.3312 -1.4936
 2325TIP3   OH228465   4.069   1.105  14.381  0.5631  0.1405 -0.0938
 2325TIP3    H128466   4.056   1.030  14.438 -0.3458 -0.0836 -0.5958
 2325TIP3    H228467   4.147   1.148  14.416  0.7113 -0.6702  0.5835
 2326TIP3   OH228468   2.940   5.918  16.628  0.0045 -0.1612 -0.2425
 2326TIP3    H128469   2.999   5.847  16.600 -2.6186 -2.5608  0.1071
 2326TIP3    H228470   2.918   5.963  16.547 -0.8016 -1.7454 -0.9343
 2327TIP3   OH228471   6.070   3.527   2.175 -0.7016  0.5141  0.3042
 2327TIP3    H128472   6.147   3.575   2.144 -1.4426  1.7859  0.4353
 2327TIP3    H228473   6.094   3.435   2.165  0.8296  0.9055  0.3216
 2328TIP3   OH228474   4.921   2.827   1.337 -0.5212  0.2228  0.1597
 2328TIP3    H128475   4.852   2.886   1.369  1.2885  1.3807  2.0798
 2328TIP3    H228476   4.961   2.793   1.417  0.8988 -0.7253 -0.9404
 2329TIP3   OH228477   3.710   4.420  14.915 -0.4772 -0.4775 -0.0449
 2329TIP3    H128478   3.677   4.357  14.978  1.4609 -1.0025  0.4738
 2329TIP3    H228479   3.805   4.419  14.926 -0.2759  1.2200 -1.2691
 2330TIP3   OH228480   0.505   1.873  14.776 -0.1783 -0.2253 -0.2999
 2330TIP3    H128481   0.450   1.949  14.756  0.8573  0.7555  0.5626
 2330TIP3    H228482   0.580   1.881  14.717  1.7160  1.3919  2.2571
 2331TIP3   OH228483   0.873   6.085  12.557 -0.1649 -0.5608 -0.9153
 2331TIP3    H128484   0.846   5.996  12.531  0.8920 -0.5544 -2.0923
 2331TIP3    H228485   0.906   6.124  12.476  1.3066  0.1819  0.0217
 2332TIP3   OH228486   2.641   1.973   0.573 -0.2747 -0.2670  0.4259
 2332TIP3    H128487   2.554   2.014   0.572  0.0274  0.3763 -1.1543
 2332TIP3    H228488   2.636   1.908   0.643 -2.0564 -0.2901  0.3071
 2333TIP3   OH228489   2.452   5.045   3.741 -0.3887 -0.0869 -0.2440
 2333TIP3    H128490   2.509   5.070   3.813  0.3476  0.0970 -0.8923
 2333TIP3    H228491   2.435   4.951   3.755 -0.0738 -0.0999  0.0427
 2334TIP3   OH228492   2.030   3.791   2.038 -0.2251 -0.0018  0.1767
 2334TIP3    H128493   2.055   3.859   2.101  0.4764 -0.9102  0.9082
 2334TIP3    H228494   2.113   3.766   1.996 -0.6791  0.5359 -1.0541
 2335TIP3   OH228495   0.511   0.503   2.875 -0.3531 -0.1142  0.1045
 2335TIP3    H128496   0.555   0.478   2.956 -2.5046 -0.6545  1.1274
 2335TIP3    H228497   0.432   0.450   2.873 -0.9193  0.7618 -1.7605
 2336TIP3   OH228498   6.492   1.529  14.146 -0.0035  0.1915  0.1330
 2336TIP3    H128499   6.428   1.525  14.075  0.9303 -1.4521 -0.6636
 2336TIP3    H228500   6.574   1.501  14.105  0.9715  1.1481  1.4026
 2337TIP3   OH228501   2.320   2.826  10.599 -0.5845  0.2280 -1.1298
 2337TIP3    H128502   2.395   2.775  10.628 -1.5574 -0.7755 -0.3261
 2337TIP3    H228503   2.255   2.760  10.572 -2.7914  0.9065  2.1975
 2338TIP3   OH228504   4.811   4.467   2.465  0.1665 -0.4553 -0.2985
 2338TIP3    H128505   4.843   4.394   2.517  1.1418  0.5039  0.4870
 2338TIP3    H228506   4.884   4.490   2.408 -0.3111 -0.4270 -0.9050
 2339TIP3   OH228507   3.036   2.124   4.196  0.1183  0.6939  0.3022
 2339TIP3    H128508   3.057   2.034   4.219 -0.6529  0.1908 -0.9066
 2339TIP3    H228509   2.956   2.117   4.143 -0.3983  2.1518  0.8628
 2340TIP3   OH228510   5.097   3.229  14.160 -0.8186  0.2077  0.0453
 2340TIP3    H128511   5.115   3.190  14.074  2.3255  1.1813  0.2177
 2340TIP3    H228512   5.057   3.314  14.140 -1.2070 -0.0772 -0.4142
 2341TIP3   OH228513   2.106   4.354   1.572  0.5946 -0.1450 -0.1598
 2341TIP3    H128514   2.078   4.411   1.500 -0.4069 -0.1335  0.2339
 2341TIP3    H228515   2.177   4.302   1.535  0.8027  0.6133 -0.8399
 2342TIP3   OH228516   4.246   0.949   0.580 -0.1713 -0.6386  0.4789
 2342TIP3    H128517   4.296   0.982   0.655  0.9487 -1.2743  0.0048
 2342TIP3    H228518   4.193   0.878   0.616 -1.2503  0.4632  1.1194
 2343TIP3   OH228519   5.653   3.514  12.123 -0.4888 -0.0847 -0.6555
 2343TIP3    H128520   5.738   3.480  12.152  0.0457  0.9117 -1.0596
 2343TIP3    H228521   5.589   3.464  12.174  0.3057 -1.4066 -0.9323
 2344TIP3   OH228522   4.278   0.328   5.115 -0.2213 -0.0291  0.1710
 2344TIP3    H128523   4.371   0.316   5.134 -0.1455  1.2031  0.5770
 2344TIP3    H228524   4.259   0.417   5.142 -0.9982  0.4975 -2.0332
 2345TIP3   OH228525   5.794   2.270  17.124 -0.6705 -0.0251 -0.7877
 2345TIP3    H128526   5.810   2.234  17.036 -1.7815 -0.7641 -0.6878
 2345TIP3    H228527   5.798   2.194  17.182 -1.0935  0.2917 -0.3343
 2346TIP3   OH228528   5.061   4.197  13.139  0.6083 -0.5481  0.2225
 2346TIP3    H128529   5.093   4.216  13.227 -1.0217 -1.3559  1.0322
 2346TIP3    H228530   4.971   4.231  13.139  0.8798  0.2156 -1.4203
 2347TIP3   OH228531   6.091   1.159   4.637  0.2674 -0.1494  0.0676
 2347TIP3    H128532   6.137   1.086   4.678 -1.4566 -1.9762 -1.1236
 2347TIP3    H228533   6.146   1.184   4.563  1.0751  0.0515  0.7312
 2348TIP3   OH228534   2.451   3.017   6.431  0.0546  0.1524 -0.6856
 2348TIP3    H128535   2.445   3.029   6.526 -1.2398 -0.9091 -0.6226
 2348TIP3    H228536   2.401   3.089   6.394 -0.3114 -0.0207 -0.5292
 2349TIP3   OH228537   0.227   3.094   1.045 -0.5019 -0.3879  0.4909
 2349TIP3    H128538   0.232   3.167   0.984 -0.1453  0.7699  1.8869
 2349TIP3    H228539   0.291   3.031   1.011 -1.8561 -0.7149 -1.5423
 2350TIP3   OH228540   0.613   3.808   4.105  0.5030  0.4202 -0.0621
 2350TIP3    H128541   0.683   3.872   4.103  1.6467 -0.7868  0.2658
 2350TIP3    H228542   0.623   3.764   4.190 -1.3561  1.0013  0.4703
 2351TIP3   OH228543   1.165   5.100   4.077 -0.2960 -0.4198  0.1222
 2351TIP3    H128544   1.074   5.128   4.087 -0.2409 -0.1719 -0.0650
 2351TIP3    H228545   1.216   5.174   4.112 -0.0759  0.6836 -2.4463
 2352TIP3   OH228546   6.049   1.543  14.464  0.6152 -0.1398 -0.0984
 2352TIP3    H128547   6.063   1.473  14.401  1.9045  0.0134  0.0103
 2352TIP3    H228548   5.999   1.609  14.416  1.0846 -0.2847 -0.7875
 2353TIP3   OH228549   1.233   5.059  14.172  0.0152 -0.2292  0.1424
 2353TIP3    H128550   1.290   4.987  14.199 -0.5985 -0.6142  0.4218
 2353TIP3    H228551   1.201   5.033  14.086 -2.8594 -1.9044  1.6399
 2354TIP3   OH228552   5.045   3.102   5.354 -0.3662 -0.6821  0.6924
 2354TIP3    H128553   5.005   3.181   5.317 -0.4104 -1.0276 -0.0182
 2354TIP3    H228554   5.139   3.115   5.344 -0.3116 -0.0054  2.0781
 2355TIP3   OH228555   1.796   6.487   2.404  0.0985  0.2671  0.1665
 2355TIP3    H128556   1.826   6.467   2.492  1.1954 -0.6701 -0.3993
 2355TIP3    H228557   1.711   6.444   2.396 -0.7381  1.6807  1.2856
 2356TIP3   OH228558   2.864   4.364  11.687 -0.4411 -0.0809  0.5160
 2356TIP3    H128559   2.855   4.390  11.595  1.3109  1.1121  0.6507
 2356TIP3    H228560   2.958   4.353  11.699 -0.5705  0.7256  2.4305
 2357TIP3   OH228561   0.828   0.916   6.457 -0.2997  0.4267 -0.6397
 2357TIP3    H128562   0.828   0.942   6.549  1.6515  0.7646 -0.7092
 2357TIP3    H228563   0.796   0.993   6.410 -1.3727  0.2276 -0.2558
 2358TIP3   OH228564   3.849   1.961   6.312 -0.1741 -0.0510 -0.8113
 2358TIP3    H128565   3.846   1.930   6.222 -0.9949  0.6220 -1.0295
 2358TIP3    H228566   3.758   1.987   6.331  0.1754  0.6672 -0.1068
 2359TIP3   OH228567   5.787   0.891   0.335  0.3404 -0.0809 -0.2931
 2359TIP3    H128568   5.807   0.964   0.277  0.0755 -1.1396 -1.7761
 2359TIP3    H228569   5.814   0.813   0.285  1.0954 -0.9559  1.4534
 2360TIP3   OH228570   2.688   1.419   5.249 -0.3852  0.1620 -0.7850
 2360TIP3    H128571   2.610   1.368   5.270 -1.6680  2.3905  0.1713
 2360TIP3    H228572   2.715   1.388   5.163 -1.6551 -1.4424 -0.6330
 2361TIP3   OH228573   2.988   3.525   2.936  0.1809 -0.6980 -0.8029
 2361TIP3    H128574   3.046   3.506   3.010 -0.9674  1.6219  0.7487
 2361TIP3    H228575   2.985   3.444   2.887  2.5843 -1.6846  0.5907
 2362TIP3   OH228576   0.272   1.825   2.842 -0.1039  0.0085  0.0722
 2362TIP3    H128577   0.212   1.795   2.910 -1.3987  0.7399 -0.7223
 2362TIP3    H228578   0.335   1.754   2.832 -1.1177 -0.9838  0.5944
 2363TIP3   OH228579   4.954   0.068  11.452 -0.1654  0.3586  0.3501
 2363TIP3    H128580   5.033   0.040  11.498 -0.6427  2.3231  2.4339
 2363TIP3    H228581   4.985   0.133  11.388  0.2047 -0.7464 -0.6183
 2364TIP3   OH228582   2.386   4.298   4.369  0.1262  0.1290 -0.3165
 2364TIP3    H128583   2.352   4.209   4.364  0.3834  0.0289 -0.2959
 2364TIP3    H228584   2.476   4.291   4.338 -0.2412  0.6061 -1.5221
 2365TIP3   OH228585   1.203   5.360   5.313  0.1501 -0.2527  0.0216
 2365TIP3    H128586   1.271   5.422   5.285  0.6018 -0.3030  0.9933
 2365TIP3    H228587   1.121   5.407   5.300  0.3910 -0.0429 -0.7800
 2366TIP3   OH228588   1.595   0.259  16.568  0.0991  0.0983 -0.0212
 2366TIP3    H128589   1.523   0.258  16.632  0.0243  0.7842 -0.0887
 2366TIP3    H228590   1.625   0.169  16.565 -0.7812 -0.2015 -0.0134
 2367TIP3   OH228591   2.943   2.669  14.181 -0.6212 -1.1491  0.6042
 2367TIP3    H128592   2.854   2.684  14.215 -1.2063 -0.3200 -1.2442
 2367TIP3    H228593   2.930   2.649  14.088  1.3066  1.5250 -0.2740
 2368TIP3   OH228594   1.439   6.607   3.647  0.5529  0.8901 -0.3408
 2368TIP3    H128595   1.454   6.513   3.637 -2.3733  0.2346  0.8610
 2368TIP3    H228596   1.480   6.630   3.730  1.0885  0.6531 -0.5354
 2369TIP3   OH228597   6.295   4.660   4.476 -0.2389  0.4313  0.5716
 2369TIP3    H128598   6.352   4.596   4.433  0.6639  0.6968  1.3669
 2369TIP3    H228599   6.208   4.641   4.440  0.2435 -0.3395 -0.2324
 2370TIP3   OH228600   5.820   1.301  16.556 -0.5282 -0.0406  0.3262
 2370TIP3    H128601   5.801   1.299  16.650 -0.4060  0.4888  0.3642
 2370TIP3    H228602   5.735   1.295  16.514 -0.4826 -1.7551  0.4523
 2371TIP3   OH228603   3.326   0.233  13.484 -0.1398  0.3240  0.4141
 2371TIP3    H128604   3.302   0.141  13.476 -0.7384  0.4998  0.1940
 2371TIP3    H228605   3.254   0.281  13.443  0.8365  0.8226 -0.7839
 2372TIP3   OH228606   2.989   2.239  11.131  0.4162 -0.0868  0.8546
 2372TIP3    H128607   2.999   2.197  11.045  1.2627  1.6048  0.1213
 2372TIP3    H228608   2.983   2.332  11.112 -3.7622  0.0555  2.2988
 2373TIP3   OH228609   4.701   3.906   3.331  0.6074  0.2124 -0.7099
 2373TIP3    H128610   4.607   3.922   3.320  0.5805  0.1127 -0.6282
 2373TIP3    H228611   4.738   3.991   3.354  0.1483 -0.2360  1.8631
 2374TIP3   OH228612   3.149   3.480   3.466  0.3990 -0.0946  0.2917
 2374TIP3    H128613   3.116   3.500   3.554  1.8923  0.0742  0.8207
 2374TIP3    H228614   3.227   3.534   3.457  1.3210 -1.5156 -0.4274
 2375TIP3   OH228615   4.665   2.766   5.162  0.3058 -0.5066  0.2859
 2375TIP3    H128616   4.706   2.852   5.169  0.3101 -0.5848  1.3032
 2375TIP3    H228617   4.627   2.765   5.074 -0.2742  0.7976  0.5017
 2376TIP3   OH228618   6.512   4.174   4.860 -0.3660 -0.0923 -0.5175
 2376TIP3    H128619   6.428   4.132   4.839 -0.0330 -0.5607 -0.9277
 2376TIP3    H228620   6.529   4.232   4.786  0.3634 -1.0607 -1.1131
 2377TIP3   OH228621   6.627   0.104   3.007 -0.4937  0.5438  0.3322
 2377TIP3    H128622   6.583   0.070   2.929 -2.8932 -1.0314  2.2775
 2377TIP3    H228623   6.716   0.125   2.978 -0.9207 -1.2960 -2.4912
 2378TIP3   OH228624   5.934   1.261   5.814 -0.5262 -0.7137 -0.3507
 2378TIP3    H128625   5.945   1.166   5.821  2.4643 -0.3143  1.1416
 2378TIP3    H228626   5.863   1.282   5.874  1.3249 -1.6060  2.2290
 2379TIP3   OH228627   3.651   5.200   2.314  0.3976 -0.5613  0.6755
 2379TIP3    H128628   3.575   5.142   2.317 -0.5487  0.6876  1.1703
 2379TIP3    H228629   3.620   5.277   2.267  1.6851 -0.5068 -0.0962
 2380TIP3   OH228630   1.961   1.044  12.948 -0.2660 -0.1675 -0.6807
 2380TIP3    H128631   2.046   1.043  12.905  0.0490 -2.4374 -0.1120
 2380TIP3    H228632   1.911   1.111  12.902  1.6555  0.8508 -1.3456
 2381TIP3   OH228633   3.244   2.586  17.176  0.1314  0.5251 -0.1754
 2381TIP3    H128634   3.323   2.534  17.186 -2.2336 -2.8350  2.4187
 2381TIP3    H228635   3.221   2.579  17.084  2.1016  0.4475 -0.6774
 2382TIP3   OH228636   1.324   2.158  15.595 -0.1100 -0.0109 -0.3251
 2382TIP3    H128637   1.290   2.158  15.506  0.5603 -1.2086 -0.5850
 2382TIP3    H228638   1.343   2.250  15.614  0.1837  0.1907 -1.5880
 2383TIP3   OH228639   1.468   5.534   0.853 -0.3434 -0.5448 -0.0917
 2383TIP3    H128640   1.532   5.603   0.841  1.0527 -2.0307 -1.3152
 2383TIP3    H228641   1.432   5.518   0.766 -2.9460  0.7548  0.6677
 2384TIP3   OH228642   1.372   4.243   3.097  0.0653  0.1717 -0.6522
 2384TIP3    H128643   1.463   4.265   3.074  0.5607 -0.7997  0.2983
 2384TIP3    H228644   1.370   4.247   3.193 -0.2473 -2.1400 -0.5294
 2385TIP3   OH228645   5.279   2.700  11.182  0.6036  0.4277 -0.1334
 2385TIP3    H128646   5.232   2.620  11.204  0.3709  0.5446 -0.2008
 2385TIP3    H228647   5.345   2.673  11.119  0.5028  0.2954 -0.1827
 2386TIP3   OH228648   6.602   1.620  10.271 -0.3833  0.4777 -0.5596
 2386TIP3    H128649   6.658   1.567  10.327  0.7232  0.0280 -2.0609
 2386TIP3    H228650   6.513   1.594  10.295  0.0674  0.2007  0.8745
 2387TIP3   OH228651   0.058   4.725   0.195 -0.5596  0.3236  0.3905
 2387TIP3    H128652   0.094   4.745   0.282 -1.5869 -1.4294  1.2645
 2387TIP3    H228653   0.086   4.634   0.179 -1.1764  0.3213 -0.6960
 2388TIP3   OH228654   4.713   6.127  12.613  0.2556 -0.0042  0.2718
 2388TIP3    H128655   4.720   6.032  12.628  2.0501 -0.0009 -0.4340
 2388TIP3    H228656   4.787   6.165  12.660 -0.3512  1.0445  0.4022
 2389TIP3   OH228657   5.136   0.705  11.218 -0.5769  0.7520 -0.0705
 2389TIP3    H128658   5.184   0.716  11.300 -0.8824 -1.3394  0.4203
 2389TIP3    H228659   5.071   0.637  11.237 -0.0042 -0.4860 -2.3096
 2390TIP3   OH228660   0.617   0.378  14.765  0.0951 -0.4431 -0.1309
 2390TIP3    H128661   0.679   0.328  14.712 -0.3569 -0.5233 -0.5863
 2390TIP3    H228662   0.563   0.425  14.701  0.2156  0.2677  0.2813
 2391TIP3   OH228663   0.756   2.555   2.810 -0.7010 -0.2726 -0.1132
 2391TIP3    H128664   0.747   2.462   2.791 -1.3412 -0.4749  1.1162
 2391TIP3    H228665   0.679   2.576   2.863  0.4213  0.5143  1.2489
 2392TIP3   OH228666   3.750   1.329   0.482 -0.4236  0.2895 -0.6338
 2392TIP3    H128667   3.720   1.261   0.543 -1.7278  1.4100  0.0060
 2392TIP3    H228668   3.691   1.403   0.498  0.3179  1.2092 -2.0503
 2393TIP3   OH228669   2.125   6.313   6.113 -0.0689 -0.1215 -0.1151
 2393TIP3    H128670   2.196   6.249   6.115  0.0709  0.0399  0.1319
 2393TIP3    H228671   2.045   6.261   6.113  0.0252 -0.2803  1.6562
 2394TIP3   OH228672   4.468   0.436  11.241 -0.4623  0.2317  0.1800
 2394TIP3    H128673   4.424   0.413  11.159 -0.8309  0.8881  0.1892
 2394TIP3    H228674   4.400   0.480  11.293  0.3479  1.7659 -0.0343
 2395TIP3   OH228675   1.718   1.492   3.060 -0.1375  0.0824  0.7817
 2395TIP3    H128676   1.632   1.451   3.068 -0.7579  1.1605 -0.1162
 2395TIP3    H228677   1.764   1.468   3.140 -1.4207 -0.2023  1.4480
 2396TIP3   OH228678   3.781   0.548   2.371  0.8954  0.5756  0.3027
 2396TIP3    H128679   3.766   0.641   2.354  0.2705  0.6070  0.9831
 2396TIP3    H228680   3.789   0.541   2.466  2.0950  0.0870  0.1784
 2397TIP3   OH228681   1.574   4.837   0.079 -0.4373 -0.3051 -0.3725
 2397TIP3    H128682   1.616   4.806  -0.001  0.7369  1.1110 -0.3511
 2397TIP3    H228683   1.647   4.867   0.133 -1.3947  1.2396  0.1078
 2398TIP3   OH228684   3.962   3.340  11.926  0.1495  0.1815 -0.3597
 2398TIP3    H128685   3.917   3.421  11.902  0.7104  0.7031  0.3202
 2398TIP3    H228686   4.042   3.340  11.872  1.3717  1.3171  1.3754
 2399TIP3   OH228687   4.131   0.075  11.715 -0.0338 -0.2349  0.0145
 2399TIP3    H128688   4.159   0.035  11.632  0.8036 -0.8641  0.5909
 2399TIP3    H228689   4.126   0.002  11.776 -1.1327  0.1576  0.4052
 2400TIP3   OH228690   5.450   6.256  10.691  0.2740 -0.2622 -0.7874
 2400TIP3    H128691   5.538   6.221  10.687  0.7530  1.1489 -3.8599
 2400TIP3    H228692   5.453   6.321  10.761  1.8581  0.2111 -1.2731
 2401TIP3   OH228693   6.263   1.785  10.803 -0.6851 -0.0971  0.3242
 2401TIP3    H128694   6.340   1.744  10.843 -0.2972  1.1378  0.8878
 2401TIP3    H228695   6.271   1.766  10.710 -1.3048 -2.5464  0.7543
 2402TIP3   OH228696   0.378   0.098   6.156  0.0733  0.2318 -0.1539
 2402TIP3    H128697   0.294   0.109   6.111  0.4044 -0.5496 -0.9733
 2402TIP3    H228698   0.437   0.063   6.089  0.6781 -0.5584  0.7800
 2403TIP3   OH228699   5.591   0.639   5.464 -0.3497 -0.2116 -0.0393
 2403TIP3    H128700   5.536   0.617   5.539 -0.3471  1.3437  0.4452
 2403TIP3    H228701   5.637   0.559   5.442  0.4463 -0.4000  2.2901
 2404TIP3   OH228702   5.971   4.630   3.670 -1.1493  0.1701 -0.0473
 2404TIP3    H128703   5.910   4.704   3.671 -0.8764  0.3904  0.6977
 2404TIP3    H228704   6.031   4.648   3.743 -2.8337 -2.2180  2.0046
 2405TIP3   OH228705   3.811   0.048   1.826 -0.6981  0.7398 -0.4630
 2405TIP3    H128706   3.819   0.007   1.740  1.1957 -0.5896  0.3052
 2405TIP3    H228707   3.718   0.070   1.834 -1.2428 -0.8651 -2.0491
 2406TIP3   OH228708   6.055   5.758   5.534 -0.2503 -0.8244  0.7842
 2406TIP3    H128709   6.006   5.789   5.610 -0.0048  0.8636  0.2921
 2406TIP3    H228710   6.010   5.678   5.506 -1.7786 -0.1484  1.2609
 2407TIP3   OH228711   4.617   4.516   6.012  0.6238  0.0014 -0.1498
 2407TIP3    H128712   4.583   4.606   6.008  0.6824 -0.0328 -2.5575
 2407TIP3    H228713   4.542   4.463   6.041  0.6967  0.8516  1.6611
 2408TIP3   OH228714   2.896   4.741  12.188  0.9776 -0.1590 -0.1860
 2408TIP3    H128715   2.838   4.816  12.199  0.9204  0.0026 -1.4817
 2408TIP3    H228716   2.957   4.769  12.119  1.1379 -1.1910 -0.4655
 2409TIP3   OH228717   5.359   6.068  15.722  0.0214  0.3950  0.1402
 2409TIP3    H128718   5.268   6.074  15.749  0.0324 -0.0036  0.2690
 2409TIP3    H228719   5.395   5.995  15.773 -0.3082 -1.2312 -1.8548
 2410TIP3   OH228720   3.888   4.693   0.881 -0.4071 -0.2155  0.0704
 2410TIP3    H128721   3.873   4.769   0.825 -1.1038 -0.9115 -0.7073
 2410TIP3    H228722   3.973   4.658   0.853  0.1204  0.5216  0.7272
 2411TIP3   OH228723   2.769   0.956  15.683  0.1221 -0.3446  0.0402
 2411TIP3    H128724   2.836   1.023  15.700 -0.9566  1.1587 -1.5740
 2411TIP3    H228725   2.704   0.970  15.752  0.4862 -0.5521  0.4355
 2412TIP3   OH228726   3.175   0.060  12.142 -0.2539  0.6586 -0.0784
 2412TIP3    H128727   3.199   0.151  12.123 -0.3183  0.5743 -0.5806
 2412TIP3    H228728   3.106   0.067  12.207 -0.6990  0.9939 -0.5830
 2413TIP3   OH228729   6.182   0.748  16.422 -0.3102 -0.9002  0.0152
 2413TIP3    H128730   6.135   0.779  16.345 -1.1261  2.7432  1.8917
 2413TIP3    H228731   6.116   0.702  16.474 -0.5205 -0.5370  0.0678
 2414TIP3   OH228732   2.944   2.163  14.850  0.3639  0.4657 -0.0056
 2414TIP3    H128733   2.977   2.191  14.765  2.4150 -0.9152  0.3056
 2414TIP3    H228734   2.999   2.210  14.913  1.7750 -1.8241  0.5241
 2415TIP3   OH228735   2.014   3.028  11.921 -0.1671 -0.2100  0.1413
 2415TIP3    H128736   2.040   2.950  11.871  2.3721  0.2496  0.6691
 2415TIP3    H228737   1.923   3.012  11.945 -0.1133 -2.3758 -0.9794
 2416TIP3   OH228738   3.180   3.842  13.206 -0.7973  0.4100 -0.2157
 2416TIP3    H128739   3.189   3.766  13.263 -1.5084  0.4050 -0.0979
 2416TIP3    H228740   3.188   3.807  13.118  3.9146  0.9074 -0.1170
 2417TIP3   OH228741   3.513   0.511  14.583 -0.1845 -0.0412  0.1177
 2417TIP3    H128742   3.450   0.439  14.577  0.7090 -0.8065 -0.2543
 2417TIP3    H228743   3.493   0.553  14.667 -0.1364 -1.2731  0.7607
 2418TIP3   OH228744   2.446   1.513   5.047  0.3174  0.0059  0.0799
 2418TIP3    H128745   2.440   1.599   5.006 -0.4654  0.0479  0.2642
 2418TIP3    H228746   2.367   1.507   5.101  0.4863 -0.7301  0.2482
 2419TIP3   OH228747   6.041   3.171  14.629 -0.6366 -0.1570 -0.5415
 2419TIP3    H128748   5.978   3.227  14.673  0.2798 -0.4097  1.1461
 2419TIP3    H228749   6.114   3.230  14.607 -0.8417 -0.1479 -1.2115
 2420TIP3   OH228750   5.250   1.640   0.138 -0.1542 -0.9252 -0.3215
 2420TIP3    H128751   5.215   1.622   0.051 -0.7817  3.5149 -1.1183
 2420TIP3    H228752   5.181   1.612   0.198 -1.6517  0.1087 -1.5042
 2421TIP3   OH228753   1.097   0.237   5.329  0.1057 -0.2858 -0.5735
 2421TIP3    H128754   1.010   0.265   5.357  0.1323  0.2221 -0.9796
 2421TIP3    H228755   1.121   0.168   5.391 -1.0180 -1.1572 -1.0843
 2422TIP3   OH228756   0.706   0.119   1.332 -0.3002  0.3113  0.3966
 2422TIP3    H128757   0.788   0.093   1.375 -0.9033 -0.3831  1.1462
 2422TIP3    H228758   0.652   0.155   1.403 -1.3191 -0.8719  0.2372
 2423TIP3   OH228759   5.144   0.610  12.319  0.1026  0.0774  0.1534
 2423TIP3    H128760   5.055   0.622  12.286  0.6098  0.3530 -1.1522
 2423TIP3    H228761   5.200   0.624  12.242  1.2213 -1.1372  0.7318
 2424TIP3   OH228762   2.403   3.947  14.151  0.6296  0.3509 -0.4157
 2424TIP3    H128763   2.479   3.891  14.135 -0.7982 -1.9659  0.7045
 2424TIP3    H228764   2.331   3.886  14.167 -1.4677  2.5040 -1.3963
 2425TIP3   OH228765   0.702   4.593   5.377  0.1148  0.5024 -0.6554
 2425TIP3    H128766   0.787   4.613   5.336  0.5040  0.9419  0.3450
 2425TIP3    H228767   0.689   4.665   5.440 -1.1236  0.5767 -0.9932
 2426TIP3   OH228768   2.791   3.286  10.876 -0.0354 -0.3590  0.3065
 2426TIP3    H128769   2.702   3.289  10.841 -0.0906 -0.3828  0.4442
 2426TIP3    H228770   2.789   3.212  10.937 -0.0938  0.0329  0.7789
 2427TIP3   OH228771   2.665   5.561   0.686 -0.6583 -0.1371  0.2171
 2427TIP3    H128772   2.593   5.615   0.721 -1.7506 -0.6923 -1.1365
 2427TIP3    H228773   2.644   5.472   0.714 -0.0811 -0.1969  0.4656
 2428TIP3   OH228774   1.107   4.998  11.678 -0.1603  0.1505  0.8520
 2428TIP3    H128775   1.182   5.008  11.618  0.3898 -0.8699  1.3606
 2428TIP3    H228776   1.081   5.088  11.697  0.2897  0.5069 -0.1393
 2429TIP3   OH228777   5.966   5.125  11.533  0.0355 -0.3153 -0.3354
 2429TIP3    H128778   5.974   5.166  11.619 -2.4133  0.3926 -0.4067
 2429TIP3    H228779   6.001   5.037  11.545  0.3493 -0.0025  1.2024
 2430TIP3   OH228780   0.600   0.818   5.094 -0.0346 -0.0094  0.6843
 2430TIP3    H128781   0.629   0.748   5.153  0.7578 -0.0698  0.2321
 2430TIP3    H228782   0.553   0.772   5.024 -0.7051  0.0360  1.0969
 2431TIP3   OH228783   3.951   6.364   6.500  0.0582 -0.3895  0.6519
 2431TIP3    H128784   4.000   6.389   6.579 -0.6789  0.6363  0.8026
 2431TIP3    H228785   3.995   6.286   6.468  2.8885  1.4411 -0.1840
 2432TIP3   OH228786   1.919   6.324  12.765  0.0185 -0.5983 -0.2626
 2432TIP3    H128787   1.826   6.343  12.782  0.0468 -0.2849 -0.4513
 2432TIP3    H228788   1.965   6.365  12.838  0.0742  0.0093 -0.6344
 2433TIP3   OH228789   6.096   0.589  13.327 -0.0616  0.4397 -0.0165
 2433TIP3    H128790   6.185   0.617  13.351  0.0737 -0.6573  0.7748
 2433TIP3    H228791   6.062   0.662  13.275  0.9548  1.2895  0.4810
 2434TIP3   OH228792   1.933   1.036   5.046 -0.0512  0.1218 -0.1651
 2434TIP3    H128793   1.886   1.039   5.129 -1.6067  2.2992 -1.0824
 2434TIP3    H228794   1.865   1.049   4.980  1.6712  2.0723 -1.5804
 2435TIP3   OH228795   2.865   2.740  12.847  0.0043  0.4620 -0.1084
 2435TIP3    H128796   2.770   2.726  12.842  0.4269 -2.4140 -0.6579
 2435TIP3    H228797   2.901   2.680  12.782  2.3033  0.6082  1.0086
 2436TIP3   OH228798   1.962   1.357   0.762  0.3651 -0.2333 -0.1547
 2436TIP3    H128799   1.896   1.288   0.774 -1.4056  1.3630 -0.4864
 2436TIP3    H228800   1.972   1.363   0.667 -0.2886  0.7088 -0.1641
 2437TIP3   OH228801   3.386   0.852   0.145 -0.8526 -0.0133 -0.3705
 2437TIP3    H128802   3.439   0.847   0.065 -0.8498  0.4249 -0.3953
 2437TIP3    H228803   3.381   0.945   0.165 -0.9063 -0.1173  0.1099
 2438TIP3   OH228804   6.118   1.344   3.412  0.1101  0.3374  0.3713
 2438TIP3    H128805   6.049   1.289   3.374  1.5830 -1.1418 -0.1898
 2438TIP3    H228806   6.137   1.304   3.496  1.1919 -0.0151 -0.0397
 2439TIP3   OH228807   1.336   4.318  16.342  0.8341  0.0242  0.0236
 2439TIP3    H128808   1.366   4.397  16.384  1.0186 -0.6621  1.1949
 2439TIP3    H228809   1.358   4.330  16.249 -0.0734  1.7635  0.0109
 2440TIP3   OH228810   5.281   6.076   5.149 -0.2874 -0.5005  0.1136
 2440TIP3    H128811   5.290   6.016   5.223 -0.5206 -2.1140 -1.1481
 2440TIP3    H228812   5.265   6.020   5.074 -1.0234  1.1837 -1.0177
 2441TIP3   OH228813   1.781   2.770   3.563  0.4340  0.4794  0.2702
 2441TIP3    H128814   1.842   2.734   3.498 -0.8404 -1.6831  0.1794
 2441TIP3    H228815   1.836   2.800   3.635  1.6986  0.1260 -0.5331
 2442TIP3   OH228816   6.142   2.126   3.878  0.2962 -0.5592  0.0833
 2442TIP3    H128817   6.172   2.151   3.966  0.8923  2.2751 -0.8835
 2442TIP3    H228818   6.214   2.073   3.843  0.7997 -0.2741  0.6775
 2443TIP3   OH228819   5.432   0.874   6.171  0.0884  0.0356  0.1663
 2443TIP3    H128820   5.356   0.912   6.216  0.8421  1.8880 -0.0622
 2443TIP3    H228821   5.411   0.781   6.161 -1.7788  0.3694  0.8537
 2444TIP3   OH228822   1.805   3.589  14.021 -0.0982 -0.6545 -0.6575
 2444TIP3    H128823   1.837   3.505  13.990 -1.3423 -1.0361 -0.9448
 2444TIP3    H228824   1.880   3.629  14.065  0.9327 -1.2433 -1.8454
 2445TIP3   OH228825   0.541   4.218  10.802  0.3637  0.1173 -0.0976
 2445TIP3    H128826   0.588   4.138  10.778  0.2344 -0.3250  1.0593
 2445TIP3    H228827   0.485   4.237  10.727  1.1815 -0.2753 -0.8190
 2446TIP3   OH228828   2.514   0.768  15.174  0.9490  0.4586  0.1538
 2446TIP3    H128829   2.466   0.711  15.235  1.4780  0.9320  1.0212
 2446TIP3    H228830   2.449   0.831  15.145  0.2378 -0.8598 -1.1764
 2447TIP3   OH228831   6.416   5.884  13.689 -0.4107 -0.3888  0.0259
 2447TIP3    H128832   6.393   5.792  13.684 -1.2059 -0.4489  3.5345
 2447TIP3    H228833   6.332   5.929  13.697  0.0498  0.5406 -0.2845
 2448TIP3   OH228834   4.683   4.264  12.829 -0.4565  0.6150  0.5322
 2448TIP3    H128835   4.769   4.302  12.810 -0.5019 -0.1215 -1.1860
 2448TIP3    H228836   4.703   4.175  12.859 -0.6410  0.2622 -0.3808
 2449TIP3   OH228837   2.788   5.651   1.495 -0.2071  0.0996  0.0189
 2449TIP3    H128838   2.788   5.624   1.403  0.4356  1.8072 -0.4956
 2449TIP3    H228839   2.706   5.700   1.505  0.4187  1.1932 -0.0537
 2450TIP3   OH228840   2.468   2.701   3.868  0.3279 -0.3972 -0.3719
 2450TIP3    H128841   2.428   2.621   3.833  1.7105 -1.2464 -0.0480
 2450TIP3    H228842   2.408   2.771   3.843 -0.2561 -1.3802 -1.7902
 2451TIP3   OH228843   1.682   2.892   2.688  0.3332  0.0513 -0.3558
 2451TIP3    H128844   1.714   2.823   2.746  1.7522  1.2261  0.2814
 2451TIP3    H228845   1.731   2.880   2.606  0.4447  0.1742 -0.3083
 2452TIP3   OH228846   4.740   0.463  16.787  0.2181 -0.4507 -0.1677
 2452TIP3    H128847   4.674   0.413  16.835 -0.7100  0.2513 -0.6957
 2452TIP3    H228848   4.717   0.555  16.802  1.0956 -0.1898 -0.3399
 2453TIP3   OH228849   5.998   2.326  16.690 -0.3685  0.1484 -0.0338
 2453TIP3    H128850   6.053   2.353  16.616  0.9593 -0.2314  0.8055
 2453TIP3    H228851   6.031   2.240  16.715 -0.0722  0.7534  1.7163
 2454TIP3   OH228852   5.499   2.420  14.571 -0.9765 -0.8124  0.4826
 2454TIP3    H128853   5.506   2.379  14.656 -1.0468  0.4033  1.0894
 2454TIP3    H228854   5.575   2.477  14.565  0.3277 -2.6612 -1.2775
 2455TIP3   OH228855   3.421   3.981   0.908 -0.8022 -0.6485  0.2283
 2455TIP3    H128856   3.376   4.065   0.907  1.0240  0.3646 -0.1568
 2455TIP3    H228857   3.390   3.935   0.830 -0.5622  0.3790 -0.4893
 2456TIP3   OH228858   5.606   4.275   5.233 -0.2494 -0.0922 -0.6737
 2456TIP3    H128859   5.617   4.245   5.143  1.0728  0.4495 -0.7132
 2456TIP3    H228860   5.530   4.228   5.266 -0.7435 -0.2825 -2.0787
 2457TIP3   OH228861   2.417   3.383  16.328  0.0714 -0.2443 -0.4036
 2457TIP3    H128862   2.332   3.395  16.284 -0.4614 -0.1387  0.6488
 2457TIP3    H228863   2.396   3.333  16.407  1.2036 -1.5045 -0.8879
 2458TIP3   OH228864   1.631   3.259  13.966  0.6606  0.2756  0.0451
 2458TIP3    H128865   1.555   3.259  13.908 -0.4373 -1.6639  1.4280
 2458TIP3    H228866   1.637   3.349  13.998  0.3308  0.9829 -1.8103
 2459TIP3   OH228867   6.163   0.141   0.881 -0.1143  0.3431 -0.2457
 2459TIP3    H128868   6.186   0.072   0.944 -2.1106 -0.4445 -0.3591
 2459TIP3    H228869   6.184   0.223   0.926 -0.7793 -0.2354  1.1329
 2460TIP3   OH228870   6.360   2.269   4.032 -0.4040  0.0011  0.1032
 2460TIP3    H128871   6.445   2.256   4.073  0.2421  2.8801 -0.2044
 2460TIP3    H228872   6.308   2.316   4.098 -1.2612 -0.4128 -0.2655
 2461TIP3   OH228873   4.708   4.591  15.760 -0.1807  0.8201  0.6191
 2461TIP3    H128874   4.736   4.682  15.749  1.6357 -0.0474 -2.1834
 2461TIP3    H228875   4.774   4.552  15.817  0.7064  0.5092 -0.6011
 2462TIP3   OH228876   4.118   2.462  17.124  0.1658  0.2135 -0.3310
 2462TIP3    H128877   4.108   2.391  17.187 -0.4794 -1.2390 -2.0092
 2462TIP3    H228878   4.184   2.520  17.162  0.5283 -1.1636  1.1803
 2463TIP3   OH228879   6.026   0.112  14.439  0.2856 -0.7495  0.2259
 2463TIP3    H128880   6.014   0.073  14.353  0.5080 -0.9694  0.2929
 2463TIP3    H228881   5.938   0.135  14.469  0.2662 -0.0869 -0.3269
 2464TIP3   OH228882   2.050   6.547  11.646  0.2347  0.1155  0.2512
 2464TIP3    H128883   2.108   6.595  11.587  0.5102 -1.6988 -0.9907
 2464TIP3    H228884   2.088   6.459  11.651 -1.3460 -0.5512  0.9363
 2465TIP3   OH228885   3.363   1.643  11.440 -0.1704  0.0520 -0.4211
 2465TIP3    H128886   3.381   1.698  11.516 -1.5275 -1.0361  0.7036
 2465TIP3    H228887   3.283   1.679  11.402 -1.5116 -1.6079  0.7843
 2466TIP3   OH228888   6.197   4.493  15.959 -0.1061 -0.3515 -0.8236
 2466TIP3    H128889   6.291   4.477  15.973  0.0369  1.6206  0.6606
 2466TIP3    H228890   6.154   4.420  16.005  0.6290  1.1276  2.3225
 2467TIP3   OH228891   4.633   6.421   1.545  0.0852 -0.2216  0.5854
 2467TIP3    H128892   4.708   6.458   1.498  0.0566 -0.0653  0.6615
 2467TIP3    H228893   4.671   6.389   1.627  0.0974 -0.2934  0.5517
 2468TIP3   OH228894   1.850   5.826  10.422  0.0262 -0.0201 -0.2418
 2468TIP3    H128895   1.842   5.808  10.516  0.2315 -1.5130 -0.4975
 2468TIP3    H228896   1.939   5.862  10.413 -0.0103  0.1750  0.1372
 2469TIP3   OH228897   5.976   2.672   4.950 -0.0559 -0.0902  0.2776
 2469TIP3    H128898   5.901   2.731   4.956 -0.5371 -0.7408  0.8005
 2469TIP3    H228899   6.036   2.702   5.019  0.4536  0.8122 -0.5381
 2470TIP3   OH228900   0.480   2.495  12.647 -0.1024 -0.0658  0.4087
 2470TIP3    H128901   0.463   2.423  12.709 -0.7179 -0.7179 -0.4975
 2470TIP3    H228902   0.573   2.514  12.657  0.2948 -1.6699 -0.0334
 2471TIP3   OH228903   4.886   4.747  16.251  0.4879  0.4158 -0.0263
 2471TIP3    H128904   4.842   4.795  16.321  0.5004  0.0852  0.2088
 2471TIP3    H228905   4.841   4.662  16.248  2.0085 -0.4564  1.1514
 2472TIP3   OH228906   5.144   5.058  13.544  0.1126  0.2868 -0.0610
 2472TIP3    H128907   5.120   5.063  13.451  1.4243 -1.3776 -0.5133
 2472TIP3    H228908   5.169   5.147  13.567  0.3625  0.5987 -1.4714
 2473TIP3   OH228909   3.757   4.526   1.067 -0.4371 -0.3427 -0.0502
 2473TIP3    H128910   3.677   4.494   1.025 -0.9153 -0.2824  0.7995
 2473TIP3    H228911   3.793   4.589   1.005  0.3837 -2.3207 -1.6402
 2474TIP3   OH228912   5.315   3.920  16.730  0.3192 -0.1449 -0.2695
 2474TIP3    H128913   5.370   3.844  16.711 -0.3299 -0.6553 -0.0993
 2474TIP3    H228914   5.362   3.993  16.690  1.0061 -0.6116 -0.3308
 2475TIP3   OH228915   6.635   4.072  13.539 -0.1521  0.1437  0.2003
 2475TIP3    H128916   6.664   4.158  13.508 -0.3301  0.0063 -0.3605
 2475TIP3    H228917   6.546   4.064  13.506  0.4264 -0.9351 -1.1358
 2476TIP3   OH228918   4.813   1.763  11.373  0.4114 -0.5868 -0.3002
 2476TIP3    H128919   4.835   1.793  11.285 -0.1010 -0.5951 -0.4359
 2476TIP3    H228920   4.814   1.842  11.427  2.8996 -0.8892  0.1470
 2477TIP3   OH228921   6.544   3.211   5.518  0.3493 -0.1768 -0.3989
 2477TIP3    H128922   6.514   3.283   5.574 -0.1339 -1.6049  1.2528
 2477TIP3    H228923   6.639   3.217   5.521  0.3036  0.9076 -0.9653
 2478TIP3   OH228924   3.529   6.240  11.661  0.5016  0.2889  0.3389
 2478TIP3    H128925   3.516   6.273  11.572  2.5202 -0.1596 -0.1453
 2478TIP3    H228926   3.474   6.162  11.665 -0.6323  1.0500 -0.0586
 2479TIP3   OH228927   2.397   5.868  14.459 -0.0070 -0.3968 -0.3426
 2479TIP3    H128928   2.450   5.873  14.539  0.8002  0.4777 -0.9176
 2479TIP3    H228929   2.315   5.911  14.482 -0.3241 -1.4006  0.4359
 2480TIP3   OH228930   2.422   4.714  15.939 -0.2876 -0.2732  0.7360
 2480TIP3    H128931   2.349   4.718  15.877  0.4391  0.5028 -0.0690
 2480TIP3    H228932   2.443   4.621  15.944 -0.3976 -0.3502 -0.1180
 2481TIP3   OH228933   0.103   3.646   4.148 -0.0571 -0.6271 -0.4956
 2481TIP3    H128934   0.014   3.614   4.139 -0.2244 -0.4139  0.4054
 2481TIP3    H228935   0.117   3.701   4.071  0.1346 -2.5947 -1.9082
 2482TIP3   OH228936   2.736   4.613  11.518 -0.1080 -0.2954  0.1495
 2482TIP3    H128937   2.690   4.598  11.600 -1.2914  2.1646 -0.0243
 2482TIP3    H228938   2.717   4.704  11.496  2.8866  0.0839 -1.1701
 2483TIP3   OH228939   6.123   4.927  16.751 -0.0985 -0.1327  0.3755
 2483TIP3    H128940   6.205   4.877  16.753 -2.7770 -4.8455 -0.2341
 2483TIP3    H228941   6.068   4.881  16.688 -4.1230  1.3929  2.5693
 2484TIP3   OH228942   0.976   5.460   3.925  0.1461 -0.1471 -0.0674
 2484TIP3    H128943   0.883   5.473   3.904 -0.0009 -2.5754 -1.1150
 2484TIP3    H228944   1.009   5.403   3.855  1.8910 -1.0312  1.4273
 2485TIP3   OH228945   3.159   2.014  15.815  0.7368 -0.5859  0.3275
 2485TIP3    H128946   3.197   1.938  15.770 -1.5897 -0.6534 -1.5804
 2485TIP3    H228947   3.121   1.978  15.895  0.1782 -1.3401 -0.2727
 2486TIP3   OH228948   2.018   2.827   3.732  0.2835 -0.1222 -0.3894
 2486TIP3    H128949   2.088   2.833   3.666 -0.7389 -2.7028 -1.7759
 2486TIP3    H228950   1.971   2.910   3.725  3.7044  2.0576  1.1933
 2487TIP3   OH228951   4.240   6.643   3.989 -0.9370  0.2504  0.1133
 2487TIP3    H128952   4.201   6.557   3.973  0.9771 -0.9501  1.5797
 2487TIP3    H228953   4.270   6.638   4.080  1.3334  1.5920 -0.5327
 2488TIP3   OH228954   5.959   6.351  11.329  0.5767  0.0742 -0.3550
 2488TIP3    H128955   5.936   6.430  11.378  0.0514  0.1965 -0.8010
 2488TIP3    H228956   5.968   6.284  11.397 -1.1712  0.0026 -0.1537
 2489TIP3   OH228957   5.084   2.684   4.678 -0.0049 -0.5591 -0.2188
 2489TIP3    H128958   5.008   2.714   4.628 -0.3979  0.7068  1.1150
 2489TIP3    H228959   5.081   2.589   4.672 -1.8563 -0.5268  0.0407
 2490TIP3   OH228960   3.711   1.748   1.693 -0.1534 -0.0842 -0.2238
 2490TIP3    H128961   3.788   1.764   1.748 -0.0644 -1.0801 -0.0361
 2490TIP3    H228962   3.718   1.812   1.622  0.3667  0.4224  0.2802
 2491TIP3   OH228963   6.476   1.940  10.560  0.0629 -0.0315  0.7617
 2491TIP3    H128964   6.453   2.032  10.554 -3.0841 -0.8085  0.4442
 2491TIP3    H228965   6.561   1.940  10.605 -0.5890  2.9111  2.1299
 2492TIP3   OH228966   3.468   3.056   4.797 -0.5614 -0.0098 -0.1006
 2492TIP3    H128967   3.449   3.124   4.861 -2.0903  0.9945 -1.5601
 2492TIP3    H228968   3.540   3.092   4.744 -1.3106  0.4631 -0.8160
 2493TIP3   OH228969   6.441   1.793  11.248  0.0318 -0.1413  0.1010
 2493TIP3    H128970   6.436   1.850  11.171  1.6641 -0.2859 -0.1279
 2493TIP3    H228971   6.500   1.723  11.222  0.6874 -0.1319  1.5272
 2494TIP3   OH228972   5.796   1.853   1.918 -0.1908 -0.1809 -0.4464
 2494TIP3    H128973   5.837   1.939   1.921 -0.3355 -0.0947 -0.9333
 2494TIP3    H228974   5.710   1.869   1.879 -0.1691 -0.5596 -0.6531
 2495TIP3   OH228975   2.012   3.819  11.068 -0.4846  0.1455  0.1045
 2495TIP3    H128976   2.100   3.812  11.030 -0.5450 -0.3898  0.0665
 2495TIP3    H228977   1.953   3.786  11.001 -0.6900  0.2100  0.2512
 2496TIP3   OH228978   5.735   1.953  16.339  1.1813  0.5643 -0.6268
 2496TIP3    H128979   5.766   2.040  16.317  0.6449  0.8187 -0.3939
 2496TIP3    H228980   5.695   1.920  16.259  1.2430  0.5967 -0.6704
 2497TIP3   OH228981   6.016   1.747   2.178  0.2813  0.1900  0.3106
 2497TIP3    H128982   6.069   1.754   2.099  0.1433  0.6911  0.2638
 2497TIP3    H228983   6.019   1.834   2.217  0.3222 -0.0452  0.8408
 2498TIP3   OH228984   5.754   6.740  10.570  0.2137  0.4834  0.1448
 2498TIP3    H128985   5.822   6.674  10.554 -0.3740 -0.0916 -0.0084
 2498TIP3    H228986   5.802   6.822  10.580  0.9776 -0.0122  0.6182
 2499TIP3   OH228987   3.026   6.376  12.928  0.2200 -0.0284 -0.2505
 2499TIP3    H128988   2.977   6.446  12.884  0.7660  0.3114 -0.3160
 2499TIP3    H228989   2.970   6.298  12.918  0.2464  0.0842 -1.3765
 2500TIP3   OH228990   4.872   3.314  16.171  0.0121 -0.2517 -0.0693
 2500TIP3    H128991   4.784   3.327  16.208 -0.3898 -1.3591 -0.5876
 2500TIP3    H228992   4.868   3.356  16.085 -0.2470 -0.8922 -0.3800
 2501TIP3   OH228993   2.709   3.147  14.404 -0.1318 -0.0266  0.1296
 2501TIP3    H128994   2.671   3.109  14.325  4.2494 -2.3397 -1.0590
 2501TIP3    H228995   2.665   3.102  14.476 -2.0731 -0.0523 -1.0350
 2502TIP3   OH228996   6.251   3.510  12.389  0.3673  0.1206  0.1512
 2502TIP3    H128997   6.307   3.530  12.464  0.6407  0.6910 -0.2015
 2502TIP3    H228998   6.271   3.579  12.326 -0.7289  0.3131  0.0160
 2503TIP3   OH228999   3.846   2.063   4.130 -0.3791 -0.4850 -0.1371
 2503TIP3    H129000   3.852   2.065   4.225  0.9372 -0.4960 -0.2076
 2503TIP3    H229001   3.881   2.148   4.102  1.1767 -1.2916 -0.6909
 2504TIP3   OH229002   4.068   3.894   4.038  0.2530  0.3055 -0.2166
 2504TIP3    H129003   4.115   3.977   4.026 -1.0227  0.9765 -0.6349
 2504TIP3    H229004   4.079   3.873   4.131  0.1981  1.1605 -0.0162
 2505TIP3   OH229005   3.328   5.371   3.527 -0.0203 -0.5024 -0.4115
 2505TIP3    H129006   3.345   5.308   3.596 -0.4631  0.2312  0.3836
 2505TIP3    H229007   3.383   5.446   3.549 -2.2573  0.8533  0.7374
 2506TIP3   OH229008   0.732   5.745  13.996  0.3448 -0.0728  0.5960
 2506TIP3    H129009   0.748   5.802  14.071 -0.0701  1.7784 -0.6722
 2506TIP3    H229010   0.642   5.715  14.006 -0.2661  1.5158 -0.0065
 2507TIP3   OH229011   5.918   4.712  15.256 -0.9780 -0.1444  0.4025
 2507TIP3    H129012   5.905   4.799  15.218 -1.7374 -0.2963  0.2975
 2507TIP3    H229013   5.841   4.663  15.228 -1.9103 -0.0507  2.7290
 2508TIP3   OH229014   2.463   4.406   0.635  0.1678 -0.5541 -0.0626
 2508TIP3    H129015   2.526   4.340   0.608  0.1950  0.0140 -1.4101
 2508TIP3    H229016   2.516   4.484   0.653  0.1238 -0.8389  1.4002
 2509TIP3   OH229017   4.459   4.549   0.050  0.7568 -0.0556 -0.5320
 2509TIP3    H129018   4.430   4.620   0.108  1.1660 -0.2388 -0.1030
 2509TIP3    H229019   4.444   4.583  -0.039  2.6438  1.3132 -0.3709
 2510TIP3   OH229020   1.511   6.350   3.034  0.3922 -0.4727  0.5666
 2510TIP3    H129021   1.492   6.268   2.989 -3.6653 -1.8712  4.4325
 2510TIP3    H229022   1.605   6.350   3.046  0.7877 -3.1601 -2.0227
 2511TIP3   OH229023   0.845   1.403   5.147  0.1439 -0.5740  0.1088
 2511TIP3    H129024   0.858   1.496   5.167 -0.7221 -0.5482  0.5822
 2511TIP3    H229025   0.814   1.365   5.230  3.1553 -1.8524  0.7281
 2512TIP3   OH229026   2.812   1.708  11.844  0.3905 -0.1397  0.5728
 2512TIP3    H129027   2.848   1.699  11.756 -1.2651  0.7659 -0.2167
 2512TIP3    H229028   2.801   1.618  11.875  1.3359 -0.4555  0.0110
 2513TIP3   OH229029   6.735   1.106  15.362 -0.0750  0.0214  0.8837
 2513TIP3    H129030   6.772   1.122  15.449 -0.3500  1.7071  0.7120
 2513TIP3    H229031   6.704   1.192  15.333  0.9019 -0.3151 -1.2919
 2514TIP3   OH229032   1.293   3.623  16.634  0.7918  0.0330  0.1176
 2514TIP3    H129033   1.363   3.677  16.671 -0.8191  1.4931  1.1620
 2514TIP3    H229034   1.215   3.679  16.639 -0.4141 -1.4693 -1.2014
 2515TIP3   OH229035   3.759   3.974   3.759 -0.5333 -0.1750  0.2354
 2515TIP3    H129036   3.775   4.016   3.843  0.5576 -1.4499  0.6714
 2515TIP3    H229037   3.682   3.919   3.774 -1.1769  0.6668  0.0195
 2516TIP3   OH229038   3.892   3.764  15.372 -0.0464  0.8845 -0.4641
 2516TIP3    H129039   3.861   3.852  15.352 -0.8582  0.3526 -1.5790
 2516TIP3    H229040   3.987   3.772  15.374  0.0377  1.2174 -3.4146
 2517TIP3   OH229041   2.890   5.625   5.979  0.6185 -0.0807  0.6857
 2517TIP3    H129042   2.833   5.702   5.976  0.0679 -0.5182 -0.3617
 2517TIP3    H229043   2.921   5.622   6.069 -0.0497  0.8663  0.9589
 2518TIP3   OH229044   2.740   6.425   2.075  0.1602 -0.0323  0.4250
 2518TIP3    H129045   2.658   6.437   2.123  1.0659  1.1611  1.7070
 2518TIP3    H229046   2.717   6.441   1.983 -1.0332  0.3250  0.7816
 2519TIP3   OH229047   4.913   5.039   1.528 -0.0642  0.8740 -0.2270
 2519TIP3    H129048   4.860   4.965   1.498  1.8697 -0.0215 -1.5632
 2519TIP3    H229049   4.851   5.098   1.569 -2.0087 -0.4052 -1.2544
 2520TIP3   OH229050   6.023   6.558  15.683 -0.1190  0.2480  0.1076
 2520TIP3    H129051   6.101   6.613  15.682 -0.3000  0.4757 -1.3839
 2520TIP3    H229052   6.006   6.543  15.776  0.3885  2.0470  0.4955
 2521TIP3   OH229053   1.325   6.562  11.373  0.3199  0.2613  0.3150
 2521TIP3    H129054   1.290   6.651  11.366  0.0311  0.1129 -0.1447
 2521TIP3    H229055   1.259   6.507  11.330 -1.1605 -0.6168  3.5812
 2522TIP3   OH229056   1.914   3.085   0.957  0.4327 -0.4502 -1.1741
 2522TIP3    H129057   1.924   3.084   0.862 -0.3211  0.2076 -1.2716
 2522TIP3    H229058   1.821   3.106   0.971  0.0234 -2.7013 -0.3172
 2523TIP3   OH229059   4.532   1.145   5.781 -0.2934 -0.0340  0.7332
 2523TIP3    H129060   4.583   1.064   5.793 -1.7103 -0.9376  0.8049
 2523TIP3    H229061   4.459   1.136   5.842 -1.1763  0.7092 -0.2062
 2524TIP3   OH229062   2.511   2.435  12.591 -0.7035 -0.0070 -0.0816
 2524TIP3    H129063   2.533   2.524  12.562  1.7870 -0.4105  0.4903
 2524TIP3    H229064   2.555   2.378  12.528  0.5196 -0.8483  1.5180
 2525TIP3   OH229065   5.365   2.416  14.929 -0.8275 -0.0174  0.1465
 2525TIP3    H129066   5.401   2.461  15.006 -0.6120 -0.2767  0.1968
 2525TIP3    H229067   5.295   2.474  14.899 -2.0234 -0.7370  1.5231
 2526TIP3   OH229068   2.122   2.023  12.972 -0.2717  0.1994  0.3854
 2526TIP3    H129069   2.199   2.054  12.924  0.0297  1.0695  1.4169
 2526TIP3    H229070   2.122   1.928  12.958 -0.0740  0.4084 -1.1542
 2527TIP3   OH229071   2.265   5.769   4.412  0.7245  0.0127 -0.6237
 2527TIP3    H129072   2.244   5.859   4.438 -0.6921 -0.8530  1.3591
 2527TIP3    H229073   2.194   5.744   4.353 -0.0113 -0.4828  0.4516
 2528TIP3   OH229074   3.538   1.399  14.687 -0.3878  0.0297  0.7777
 2528TIP3    H129075   3.574   1.442  14.609  0.4937 -0.7474  0.7499
 2528TIP3    H229076   3.596   1.427  14.758  0.3589 -1.3410  0.7105
 2529TIP3   OH229077   3.417   0.586  13.126  0.0573 -0.7054  0.0681
 2529TIP3    H129078   3.416   0.619  13.215 -1.1184 -0.9062  0.1482
 2529TIP3    H229079   3.480   0.515  13.126  1.5862  0.6223  0.2344
 2530TIP3   OH229080   2.450   2.339  11.790 -0.6580  0.4086  0.3446
 2530TIP3    H129081   2.377   2.285  11.760  0.4121 -0.8424 -0.0384
 2530TIP3    H229082   2.446   2.417  11.733  0.5059 -1.3161 -2.1837
 2531TIP3   OH229083   2.980   1.108   1.469  0.4302  0.5308  1.0331
 2531TIP3    H129084   3.019   1.043   1.528  1.0063 -0.5920 -0.5437
 2531TIP3    H229085   2.904   1.141   1.516 -1.7658 -3.6143  0.6174
 2532TIP3   OH229086   3.628   3.260  12.467 -0.2055  0.5987 -0.3190
 2532TIP3    H129087   3.710   3.217  12.445 -0.0805 -0.7396  2.5317
 2532TIP3    H229088   3.566   3.229  12.400  0.8506 -0.8934 -0.6378
 2533TIP3   OH229089   2.209   3.792   2.671 -0.1267 -0.1415  0.1790
 2533TIP3    H129090   2.203   3.865   2.609  0.1164  0.9226  1.3873
 2533TIP3    H229091   2.200   3.833   2.757  0.5638 -1.4763  0.8967
 2534TIP3   OH229092   5.986   1.071   2.601 -0.1130 -0.0679  0.5923
 2534TIP3    H129093   6.001   1.019   2.522  0.2270  2.6336 -1.1583
 2534TIP3    H229094   6.035   1.025   2.669 -0.7220 -2.6478 -0.6291
 2535TIP3   OH229095   2.454   0.556   1.969 -0.4476  0.0000  0.0644
 2535TIP3    H129096   2.481   0.531   1.881 -0.6699  1.9750 -0.5873
 2535TIP3    H229097   2.534   0.553   2.021  0.1488  1.2509 -0.7805
 2536TIP3   OH229098   0.087   6.490   6.818 -0.2414 -0.5231 -0.0957
 2536TIP3    H129099   0.067   6.578   6.851 -0.8398 -0.6940  0.0013
 2536TIP3    H229100   0.172   6.499   6.776 -0.2730  0.0932 -0.0318
 2537TIP3   OH229101   3.663   6.691  15.591 -0.5951  0.0474  0.0781
 2537TIP3    H129102   3.749   6.731  15.600 -0.9521  0.6799  0.7304
 2537TIP3    H229103   3.621   6.705  15.675 -1.0175 -1.0297  0.0656
 2538TIP3   OH229104   2.004   2.316  11.962  0.4143 -0.1938  0.2449
 2538TIP3    H129105   1.917   2.325  11.922  0.9375 -1.7344 -1.2995
 2538TIP3    H229106   2.022   2.222  11.958  1.9301  0.0519  1.0803
 2539TIP3   OH229107   3.192   3.884   0.101 -0.3704  0.3546 -0.0270
 2539TIP3    H129108   3.149   3.967   0.082  1.1299  1.1112 -0.1684
 2539TIP3    H229109   3.173   3.829   0.025 -1.0876  0.6747 -0.0825
 2540TIP3   OH229110   3.366   0.052  11.717  0.2490 -0.7756 -0.4020
 2540TIP3    H129111   3.295   0.108  11.686  0.9282  1.4829  1.9615
 2540TIP3    H229112   3.331  -0.037  11.710 -1.8731  0.1219 -1.6334
 2541TIP3   OH229113   0.798   3.177   0.991 -0.3686  0.1966  0.1810
 2541TIP3    H129114   0.834   3.175   1.079 -0.2542  0.9026  0.1560
 2541TIP3    H229115   0.791   3.085   0.965  1.3137  0.0619  0.2130
 2542TIP3   OH229116   0.741   4.390  12.713 -0.4833 -0.1130  0.1200
 2542TIP3    H129117   0.824   4.423  12.679  0.0138 -1.7936 -0.3737
 2542TIP3    H229118   0.681   4.397  12.638 -0.7567  0.9498  0.4290
 2543TIP3   OH229119   2.663   6.035  15.632 -0.0050  0.1113 -0.0869
 2543TIP3    H129120   2.595   6.051  15.567 -0.4317 -1.0198  0.0588
 2543TIP3    H229121   2.697   5.948  15.611 -2.0226 -1.4595  2.7735
 2544TIP3   OH229122   3.288   3.622   4.006 -0.0119 -0.2420 -0.0770
 2544TIP3    H129123   3.321   3.594   4.091  0.5901  0.1754 -0.1693
 2544TIP3    H229124   3.265   3.541   3.961  0.1657 -0.4921  0.2821
 2545TIP3   OH229125   6.371   1.614   5.264 -0.4490  0.2584  0.5207
 2545TIP3    H129126   6.324   1.624   5.347  0.0031  2.2861  0.5577
 2545TIP3    H229127   6.425   1.693   5.257  1.4343 -1.0650 -0.4923
 2546TIP3   OH229128   0.532   3.394  16.411 -0.0512  0.0157  0.6076
 2546TIP3    H129129   0.477   3.416  16.486  1.4033  0.3741  1.5848
 2546TIP3    H229130   0.615   3.437  16.429  0.1706  0.4830 -1.4437
 2547TIP3   OH229131   5.285   4.871  11.106  0.4247 -0.0106  0.1545
 2547TIP3    H129132   5.304   4.957  11.069  0.7335 -0.0554  0.2087
 2547TIP3    H229133   5.229   4.889  11.181 -0.3906  0.0642 -0.4593
 2548TIP3   OH229134   0.736   2.295  15.036 -0.1971  0.0102  0.2613
 2548TIP3    H129135   0.661   2.355  15.035  0.5786  0.9953  0.8686
 2548TIP3    H229136   0.706   2.220  15.088 -1.0054  0.0835 -0.0973
 2549TIP3   OH229137   5.186   5.369  11.676 -0.1223 -0.4186  0.4422
 2549TIP3    H129138   5.195   5.283  11.718 -0.1115 -1.0719 -0.8707
 2549TIP3    H229139   5.110   5.359  11.619  0.2658  0.2500 -0.1936
 2550TIP3   OH229140   6.211   4.230   3.778  0.3130  0.0215  0.0726
 2550TIP3    H129141   6.134   4.253   3.829  0.1242 -2.2188  0.8483
 2550TIP3    H229142   6.183   4.155   3.725  1.8305 -0.5861  0.0996
 2551TIP3   OH229143   2.354   2.035  16.834  0.8940 -0.6247 -0.2842
 2551TIP3    H129144   2.301   2.106  16.870 -1.8776 -2.3471 -0.8375
 2551TIP3    H229145   2.358   1.969  16.903  0.0356 -1.6452 -1.1810
 2552TIP3   OH229146   2.144   0.511   2.204 -0.4452  0.1507  0.1966
 2552TIP3    H129147   2.071   0.558   2.163 -1.0502 -0.7067  0.2788
 2552TIP3    H229148   2.193   0.474   2.131  0.8328  2.0328  0.0491
 2553TIP3   OH229149   1.524   6.600   1.629 -0.2468  0.2383  0.1863
 2553TIP3    H129150   1.458   6.590   1.698 -0.0942 -0.1215  0.2798
 2553TIP3    H229151   1.577   6.674   1.657 -0.4650  0.3802  0.2288
 2554TIP3   OH229152   2.701   5.878   4.789 -0.2850  0.3259 -0.8121
 2554TIP3    H129153   2.640   5.942   4.826  0.4492 -0.1272  1.2878
 2554TIP3    H229154   2.783   5.894   4.836  0.1127 -1.6433 -0.7936
 2555TIP3   OH229155   2.873   4.916  14.263  0.2455 -0.1504  0.1095
 2555TIP3    H129156   2.818   4.920  14.185  1.3069 -1.8663 -0.7543
 2555TIP3    H229157   2.879   4.822  14.283  1.5672  0.1379  1.1203
 2556TIP3   OH229158   6.755   4.602  10.561  0.5385  0.2062 -0.3815
 2556TIP3    H129159   6.789   4.664  10.625 -1.5879  0.9754  0.0474
 2556TIP3    H229160   6.678   4.564  10.604 -0.3115 -0.0198 -2.0839
 2557TIP3   OH229161   0.527   0.612   3.895 -0.0997 -0.2030  0.0003
 2557TIP3    H129162   0.563   0.530   3.929 -0.1472 -0.2156  0.0198
 2557TIP3    H229163   0.436   0.612   3.923  0.4127  0.7910  1.7306
 2558TIP3   OH229164   1.386   1.023   1.213  0.0944  0.6716 -0.2704
 2558TIP3    H129165   1.345   1.058   1.134  1.3278  2.2929 -0.2131
 2558TIP3    H229166   1.359   1.083   1.283 -0.8387 -0.6461  0.5279
 2559TIP3   OH229167   4.096   5.729   0.651 -0.1990 -0.1566 -0.5576
 2559TIP3    H129168   4.058   5.802   0.701  1.1017  0.5805 -0.6279
 2559TIP3    H229169   4.157   5.687   0.711 -1.8822 -1.9884 -0.1044
 2560TIP3   OH229170   3.244   5.594   0.283 -0.2420  0.1009 -0.0248
 2560TIP3    H129171   3.196   5.558   0.358 -0.4050  0.3160 -0.0272
 2560TIP3    H229172   3.313   5.647   0.321  0.2552 -0.5428 -0.0150
 2561TIP3   OH229173   5.661   5.325   2.418 -0.1925  0.2884 -0.1914
 2561TIP3    H129174   5.718   5.353   2.489  1.3189 -0.6817 -0.9983
 2561TIP3    H229175   5.573   5.329   2.455  0.3192  2.3586  0.8942
 2562TIP3   OH229176   3.077   4.405  13.915 -0.0927 -0.6514  0.1824
 2562TIP3    H129177   2.985   4.390  13.896  0.1756 -1.5428 -0.4396
 2562TIP3    H229178   3.116   4.425  13.830  0.2767 -0.1902  0.4537
 2563TIP3   OH229179   3.933   6.339   0.947 -0.1473  0.3035 -0.4586
 2563TIP3    H129180   3.844   6.326   0.982 -0.4064  2.3010 -0.3545
 2563TIP3    H229181   3.985   6.270   0.988 -1.0633  0.8450  1.6520
 2564TIP3   OH229182   4.525   6.670  15.206  0.0233  0.8236  0.5922
 2564TIP3    H129183   4.574   6.589  15.194 -0.4145  0.9529 -2.5983
 2564TIP3    H229184   4.458   6.649  15.271  1.3896 -0.6710  1.5409
 2565TIP3   OH229185   0.085   0.058  11.935  0.0537 -0.0562  0.7256
 2565TIP3    H129186   0.170   0.103  11.929  0.5110 -1.2447 -2.5567
 2565TIP3    H229187   0.107  -0.034  11.944 -0.8299 -0.5921 -2.0841
 2566TIP3   OH229188   0.851   4.776   4.640  0.4581  0.4847  0.2307
 2566TIP3    H129189   0.920   4.802   4.700  0.3073 -1.2035  1.1644
 2566TIP3    H229190   0.897   4.739   4.564  0.6198  1.5518 -0.1988
 2567TIP3   OH229191   6.667   5.878   3.474 -0.2521 -0.1253  0.5085
 2567TIP3    H129192   6.710   5.812   3.528  1.8795  0.2951 -0.6317
 2567TIP3    H229193   6.605   5.828   3.421 -0.3434 -0.8944  1.3204
 2568TIP3   OH229194   5.670   6.118  12.145  0.5623 -0.1108 -0.0583
 2568TIP3    H129195   5.737   6.067  12.100 -0.1279 -0.4863 -0.6882
 2568TIP3    H229196   5.599   6.125  12.081 -0.1106  0.0365  0.6954
 2569TIP3   OH229197   3.277   2.579  14.057 -0.1214 -0.4876  0.2245
 2569TIP3    H129198   3.246   2.607  13.971  0.9764  0.2306  0.0532
 2569TIP3    H229199   3.217   2.623  14.119 -1.6824 -1.9883 -0.1801
 2570TIP3   OH229200   3.275   6.784   6.641  0.3926  1.2183 -0.3515
 2570TIP3    H129201   3.290   6.699   6.683  1.7165  1.2426 -0.7835
 2570TIP3    H229202   3.252   6.843   6.713 -2.3124  0.0995 -0.2350
 2571TIP3   OH229203   3.857   1.628  15.847  0.0163  0.5316 -0.5351
 2571TIP3    H129204   3.768   1.618  15.812  0.0736  1.6970 -1.0281
 2571TIP3    H229205   3.850   1.700  15.909  0.3395 -0.2681  0.4499
 2572TIP3   OH229206   6.488   0.417   0.635  0.3284 -0.3757  0.2943
 2572TIP3    H129207   6.459   0.395   0.723 -0.6377  0.2366  0.1358
 2572TIP3    H229208   6.459   0.508   0.622  1.8323  0.0660 -0.0667
 2573TIP3   OH229209   6.319   5.141  12.870 -0.1728  0.3877 -0.1389
 2573TIP3    H129210   6.366   5.160  12.951  0.0320 -0.4937 -0.0470
 2573TIP3    H229211   6.385   5.103  12.812 -0.2805  1.1723 -0.7792
 2574TIP3   OH229212   5.571   0.054   3.057  0.2767  0.0882 -0.3993
 2574TIP3    H129213   5.558   0.119   2.988 -0.4280  0.7368  0.3231
 2574TIP3    H229214   5.548  -0.029   3.016 -0.3584  0.4944 -0.8867
 2575TIP3   OH229215   1.228   4.348  14.553 -0.3423  0.0661 -0.3610
 2575TIP3    H129216   1.137   4.320  14.546 -0.4004  0.2965 -0.5133
 2575TIP3    H229217   1.233   4.428  14.501  0.1844 -0.4953 -1.1731
 2576TIP3   OH229218   2.863   1.438  16.538  0.0333  0.0877  0.2472
 2576TIP3    H129219   2.837   1.485  16.459  0.1800  0.1931  0.2613
 2576TIP3    H229220   2.958   1.429  16.530 -0.1161 -1.1556 -0.2814
 2577TIP3   OH229221   1.663   4.643   2.157  0.7286 -0.0561  0.2717
 2577TIP3    H129222   1.655   4.697   2.236  1.2090  4.6414 -2.6524
 2577TIP3    H229223   1.757   4.629   2.147  1.0190  2.8092 -1.5163
 2578TIP3   OH229224   3.817   6.358  17.178 -0.4412 -0.4542  0.0012
 2578TIP3    H129225   3.835   6.374  17.271  0.0433 -2.4487  0.2761
 2578TIP3    H229226   3.881   6.412  17.131  1.3750 -1.7435  0.8985
 2579TIP3   OH229227   4.713   1.456   5.412  0.2350  0.5998  0.7912
 2579TIP3    H129228   4.797   1.492   5.440  0.0946  1.3579  0.2516
 2579TIP3    H229229   4.683   1.404   5.486  0.8554  0.8880  1.2456
 2580TIP3   OH229230   2.517   2.128  14.223  0.1492  0.5040 -0.5669
 2580TIP3    H129231   2.434   2.083  14.207  0.2027 -0.3897  1.5859
 2580TIP3    H229232   2.583   2.059  14.219  0.3871  0.6098  1.3284
 2581TIP3   OH229233   3.064   2.656  11.579  0.0373 -0.0794  0.0735
 2581TIP3    H129234   3.044   2.689  11.667  0.9742  0.7271 -0.0054
 2581TIP3    H229235   3.148   2.611  11.589 -0.0651 -0.3600 -0.3242
 2582TIP3   OH229236   0.466   0.310   3.917 -0.6170  0.1152 -0.0818
 2582TIP3    H129237   0.558   0.327   3.899 -0.5471  0.6337  0.7586
 2582TIP3    H229238   0.453   0.218   3.895 -0.0007  0.1539 -0.6054
 2583TIP3   OH229239   2.477   4.057  13.138  0.0623 -0.3419 -0.4841
 2583TIP3    H129240   2.423   4.130  13.170  0.1724 -0.1328 -0.7756
 2583TIP3    H229241   2.474   4.064  13.043  0.5968 -0.3323 -0.5005
 2584TIP3   OH229242   4.504   3.730   0.335  0.5057 -0.2773 -0.0605
 2584TIP3    H129243   4.457   3.709   0.416 -1.3185  1.2277 -0.6785
 2584TIP3    H229244   4.596   3.717   0.356  0.2800  2.4009  3.0377
 2585TIP3   OH229245   1.299   0.391   4.440  0.3608  0.4596  0.2630
 2585TIP3    H129246   1.361   0.454   4.404  0.3149  1.0121  1.1469
 2585TIP3    H229247   1.353   0.316   4.466  0.4725  0.3301 -0.3385
 2586TIP3   OH229248   1.941   0.196  17.222 -0.3259 -0.1689  0.3619
 2586TIP3    H129249   1.888   0.235  17.292 -0.2861 -0.1192  0.3672
 2586TIP3    H229250   2.021   0.249  17.221 -1.1938  1.1554 -1.1019
 2587TIP3   OH229251   4.003   4.189   4.627 -0.4029 -0.5728  0.1646
 2587TIP3    H129252   3.948   4.254   4.672  0.0985 -0.8159  1.1423
 2587TIP3    H229253   3.947   4.112   4.620 -1.3495  0.2663 -1.9004
 2588TIP3   OH229254   4.642   3.108   0.148 -0.2461  0.3765  0.1919
 2588TIP3    H129255   4.603   3.145   0.069 -0.1362 -1.2004 -0.6149
 2588TIP3    H229256   4.721   3.160   0.162 -0.2210  0.6204 -0.7895
 2589TIP3   OH229257   0.517   5.550   0.622 -0.0519  0.3417  0.4528
 2589TIP3    H129258   0.493   5.459   0.608 -0.5134  0.5538 -0.1848
 2589TIP3    H229259   0.612   5.553   0.606 -0.3881  0.3781 -1.7094
 2590TIP3   OH229260   3.553   3.603   1.966  0.0046  0.3035  0.0541
 2590TIP3    H129261   3.612   3.560   1.903 -1.0525  0.0002 -0.7383
 2590TIP3    H229262   3.500   3.531   2.001 -0.5058  0.7013  0.1012
 2591TIP3   OH229263   6.083   0.746   2.036  0.4098 -0.1090  0.2105
 2591TIP3    H129264   6.103   0.772   1.946 -0.3699 -0.4052 -0.0503
 2591TIP3    H229265   6.168   0.741   2.079  0.7758  0.1552 -0.4808
 2592TIP3   OH229266   1.870   0.917   4.725 -0.2373  0.5880  0.2287
 2592TIP3    H129267   1.794   0.935   4.781  1.8369  0.6532  3.0919
 2592TIP3    H229268   1.906   0.835   4.760 -0.2951 -0.7090 -2.5908
 2593TIP3   OH229269   5.243   0.916  11.376 -0.2164  0.0423 -0.1284
 2593TIP3    H129270   5.335   0.911  11.350  0.1558  1.8783  0.7481
 2593TIP3    H229271   5.245   0.949  11.466 -1.7144 -0.5208  0.1307
 2594TIP3   OH229272   2.986   2.504  12.709 -0.6458  0.0229  0.0350
 2594TIP3    H129273   3.011   2.597  12.709  2.0771 -0.6590  0.7123
 2594TIP3    H229274   2.947   2.490  12.623  0.6207  1.3864 -0.7853
 2595TIP3   OH229275   6.245   2.876   6.615  0.1824  0.0842  0.2685
 2595TIP3    H129276   6.161   2.921   6.623 -1.0345 -1.9665 -0.5754
 2595TIP3    H229277   6.242   2.835   6.529  1.7018 -0.7287  0.5870
 2596TIP3   OH229278   1.279   4.524  14.291  0.0484  0.4862 -0.2694
 2596TIP3    H129279   1.282   4.465  14.216 -3.3017 -0.5885  0.3436
 2596TIP3    H229280   1.260   4.610  14.253 -3.2047 -0.3248 -0.5980
 2597TIP3   OH229281   2.189   4.130   0.383 -0.0012  0.0145 -0.2979
 2597TIP3    H129282   2.169   4.037   0.371  0.3238 -0.2415  1.0472
 2597TIP3    H229283   2.281   4.138   0.361  0.1890 -0.1546  0.4080
 2598TIP3   OH229284   2.688   1.932  14.246  0.1164 -0.5741 -0.3103
 2598TIP3    H129285   2.693   1.874  14.323  0.3006 -3.1752 -2.2203
 2598TIP3    H229286   2.773   1.975  14.243  0.6430 -1.5691  0.0959
 2599TIP3   OH229287   2.307   3.302  14.783 -0.0686 -0.2019 -0.4557
 2599TIP3    H129288   2.236   3.365  14.797  0.5795  0.3157  0.5540
 2599TIP3    H229289   2.345   3.327  14.698  1.4270  2.0237  0.8077
 2600TIP3   OH229290   3.773   1.566   6.133  0.5519  0.2751 -0.1783
 2600TIP3    H129291   3.717   1.491   6.114  0.0913  0.8440 -1.0878
 2600TIP3    H229292   3.786   1.563   6.228 -2.1676  0.9467  0.2415
 2601TIP3   OH229293   2.325   1.335   1.548 -0.1403 -0.3061  0.1382
 2601TIP3    H129294   2.395   1.311   1.609  0.3626  0.7376 -0.0167
 2601TIP3    H229295   2.360   1.410   1.500 -0.9258 -0.4893 -0.7359
 2602TIP3   OH229296   2.854   4.057  16.606 -0.3973  0.1519 -0.3800
 2602TIP3    H129297   2.936   4.056  16.655 -1.0849 -0.9414  0.7605
 2602TIP3    H229298   2.813   3.973  16.625 -1.9673  0.8503 -0.6242
 2603TIP3   OH229299   6.125   1.074  13.108 -0.6999 -0.0790 -0.0528
 2603TIP3    H129300   6.052   1.014  13.125 -1.4512  0.6464 -0.7307
 2603TIP3    H229301   6.121   1.092  13.014  0.8460 -0.6654 -0.2556
 2604TIP3   OH229302   2.675   0.492   3.156  0.2990 -0.1407  0.0293
 2604TIP3    H129303   2.595   0.504   3.206  0.8148  1.8856  0.4200
 2604TIP3    H229304   2.676   0.564   3.094  2.4147  0.5933  0.8696
 2605TIP3   OH229305   4.110   5.903   4.119  0.0613 -0.2268 -0.6880
 2605TIP3    H129306   4.201   5.873   4.109 -0.1769 -0.9465 -0.7296
 2605TIP3    H229307   4.113   5.965   4.192  0.4248 -0.9305 -0.1071
 2606TIP3   OH229308   5.492   2.014  14.754  1.0591 -0.2779 -0.4537
 2606TIP3    H129309   5.505   2.004  14.660  2.3044 -2.2062 -0.0957
 2606TIP3    H229310   5.538   2.095  14.776 -1.5117  1.6494 -1.9132
 2607TIP3   OH229311   6.729   5.381   5.887 -0.7966  0.0184  0.2520
 2607TIP3    H129312   6.638   5.377   5.915 -0.3525  0.7962  1.8674
 2607TIP3    H229313   6.725   5.402   5.794 -2.2626  0.3238  0.3792
 2608TIP3   OH229314   4.918   4.755  12.207 -0.0188 -0.6359 -0.1834
 2608TIP3    H129315   4.999   4.718  12.171  0.6020  1.3089 -0.9018
 2608TIP3    H229316   4.934   4.760  12.301  0.2449 -1.3586 -0.1878
 2609TIP3   OH229317   5.604   0.966  13.807  0.1393  0.7772 -0.5079
 2609TIP3    H129318   5.673   1.032  13.805  0.4901  0.4091 -0.7911
 2609TIP3    H229319   5.634   0.898  13.746 -0.9312  1.0631 -1.3632
 2610TIP3   OH229320   0.140   5.131   4.256 -0.2134  0.2934  0.0480
 2610TIP3    H129321   0.225   5.107   4.219  0.2573 -0.0352  1.3079
 2610TIP3    H229322   0.139   5.226   4.252  0.6609  0.3498  0.9881
 2611TIP3   OH229323   3.584   2.287  15.144 -0.5308 -0.1182  0.2220
 2611TIP3    H129324   3.623   2.208  15.106  1.3884  0.6598  0.5383
 2611TIP3    H229325   3.560   2.341  15.069 -0.8940 -0.5256  0.0372
 2612TIP3   OH229326   4.472   2.262   1.498 -0.3185 -0.2823 -0.1694
 2612TIP3    H129327   4.498   2.236   1.410 -0.0964 -2.0975  0.4131
 2612TIP3    H229328   4.546   2.313   1.531  0.8130 -1.9646 -0.0333
 2613TIP3   OH229329   1.541   5.422  11.876 -0.6923  0.9108 -0.0639
 2613TIP3    H129330   1.462   5.462  11.912  0.2272  3.0606 -0.3504
 2613TIP3    H229331   1.609   5.439  11.941 -0.0579  0.7315 -0.6655
 2614TIP3   OH229332   1.986   5.902   2.587  0.4223  0.0124  0.0619
 2614TIP3    H129333   1.946   5.841   2.649 -0.4958 -0.8207 -1.3149
 2614TIP3    H229334   2.065   5.857   2.557  0.5004  0.1115  0.1206
 2615TIP3   OH229335   6.790   6.603   2.338 -0.2348  1.0939  0.2831
 2615TIP3    H129336   6.712   6.549   2.329 -0.7713  1.9890 -0.5651
 2615TIP3    H229337   6.863   6.545   2.317 -0.5167 -0.2055  2.7392
 2616TIP3   OH229338   0.120   5.726  12.058 -0.9951  0.4922  0.3018
 2616TIP3    H129339   0.061   5.697  11.989 -1.4140 -0.6357  1.1067
 2616TIP3    H229340   0.203   5.742  12.014 -0.5543 -2.5914 -0.1161
 2617TIP3   OH229341   0.358   1.730   2.355  0.7399 -0.1198 -0.1874
 2617TIP3    H129342   0.326   1.778   2.278  1.7026 -1.4895 -1.4833
 2617TIP3    H229343   0.453   1.724   2.341  1.1911  1.1469  2.0207
 2618TIP3   OH229344   5.322   4.181  16.407  0.0772 -0.1975  0.0221
 2618TIP3    H129345   5.232   4.161  16.433  0.2787  1.3800  2.1250
 2618TIP3    H229346   5.312   4.246  16.337 -0.4700  1.9061  1.9622
 2619TIP3   OH229347   0.827   0.605   6.702  0.1110  0.1952 -0.5927
 2619TIP3    H129348   0.767   0.631   6.771 -0.6410 -0.1935 -1.0946
 2619TIP3    H229349   0.906   0.656   6.719 -0.5506  1.1299 -0.2585
 2620TIP3   OH229350   6.115   0.127  11.393 -0.4609 -0.3605  0.2252
 2620TIP3    H129351   6.094   0.034  11.385  0.6784 -0.4749 -1.7496
 2620TIP3    H229352   6.209   0.130  11.406 -0.3685  0.5464 -0.5726
 2621TIP3   OH229353   2.329   0.834   0.028  0.2446  0.0121  0.3802
 2621TIP3    H129354   2.420   0.853   0.004  0.1856  0.2031  0.2998
 2621TIP3    H229355   2.278   0.897  -0.023  0.1552  0.8321  1.4666
 2622TIP3   OH229356   0.070   1.315   3.068 -0.4429  0.4358  0.1520
 2622TIP3    H129357   0.152   1.347   3.105 -0.9418 -0.0986  1.7817
 2622TIP3    H229358   0.078   1.219   3.070 -0.5927  0.3951 -0.8843
 2623TIP3   OH229359   4.578   2.262  14.832 -0.0457  0.0173 -0.1816
 2623TIP3    H129360   4.611   2.178  14.863 -0.7802  0.2305  1.2297
 2623TIP3    H229361   4.651   2.323  14.844 -0.1690 -0.0020  0.7064
 2624TIP3   OH229362   6.754   4.075  11.366 -0.0599 -0.4695  0.3965
 2624TIP3    H129363   6.722   4.129  11.438 -0.5455 -0.2908  0.0480
 2624TIP3    H229364   6.721   4.118  11.287 -2.1347 -2.3485  0.1790
 2625TIP3   OH229365   1.816   1.775   2.717  0.6859 -0.2260  0.1443
 2625TIP3    H129366   1.813   1.757   2.623  2.5595  1.4511 -0.2626
 2625TIP3    H229367   1.739   1.730   2.753 -1.5469  1.3076 -2.5395
 2626TIP3   OH229368   2.910   2.955   5.071  0.3559 -0.1190  0.4659
 2626TIP3    H129369   2.870   2.891   5.132 -1.6197  0.3900 -0.2437
 2626TIP3    H229370   2.946   3.023   5.128 -0.1097 -0.4266  1.1382
 2627TIP3   OH229371   3.410   0.963  14.044  0.0000  0.0320  0.1065
 2627TIP3    H129372   3.410   0.880  14.093 -0.1174  0.4215  0.7747
 2627TIP3    H229373   3.439   1.028  14.108  1.2083  0.3337 -0.7194
 2628TIP3   OH229374   5.428   3.782   0.806 -0.1000 -0.4035 -0.4574
 2628TIP3    H129375   5.474   3.864   0.787 -0.2291 -0.5844 -1.5881
 2628TIP3    H229376   5.497   3.717   0.813 -0.1090 -0.4999 -1.2155
 2629TIP3   OH229377   0.834   2.866  14.432 -0.5995  0.3166  0.2144
 2629TIP3    H129378   0.855   2.834  14.344  0.9323  0.9752  0.3198
 2629TIP3    H229379   0.869   2.955  14.434  0.6080 -0.1758  1.9503
 2630TIP3   OH229380   4.177   6.533  12.923  0.4298  0.5228 -0.1357
 2630TIP3    H129381   4.167   6.625  12.900  0.3132  0.7914  0.9589
 2630TIP3    H229382   4.272   6.518  12.922  0.3398 -0.0040 -2.8026
 2631TIP3   OH229383   5.512   5.718  15.724  0.2596  0.1628 -0.3938
 2631TIP3    H129384   5.463   5.665  15.662 -0.7826  1.9836 -1.1803
 2631TIP3    H229385   5.589   5.747  15.676 -0.1377  0.9047 -0.5988
 2632TIP3   OH229386   5.689   5.869  16.215  0.0649  0.3218  1.5159
 2632TIP3    H129387   5.685   5.962  16.238  0.1984 -0.1107  3.3978
 2632TIP3    H229388   5.776   5.858  16.175 -1.3447  1.6979 -2.1311
 2633TIP3   OH229389   5.810   5.407   0.888 -0.3261 -0.1198  0.4455
 2633TIP3    H129390   5.787   5.485   0.939 -2.0555 -1.2742  1.4823
 2633TIP3    H229391   5.750   5.409   0.813  0.0245 -0.1457  0.1632
 2634TIP3   OH229392   4.994   5.676  15.276 -0.7426  0.5050 -0.0395
 2634TIP3    H129393   4.978   5.620  15.200 -0.4389  0.4053 -0.0282
 2634TIP3    H229394   4.987   5.617  15.351  0.4170  0.3095 -0.0759
 2635TIP3   OH229395   4.526   4.612  14.258  0.2399 -0.1011 -0.4122
 2635TIP3    H129396   4.621   4.599  14.256  0.6307  2.2118  1.0329
 2635TIP3    H229397   4.512   4.692  14.209 -1.0730 -0.8872 -1.3245
 2636TIP3   OH229398   3.087   5.773  16.841  0.2054 -0.1381  0.0902
 2636TIP3    H129399   3.122   5.823  16.915  2.9310  0.7387 -1.7156
 2636TIP3    H229400   3.076   5.837  16.772 -0.5160 -1.2709 -0.8626
 2637TIP3   OH229401   1.753   0.155   3.287  0.4084 -0.2326 -0.8822
 2637TIP3    H129402   1.741   0.246   3.258  1.2311  1.2443  3.1342
 2637TIP3    H229403   1.828   0.124   3.237  1.5098  2.0568 -0.7138
 2638TIP3   OH229404   2.842   5.654  14.595 -0.0192  0.4961 -0.1281
 2638TIP3    H129405   2.814   5.731  14.645  0.4400  0.0517  0.8108
 2638TIP3    H229406   2.783   5.653  14.519 -1.2549  0.7166  0.8073
 2639TIP3   OH229407   2.853   2.633   4.310 -0.4805 -0.5307 -0.1664
 2639TIP3    H129408   2.860   2.538   4.311  2.9653 -0.3484  0.0321
 2639TIP3    H229409   2.788   2.652   4.243  0.5279 -2.9618 -1.9046
 2640TIP3   OH229410   2.815   6.670  11.035  0.7163 -0.4437 -0.4582
 2640TIP3    H129411   2.789   6.700  11.122 -0.0453 -1.1340 -0.4440
 2640TIP3    H229412   2.911   6.674  11.037  0.6821  0.3194  0.1300
 2641TIP3   OH229413   3.569   0.331   6.636 -0.3726 -0.2774  0.1640
 2641TIP3    H129414   3.584   0.282   6.555 -2.0112  0.9828 -0.9389
 2641TIP3    H229415   3.641   0.305   6.693  0.0356 -2.2685 -1.1816
 2642TIP3   OH229416   5.203   5.279   5.953 -0.3932  0.2272 -0.1429
 2642TIP3    H129417   5.179   5.234   6.033  0.7891 -0.8760 -0.4004
 2642TIP3    H229418   5.119   5.303   5.913 -0.9870  0.4660  1.2240
 2643TIP3   OH229419   3.637   3.508   0.878 -0.3785  0.5506 -0.4430
 2643TIP3    H129420   3.589   3.564   0.940  0.0657 -2.0893  2.3924
 2643TIP3    H229421   3.723   3.495   0.918  0.2031 -0.5803 -2.0062
 2644TIP3   OH229422   2.408   1.911  11.704 -0.4762 -0.6803 -0.4734
 2644TIP3    H129423   2.494   1.951  11.689 -0.4552 -0.2843  0.6835
 2644TIP3    H229424   2.407   1.834  11.648 -0.2099  0.5058 -2.1591
 2645TIP3   OH229425   0.119   6.643  16.608 -0.2560  0.1438  0.1451
 2645TIP3    H129426   0.159   6.727  16.629 -0.1099  0.1078  0.0125
 2645TIP3    H229427   0.075   6.617  16.689 -4.1571  2.4807 -1.0909
 2646TIP3   OH229428   5.389   2.660   3.962 -0.2819  0.5064 -0.4679
 2646TIP3    H129429   5.467   2.669   4.016 -0.1140  0.8411 -0.7696
 2646TIP3    H229430   5.367   2.567   3.966  0.4837  0.3130 -0.8920
 2647TIP3   OH229431   6.415   3.846  11.909  0.3183 -0.0959  0.5058
 2647TIP3    H129432   6.455   3.792  11.977  2.1876 -0.1929 -0.6435
 2647TIP3    H229433   6.457   3.932  11.919 -0.0191  0.1311 -0.0011
 2648TIP3   OH229434   5.614   4.484   3.223 -0.2728 -0.2814 -0.0482
 2648TIP3    H129435   5.673   4.415   3.192  0.5249  0.8914 -1.1616
 2648TIP3    H229436   5.660   4.522   3.298 -0.0686 -0.0506 -0.2873
 2649TIP3   OH229437   4.393   5.121   5.432 -0.6889  0.5478 -0.0537
 2649TIP3    H129438   4.386   5.035   5.473 -3.0843  1.0489  0.6741
 2649TIP3    H229439   4.452   5.170   5.489 -0.1078 -0.2918  0.0790
 2650TIP3   OH229440   6.366   3.395   0.200 -0.0646 -0.1523 -0.5016
 2650TIP3    H129441   6.270   3.403   0.198 -0.1653 -1.0688 -0.0811
 2650TIP3    H229442   6.397   3.484   0.214 -0.9273 -0.0491  0.8863
 2651TIP3   OH229443   3.686   0.796  15.087 -0.5541  0.1193 -0.1837
 2651TIP3    H129444   3.707   0.815  14.996  1.2558 -1.3735 -0.0977
 2651TIP3    H229445   3.646   0.709  15.085  1.5572 -0.8971  0.6813
 2652TIP3   OH229446   6.723   4.877  13.638  0.5189 -0.4902 -0.1817
 2652TIP3    H129447   6.632   4.865  13.612  0.7334 -0.2531 -1.0780
 2652TIP3    H229448   6.720   4.891  13.732 -0.3259 -1.0048 -0.1277
 2653TIP3   OH229449   2.651   0.008   3.578  0.4752 -0.6669  0.3147
 2653TIP3    H129450   2.640  -0.066   3.519 -0.6336 -1.2009  1.1732
 2653TIP3    H229451   2.645  -0.030   3.666 -2.2615  0.7243  0.7771
 2654TIP3   OH229452   1.813   2.422   1.207  0.5407  1.1881  0.4779
 2654TIP3    H129453   1.774   2.496   1.160  0.7190  0.8662 -0.1871
 2654TIP3    H229454   1.891   2.400   1.156 -0.7054 -0.8730 -0.5862
 2655TIP3   OH229455   5.567   2.423   0.885  0.3525 -0.0915  0.0872
 2655TIP3    H129456   5.539   2.509   0.854 -0.7498 -0.2137  0.7123
 2655TIP3    H229457   5.655   2.413   0.851 -0.2627  0.4217 -1.7325
 2656TIP3   OH229458   5.074   5.204  10.743  0.3445  0.3361  0.3222
 2656TIP3    H129459   5.165   5.176  10.758  0.5271  0.1111 -1.1609
 2656TIP3    H229460   5.080   5.265  10.670 -0.5288  1.4559  1.1671
 2657TIP3   OH229461   0.012   2.122   5.631 -0.1627  0.0265 -0.2708
 2657TIP3    H129462   0.046   2.078   5.553  0.0408  3.0454 -1.9647
 2657TIP3    H229463   0.084   2.119   5.694 -0.3504 -2.4873 -0.1235
 2658TIP3   OH229464   1.404   2.933  16.746  0.1128 -0.1800  0.2978
 2658TIP3    H129465   1.335   2.993  16.774 -2.7854 -2.9854 -0.4564
 2658TIP3    H229466   1.456   2.982  16.683 -0.4277  2.3985  1.8016
 2659TIP3   OH229467   2.984   5.431   1.533 -0.1166 -0.1888 -0.0394
 2659TIP3    H129468   2.959   5.454   1.443  0.2518  0.5076  0.0426
 2659TIP3    H229469   3.065   5.382   1.523 -0.6266 -1.0263 -0.1679
 2660TIP3   OH229470   0.952   4.695  13.949 -0.3940  0.2903 -0.1018
 2660TIP3    H129471   0.979   4.741  13.870 -0.4385 -0.7398 -0.7354
 2660TIP3    H229472   0.869   4.654  13.925 -0.3580 -0.1111  0.4453
 2661TIP3   OH229473   1.067   4.174  16.044  0.0774 -0.7893 -0.1021
 2661TIP3    H129474   0.985   4.206  16.006  0.9741  1.3330 -0.3111
 2661TIP3    H229475   1.116   4.140  15.969  1.3185  2.2596 -0.7688
 2662TIP3   OH229476   0.012   3.006  15.056 -0.1048 -0.5783 -0.0890
 2662TIP3    H129477   0.004   3.040  15.145  0.9037 -2.1812  0.6332
 2662TIP3    H229478   0.009   3.084  15.000  0.4144  0.5309  1.4084
 2663TIP3   OH229479   5.416   3.579  10.062  0.4637 -0.3647 -0.3235
 2663TIP3    H129480   5.379   3.519  10.128  1.5366 -1.4671 -0.6985
 2663TIP3    H229481   5.501   3.541  10.041  0.6584  0.6693 -1.4412
 2664TIP3   OH229482   0.138   0.592   4.737  0.0940  0.5523  0.2260
 2664TIP3    H129483   0.231   0.604   4.715 -0.0159  0.6344 -0.1968
 2664TIP3    H229484   0.131   0.621   4.828  0.6624 -0.3269  0.5529
 2665TIP3   OH229485   4.348   5.969  16.964  0.4084 -0.0561 -0.3363
 2665TIP3    H129486   4.315   5.889  17.004 -1.9064  1.0942  0.1473
 2665TIP3    H229487   4.270   6.022  16.948  1.6991  1.2912 -2.4750
 2666TIP3   OH229488   3.088   3.699  14.666 -0.5403 -0.0514  0.4843
 2666TIP3    H129489   3.017   3.760  14.687 -2.7048 -1.5350 -2.1631
 2666TIP3    H229490   3.113   3.723  14.577 -0.1862 -1.8560  0.0972
 2667TIP3   OH229491   1.620   0.358  14.840  0.7314  0.2999  0.3794
 2667TIP3    H129492   1.630   0.441  14.888  1.5592 -1.1460  2.8267
 2667TIP3    H229493   1.710   0.332  14.819  0.6268 -0.9463  1.3952
 2668TIP3   OH229494   6.464   5.078   3.720 -0.0859 -0.4654 -0.5932
 2668TIP3    H129495   6.375   5.046   3.705 -0.5249  1.0092 -1.2098
 2668TIP3    H229496   6.459   5.172   3.703  1.4661 -0.2751 -0.0760
 2669TIP3   OH229497   0.365   5.515   2.548  0.0751  0.7437 -0.9634
 2669TIP3    H129498   0.375   5.603   2.587 -1.7119  1.1765 -1.4561
 2669TIP3    H229499   0.272   5.496   2.556 -0.0283  0.1061 -3.5176
 2670TIP3   OH229500   5.372   5.687  13.460  0.3813 -0.0728  0.8109
 2670TIP3    H129501   5.425   5.746  13.406  0.1003  0.1503  0.7789
 2670TIP3    H229502   5.296   5.740  13.485  0.6221 -0.0999  1.6050
 2671TIP3   OH229503   0.936   0.081  16.821  0.2614  0.1631 -0.9426
 2671TIP3    H129504   0.886   0.079  16.740  0.8214 -1.9842 -1.2646
 2671TIP3    H229505   0.984   0.164  16.818 -0.1829  0.3747 -2.5152
 2672TIP3   OH229506   5.093   3.100  15.043 -0.3164 -0.8916 -0.8964
 2672TIP3    H129507   5.082   3.086  15.138 -0.7415 -1.4154 -1.0175
 2672TIP3    H229508   5.059   3.188  15.029 -0.0058 -0.7101 -0.5151
 2673TIP3   OH229509   2.161   5.125  10.635 -0.7242  0.0036 -0.3655
 2673TIP3    H129510   2.190   5.038  10.608 -1.3757 -0.5830  0.7884
 2673TIP3    H229511   2.179   5.129  10.729 -1.0786  0.9624 -0.3269
 2674TIP3   OH229512   3.957   4.827  15.311  0.4423 -0.2724 -0.5564
 2674TIP3    H129513   3.928   4.917  15.297 -4.2082 -1.7843 -1.4838
 2674TIP3    H229514   3.945   4.812  15.404 -0.4834 -0.4752 -0.7072
 2675TIP3   OH229515   3.017   3.037  11.930 -0.3290  0.2400  0.0844
 2675TIP3    H129516   3.099   3.035  11.881 -0.3767 -0.4946  0.0276
 2675TIP3    H229517   2.952   3.064  11.866 -0.3522 -0.4881 -0.2056
 2676TIP3   OH229518   3.710   4.509   3.362 -0.1144 -0.0154  0.1027
 2676TIP3    H129519   3.716   4.461   3.445  2.8268  0.7716  0.3997
 2676TIP3    H229520   3.761   4.457   3.300 -0.2314  0.6837 -0.5890
 2677TIP3   OH229521   3.951   0.261  14.683  0.6947 -0.0629 -0.2518
 2677TIP3    H129522   4.044   0.283  14.687  0.9658 -1.3154  0.3838
 2677TIP3    H229523   3.910   0.317  14.748  0.8403  1.2616 -1.2722
 2678TIP3   OH229524   0.418   3.155  15.303  0.3373  0.5106  0.7447
 2678TIP3    H129525   0.386   3.173  15.391  0.6868 -2.0554  1.4215
 2678TIP3    H229526   0.508   3.188  15.303 -0.2079  2.0731  0.7667
 2679TIP3   OH229527   6.364   2.662  12.315 -0.1388 -0.1692  0.1873
 2679TIP3    H129528   6.273   2.645  12.341 -0.5509 -1.4581 -2.0357
 2679TIP3    H229529   6.357   2.714  12.235  1.1047  1.0578  0.8563
 2680TIP3   OH229530   2.377   0.975  15.818  0.5829 -0.2368 -0.7894
 2680TIP3    H129531   2.469   0.990  15.837  0.1527 -0.2933  1.4936
 2680TIP3    H229532   2.333   1.056  15.845 -0.1848 -0.7054 -0.6095
 2681TIP3   OH229533   6.416   0.852   3.095 -0.0833  0.4469 -0.3029
 2681TIP3    H129534   6.350   0.811   3.038  1.2307  0.4128 -1.8469
 2681TIP3    H229535   6.421   0.943   3.064  0.9108  0.3297 -0.4913
 2682TIP3   OH229536   3.382   1.802  15.927 -0.3746  0.0151 -0.5900
 2682TIP3    H129537   3.325   1.871  15.962 -0.9076 -0.3019 -0.8274
 2682TIP3    H229538   3.353   1.790  15.836 -2.9157 -3.1995  0.5189
 2683TIP3   OH229539   3.435   0.317   3.971  0.3351  0.6042  0.1487
 2683TIP3    H129540   3.513   0.366   3.944  1.9927 -2.3394 -0.6421
 2683TIP3    H229541   3.404   0.274   3.890 -1.9137  1.4555  0.5266
 2684TIP3   OH229542   2.529   6.142  14.311  0.4609 -0.0628  0.0952
 2684TIP3    H129543   2.521   6.092  14.391 -0.0964 -1.5366 -0.8658
 2684TIP3    H229544   2.618   6.123  14.279  1.1932  1.6176  1.0646
 2685TIP3   OH229545   2.983   4.706  12.826  0.0751 -0.3626 -0.0531
 2685TIP3    H129546   3.014   4.617  12.808  1.2933  0.4178 -2.0676
 2685TIP3    H229547   2.927   4.697  12.903  0.2516 -2.8524 -0.1623
 2686TIP3   OH229548   6.771   6.780   6.170 -0.5654 -0.1913  0.2212
 2686TIP3    H129549   6.752   6.687   6.161 -0.6448 -0.2550  1.0165
 2686TIP3    H229550   6.758   6.798   6.263  0.6331  0.3524  0.2896
 2687TIP3   OH229551   3.934   5.170   1.094 -0.0344  0.1584 -0.3070
 2687TIP3    H129552   3.889   5.098   1.049  1.6803 -0.6232 -0.8158
 2687TIP3    H229553   4.015   5.131   1.128  0.6215  1.6985 -0.0376
 2688TIP3   OH229554   5.631   3.435   0.369  0.3336 -0.2898  0.0789
 2688TIP3    H129555   5.571   3.368   0.336 -0.0267  1.5616 -3.2624
 2688TIP3    H229556   5.574   3.503   0.406  0.4221  0.6047 -1.3935
 2689TIP3   OH229557   1.629   5.683  15.760  0.4894 -0.2136  0.8497
 2689TIP3    H129558   1.550   5.706  15.711  1.3775  0.5709 -0.2309
 2689TIP3    H229559   1.635   5.751  15.828  0.7382  0.2693  0.3507
 2690TIP3   OH229560   2.178   2.116   2.371 -0.3964  1.2033  0.2538
 2690TIP3    H129561   2.243   2.169   2.419 -0.1950  0.1967  1.1077
 2690TIP3    H229562   2.094   2.144   2.407 -0.1349 -1.0024  2.7156
 2691TIP3   OH229563   4.512   6.186  11.347  0.3910 -0.1699  0.3280
 2691TIP3    H129564   4.508   6.278  11.375 -0.4163 -0.4118  1.0369
 2691TIP3    H229565   4.572   6.186  11.272 -0.2263  1.0546 -0.1734
 2692TIP3   OH229566   2.215   2.571   4.253 -0.5585 -0.0289  0.2620
 2692TIP3    H129567   2.183   2.658   4.229 -1.7192 -0.3959  0.4383
 2692TIP3    H229568   2.292   2.588   4.307 -1.1057  0.9148  0.7661
 2693TIP3   OH229569   4.739   3.274  14.546  0.3484  0.0983  0.0594
 2693TIP3    H129570   4.783   3.234  14.471 -1.0423  0.6202 -1.0506
 2693TIP3    H229571   4.802   3.337  14.581  0.0038  1.8281 -2.3456
 2694TIP3   OH229572   1.927   2.413  11.579  0.6711  0.4073  0.1204
 2694TIP3    H129573   1.983   2.336  11.571  0.9493  0.5366  0.7988
 2694TIP3    H229574   1.927   2.453  11.492  2.4414  0.9750  0.3703
 2695TIP3   OH229575   6.219   5.974   3.810 -0.2000  0.2846 -0.7337
 2695TIP3    H129576   6.259   5.939   3.889 -0.1969  1.6696 -0.1037
 2695TIP3    H229577   6.235   5.908   3.743  0.8415 -0.3540  0.1344
 2696TIP3   OH229578   1.019   0.354  12.904  0.3301 -0.4669 -0.3905
 2696TIP3    H129579   0.936   0.367  12.949 -0.1313 -2.1534 -0.7357
 2696TIP3    H229580   1.078   0.321  12.971  0.5349  0.0509 -0.3103
 2697TIP3   OH229581   0.071   6.760   6.744  0.2913 -0.4403  0.2248
 2697TIP3    H129582   0.052   6.810   6.665  0.1465  1.9169  1.7177
 2697TIP3    H229583   0.159   6.788   6.770 -0.1220 -0.3258  1.5343
 2698TIP3   OH229584   1.486   3.479  11.391 -0.2868  0.3328 -0.2374
 2698TIP3    H129585   1.425   3.552  11.403 -0.6170  0.0780 -0.3541
 2698TIP3    H229586   1.494   3.440  11.478 -0.7427  0.0171 -0.3282
 2699TIP3   OH229587   4.376   2.490   3.042  0.3713  0.2904  0.0163
 2699TIP3    H129588   4.345   2.577   3.067  0.4526  0.7167 -1.3355
 2699TIP3    H229589   4.465   2.504   3.012  0.7994 -0.4537  0.9131
 2700TIP3   OH229590   4.514   5.111  11.674  0.4124 -0.4230 -0.6477
 2700TIP3    H129591   4.580   5.113  11.604 -1.5840 -0.4077 -2.5886
 2700TIP3    H229592   4.432   5.136  11.630 -0.9570 -0.7976  1.6287
 2701TIP3   OH229593   0.303   0.455  16.346  0.5157 -0.4101 -0.9788
 2701TIP3    H129594   0.225   0.492  16.305 -0.7791 -0.6130  1.2343
 2701TIP3    H229595   0.282   0.363  16.360  1.5244 -0.6875 -1.2050
 2702TIP3   OH229596   4.492   1.383  17.118  0.3414  0.0592  0.2009
 2702TIP3    H129597   4.523   1.434  17.193  1.4201 -1.8644  1.1035
 2702TIP3    H229598   4.398   1.371  17.136  0.2797  0.8783  0.4644
 2703TIP3   OH229599   1.651   4.373  10.905  0.3924 -0.7697 -1.1730
 2703TIP3    H129600   1.557   4.369  10.885 -0.0346 -0.1375  0.6383
 2703TIP3    H229601   1.693   4.344  10.824 -1.3779 -1.7172 -1.7903
 2704TIP3   OH229602   4.263   3.749  12.640 -0.1736  0.4056  0.0092
 2704TIP3    H129603   4.358   3.757  12.634 -0.2099  0.9786  0.1596
 2704TIP3    H229604   4.230   3.798  12.564 -0.2653 -2.3603 -1.8153
 2705TIP3   OH229605   0.120   3.072  11.818 -0.5044 -0.6298 -0.0918
 2705TIP3    H129606   0.127   3.047  11.726 -1.0160  1.0783 -0.6073
 2705TIP3    H229607   0.044   3.130  11.821 -1.3032 -1.7289  1.6412
 2706TIP3   OH229608   3.907   0.660  16.610 -0.1779  0.3888  0.3317
 2706TIP3    H129609   3.849   0.692  16.678 -0.3222 -0.2430  0.5123
 2706TIP3    H229610   3.918   0.567  16.630 -0.3390  0.1637 -0.5829
 2707TIP3   OH229611   1.839   0.695   6.542  0.0571 -0.1608 -0.4856
 2707TIP3    H129612   1.906   0.760   6.521  1.1484 -1.2863 -0.5850
 2707TIP3    H229613   1.881   0.611   6.523 -1.8364 -0.8404 -1.7540
 2708TIP3   OH229614   3.706   1.462   4.978  0.3936 -0.2002 -0.1971
 2708TIP3    H129615   3.776   1.515   5.017  0.6275 -0.7931  0.1925
 2708TIP3    H229616   3.671   1.516   4.908 -0.0944  0.9107  0.8910
 2709TIP3   OH229617   1.189   4.059  15.816  0.7604  0.0261 -0.0385
 2709TIP3    H129618   1.269   4.045  15.766  0.1858 -0.2161 -0.9117
 2709TIP3    H229619   1.119   4.043  15.753  0.0221 -0.1188  0.8115
 2710TIP3   OH229620   1.877   2.944  12.639  0.7814 -0.0415  0.5199
 2710TIP3    H129621   1.907   2.924  12.727  1.1534  1.3392  0.7153
 2710TIP3    H229622   1.950   2.990  12.598  0.0445  0.7246  0.0343
 2711TIP3   OH229623   1.053   6.476  12.525 -0.2354 -0.9412  0.1088
 2711TIP3    H129624   1.080   6.556  12.481 -1.8595 -0.2564  0.3269
 2711TIP3    H229625   1.068   6.407  12.460 -0.0954 -0.2905 -0.5619
 2712TIP3   OH229626   0.944   5.143  14.029  0.6037 -0.3149 -0.4311
 2712TIP3    H129627   0.953   5.064  14.083  2.0831  0.5813  0.6774
 2712TIP3    H229628   0.858   5.135  13.988  0.0425 -1.6921  0.9788
 2713TIP3   OH229629   3.995   4.826  14.377  0.0198  0.0696 -0.0965
 2713TIP3    H129630   3.950   4.888  14.435  0.2149 -0.0744  0.2097
 2713TIP3    H229631   4.083   4.863  14.367 -0.2092  0.4382 -0.8254
 2714TIP3   OH229632   5.492   1.668   0.313  0.2609  0.1937 -0.1665
 2714TIP3    H129633   5.469   1.618   0.392 -1.8767  0.7806 -0.3810
 2714TIP3    H229634   5.429   1.639   0.247  0.3839  1.5803 -0.9142
 2715TIP3   OH229635   5.721   3.638  14.221  0.2412  0.0973  0.2551
 2715TIP3    H129636   5.700   3.609  14.132  0.3330  0.6571  0.0496
 2715TIP3    H229637   5.638   3.674  14.254 -0.1768 -1.4613  0.9317
 2716TIP3   OH229638   2.620   6.702  11.540 -0.1102 -0.3848  0.1224
 2716TIP3    H129639   2.554   6.639  11.570 -0.0598 -0.3190  0.3723
 2716TIP3    H229640   2.573   6.786  11.538  0.3295 -0.0877  1.6414
 2717TIP3   OH229641   6.637   6.478  15.719  0.4329 -0.5915  0.4131
 2717TIP3    H129642   6.658   6.565  15.686  2.7391 -1.1665  0.2647
 2717TIP3    H229643   6.542   6.475  15.721  0.3135  2.4362  1.7895
 2718TIP3   OH229644   0.795   5.359  14.478  0.0705 -0.0019 -0.0821
 2718TIP3    H129645   0.742   5.366  14.557  0.4391  0.0182  0.1622
 2718TIP3    H229646   0.769   5.275  14.439  1.2548 -0.9084  1.0522
 2719TIP3   OH229647   2.809   3.405  14.906 -0.4950  0.0805  0.3542
 2719TIP3    H129648   2.773   3.487  14.872  0.1590  1.1368  2.1483
 2719TIP3    H229649   2.732   3.353  14.928 -0.9233 -0.2448 -1.7813
 2720TIP3   OH229650   5.844   2.721  10.715 -0.2523 -0.0980  0.1947
 2720TIP3    H129651   5.820   2.776  10.640 -0.3018 -0.3618  0.0125
 2720TIP3    H229652   5.780   2.742  10.783 -1.2488 -1.0674 -0.4143
 2721TIP3   OH229653   2.809   4.601  10.466 -0.3311 -0.3956  0.3182
 2721TIP3    H129654   2.848   4.535  10.522  0.0037  0.1929  0.7850
 2721TIP3    H229655   2.736   4.556  10.423 -1.9934 -0.2876  2.8781
 2722TIP3   OH229656   1.385   5.021   3.064  0.0299 -0.4614  0.5486
 2722TIP3    H129657   1.322   5.076   3.019  0.4627  0.9683  1.6501
 2722TIP3    H229658   1.388   5.056   3.154  1.2514 -1.4623  0.9199
 2723TIP3   OH229659   0.700   1.083  12.018  0.6029 -0.0818  0.3703
 2723TIP3    H129660   0.682   1.068  11.926  0.5826 -1.7566  0.6164
 2723TIP3    H229661   0.635   1.147  12.046  0.5478  0.3602 -0.7430
 2724TIP3   OH229662   5.087   0.667   2.204  0.7041 -0.0874  0.0306
 2724TIP3    H129663   5.106   0.716   2.284  0.9764 -1.3908  0.7644
 2724TIP3    H229664   5.061   0.735   2.140  0.7215  0.9722  1.1361
 2725TIP3   OH229665   1.045   6.152   2.631 -0.4683  0.3687 -0.0943
 2725TIP3    H129666   1.028   6.245   2.646 -1.5427  0.3367 -1.0574
 2725TIP3    H229667   1.043   6.142   2.536  0.4820 -0.4924 -0.0401
 2726TIP3   OH229668   3.106   2.659  13.328 -0.2719  0.7022 -0.3540
 2726TIP3    H129669   3.062   2.740  13.303  0.0633  0.9219 -0.2457
 2726TIP3    H229670   3.138   2.622  13.246 -0.9863  0.3506 -0.4707
 2727TIP3   OH229671   1.612   3.997  15.950 -0.5204 -0.4460  0.1813
 2727TIP3    H129672   1.551   4.011  15.878  0.5466 -0.6559 -0.7860
 2727TIP3    H229673   1.697   4.021  15.914  0.6830 -4.5892 -0.0041
 2728TIP3   OH229674   5.050   4.405  14.304 -0.0768  0.0753  0.0644
 2728TIP3    H129675   4.992   4.329  14.297 -0.6893  0.6317 -0.9886
 2728TIP3    H229676   5.058   4.420  14.398 -3.5627  1.4211  0.2466
 2729TIP3   OH229677   0.621   3.737  16.054 -0.1892  0.4593 -0.6463
 2729TIP3    H129678   0.657   3.823  16.074  0.6392 -0.0096 -0.0640
 2729TIP3    H229679   0.532   3.754  16.026  0.4023  1.6204 -1.8608
 2730TIP3   OH229680   0.085   3.585  12.826 -0.2475  0.4580  0.2290
 2730TIP3    H129681   0.179   3.595  12.809 -0.1803  0.9903  0.9264
 2730TIP3    H229682   0.050   3.552  12.743  0.3389  1.5603 -0.4633
 2731TIP3   OH229683   1.881   3.289  13.731  0.2661  0.1105 -0.4403
 2731TIP3    H129684   1.964   3.263  13.691  0.4425  0.8492 -0.5703
 2731TIP3    H229685   1.835   3.335  13.661 -0.3592 -0.5155 -0.4427
 2732TIP3   OH229686   1.554   0.711  11.947  0.3640 -0.6346  0.1195
 2732TIP3    H129687   1.599   0.637  11.988  1.4157 -1.4031 -2.2943
 2732TIP3    H229688   1.487   0.671  11.891 -0.1959  0.3106  0.0928
 2733TIP3   OH229689   2.744   2.257  16.983 -0.2406  0.0542  0.2432
 2733TIP3    H129690   2.691   2.188  17.024  0.9166 -1.6658 -1.0720
 2733TIP3    H229691   2.733   2.243  16.889  1.5926  0.4268 -0.0366
 2734TIP3   OH229692   4.924   4.748   4.581  0.0126  0.0910  0.3081
 2734TIP3    H129693   4.930   4.817   4.648 -1.4502  0.6836 -0.1578
 2734TIP3    H229694   4.833   4.751   4.552 -0.1284 -2.1997  0.4408
 2735TIP3   OH229695   5.019   4.142  15.180  0.0618  0.3175 -0.1376
 2735TIP3    H129696   5.042   4.200  15.252 -0.1825  1.1033 -0.6842
 2735TIP3    H229697   4.961   4.194  15.125  2.4356  0.7197 -2.3727
 2736TIP3   OH229698   3.078   3.973   3.835 -0.9295 -0.4806  0.4654
 2736TIP3    H129699   3.143   3.931   3.891  0.4761 -0.4776 -1.1291
 2736TIP3    H229700   3.107   4.064   3.829 -1.0585 -0.4914 -0.2978
 2737TIP3   OH229701   5.686   3.482  13.305  0.5486  0.3847 -0.3375
 2737TIP3    H129702   5.609   3.497  13.361 -0.3538 -0.3948 -1.3450
 2737TIP3    H229703   5.665   3.527  13.223  0.9399 -0.2816 -0.8050
 2738TIP3   OH229704   0.482   1.646   3.977 -0.1733 -0.0265  0.2313
 2738TIP3    H129705   0.529   1.562   3.980 -0.2931 -0.1248 -0.5851
 2738TIP3    H229706   0.435   1.649   4.060 -1.7479 -1.6802 -0.5695
 2739TIP3   OH229707   2.755   5.757   2.588 -0.4582  0.2149  0.1598
 2739TIP3    H129708   2.826   5.703   2.555 -1.1352 -0.9766  0.6468
 2739TIP3    H229709   2.676   5.706   2.573 -1.1178  1.1199  0.5035
 2740TIP3   OH229710   1.352   3.701  11.496  0.1393  0.0389  0.1354
 2740TIP3    H129711   1.301   3.778  11.471 -0.8802 -0.0420  1.8484
 2740TIP3    H229712   1.422   3.735  11.551 -0.0352 -0.1886  0.5059
 2741TIP3   OH229713   4.692   2.776   0.545  0.5006  0.1743 -0.0934
 2741TIP3    H129714   4.724   2.686   0.554  1.0428  0.5612  1.9814
 2741TIP3    H229715   4.615   2.780   0.601  0.7578  1.1413  0.1998
 2742TIP3   OH229716   4.168   1.057   0.968  0.1653 -0.1070 -0.3054
 2742TIP3    H129717   4.126   1.003   0.901 -1.1041  1.5600 -0.9089
 2742TIP3    H229718   4.257   1.071   0.935  0.1514 -0.8808 -0.6928
 2743TIP3   OH229719   2.731   1.283   5.510 -0.4166 -0.1480  0.0211
 2743TIP3    H129720   2.814   1.323   5.533 -0.8953  0.9935 -0.2030
 2743TIP3    H229721   2.701   1.330   5.432 -0.6900 -1.3663 -0.6275
 2744TIP3   OH229722   1.931   5.187   5.018  0.0137  0.2768 -0.0572
 2744TIP3    H129723   2.027   5.195   5.017  0.0246  0.1363 -1.4670
 2744TIP3    H229724   1.912   5.117   4.956 -0.9358 -0.7388  1.3565
 2745TIP3   OH229725   4.476   3.635  13.670  0.5776 -0.4467 -0.3137
 2745TIP3    H129726   4.420   3.686  13.729 -0.9958 -0.7863 -1.4683
 2745TIP3    H229727   4.495   3.694  13.597  1.1526 -0.5588 -0.2578
 2746TIP3   OH229728   5.333   3.147  16.754  0.2307  0.7621 -0.2813
 2746TIP3    H129729   5.419   3.164  16.791  1.1104  0.1345 -1.9537
 2746TIP3    H229730   5.291   3.233  16.748 -0.2104  0.7951  2.7264
 2747TIP3   OH229731   0.861   3.640   3.895  0.1712  0.2283  0.0984
 2747TIP3    H129732   0.885   3.713   3.951 -0.7500 -0.5122  1.5001
 2747TIP3    H229733   0.820   3.576   3.954 -1.8670 -0.0958 -1.5684
 2748TIP3   OH229734   5.290   5.479  13.323  0.0479  0.3999  0.0356
 2748TIP3    H129735   5.325   5.554  13.372 -1.2895  0.4077  0.9875
 2748TIP3    H229736   5.311   5.499  13.231  2.4408  0.4417  0.5611
 2749TIP3   OH229737   3.981   4.889   1.602  0.3394 -0.2107  0.4825
 2749TIP3    H129738   3.910   4.951   1.586  0.6245  0.8265  2.9535
 2749TIP3    H229739   4.055   4.943   1.630  2.1482 -1.2766 -1.9612
 2750TIP3   OH229740   2.845   3.859  10.677 -0.0554  0.1610  0.7116
 2750TIP3    H129741   2.803   3.934  10.720  1.2961  1.6602 -0.5213
 2750TIP3    H229742   2.938   3.884  10.672 -0.0478 -0.3430 -2.2756
 2751TIP3   OH229743   0.616   5.846   2.852  0.5581 -0.0022  0.6035
 2751TIP3    H129744   0.545   5.910   2.866  1.2674  0.7876  0.6632
 2751TIP3    H229745   0.691   5.885   2.897  1.1936 -0.5262 -0.0120
 2752TIP3   OH229746   0.198   4.928   4.736  0.4809 -0.7814  0.5654
 2752TIP3    H129747   0.152   4.843   4.732  2.8403 -2.0274 -1.5992
 2752TIP3    H229748   0.138   4.988   4.692  0.0900 -1.9957 -0.6208
 2753TIP3   OH229749   0.181   0.744  15.649 -0.1231  0.2060 -0.4933
 2753TIP3    H129750   0.188   0.655  15.617 -0.2284 -0.0433  0.1630
 2753TIP3    H229751   0.214   0.739  15.739  1.7735  1.2014 -1.0892
 2754TIP3   OH229752   0.669   3.449   1.224 -0.0782  0.0903 -0.1888
 2754TIP3    H129753   0.626   3.422   1.305  1.8222  1.3414  1.3093
 2754TIP3    H229754   0.632   3.393   1.157 -1.2120 -1.4598  1.6696
 2755TIP3   OH229755   0.731   2.557  13.153  0.0559  0.6591 -0.4452
 2755TIP3    H129756   0.747   2.477  13.104  0.7715  0.5642 -0.0634
 2755TIP3    H229757   0.791   2.621  13.115  2.3471 -0.0424  1.8452
 2756TIP3   OH229758   2.598   3.446  16.779  0.0403  0.1726 -0.1592
 2756TIP3    H129759   2.568   3.471  16.691  0.7288  1.2053 -0.1134
 2756TIP3    H229760   2.553   3.506  16.838 -0.7650 -0.8160  0.2414
 2757TIP3   OH229761   3.915   1.192   1.641 -0.0587 -0.3578  0.4882
 2757TIP3    H129762   3.897   1.159   1.553 -1.4120  1.1563  0.1739
 2757TIP3    H229763   3.860   1.269   1.650  3.0993  1.9264  1.1558
 2758TIP3   OH229764   5.218   5.575  12.355  0.6653 -0.2294  0.1271
 2758TIP3    H129765   5.158   5.562  12.282  1.6541 -0.1439 -0.7081
 2758TIP3    H229766   5.241   5.486  12.383  0.5882 -0.2612  0.0901
 2759TIP3   OH229767   6.493   1.108   0.200 -0.7670 -0.1408 -0.1021
 2759TIP3    H129768   6.497   1.156   0.283 -0.8441 -0.7116  0.2321
 2759TIP3    H229769   6.584   1.083   0.183 -0.7254  0.1251 -0.2792
 2760TIP3   OH229770   4.931   5.231   2.422 -0.0376  0.4447 -0.5143
 2760TIP3    H129771   4.897   5.265   2.504 -1.0251 -1.2994 -0.1750
 2760TIP3    H229772   5.026   5.240   2.431 -0.2705  4.0851 -0.9201
 2761TIP3   OH229773   6.119   4.884   3.564  0.1870  0.0176 -0.2166
 2761TIP3    H129774   6.189   4.854   3.622  0.9808  1.3675 -0.4454
 2761TIP3    H229775   6.149   4.863   3.476 -1.7376 -3.5100 -0.1380
 2762TIP3   OH229776   1.365   0.058  13.791  0.5145  0.3361  0.6247
 2762TIP3    H129777   1.303   0.120  13.830  0.2186  0.5793 -0.2365
 2762TIP3    H229778   1.411   0.021  13.867 -1.1279 -0.3374  1.3351
 2763TIP3   OH229779   1.579   4.566  13.780 -0.1972  0.2211 -0.1408
 2763TIP3    H129780   1.633   4.553  13.703  1.4457 -0.6739  1.1309
 2763TIP3    H229781   1.509   4.625  13.751  0.2653 -0.2794 -2.3394
 2764TIP3   OH229782   6.797   1.554   2.140 -0.0437 -0.3321  0.1209
 2764TIP3    H129783   6.815   1.518   2.227 -0.6049  1.3170  0.9318
 2764TIP3    H229784   6.761   1.641   2.157  2.6287  1.2142 -1.8538
 2765TIP3   OH229785   3.155   4.427  16.169 -0.1038 -0.2243  0.1976
 2765TIP3    H129786   3.194   4.485  16.104  0.9872 -1.1823 -0.0242
 2765TIP3    H229787   3.218   4.423  16.240 -0.1643 -1.1250  0.2164
 2766TIP3   OH229788   0.347   5.830  11.950 -0.0848 -0.0518  0.4613
 2766TIP3    H129789   0.395   5.813  12.031 -1.7776 -2.6067  0.9738
 2766TIP3    H229790   0.387   5.771  11.886 -0.0718  0.5377 -0.0786
 2767TIP3   OH229791   2.597   2.763  12.011 -0.3883  0.6874  0.3761
 2767TIP3    H129792   2.561   2.678  12.037  0.3125  0.2536 -0.0422
 2767TIP3    H229793   2.596   2.761  11.916  0.3214  0.8472  0.3611
 2768TIP3   OH229794   0.642   5.034  16.202  0.1848  0.1010  0.3367
 2768TIP3    H129795   0.679   4.952  16.234 -2.2697  0.0078  3.1490
 2768TIP3    H229796   0.548   5.023  16.209 -0.2966  2.1821 -1.8642
 2769TIP3   OH229797   6.127   1.560  13.321 -0.1209 -0.1411 -0.2994
 2769TIP3    H129798   6.083   1.631  13.368  1.2653  0.6183 -0.1072
 2769TIP3    H229799   6.058   1.495  13.306 -0.9578  0.3368  1.3011
 2770TIP3   OH229800   2.401   5.981   2.485  0.3235  0.6625  0.1252
 2770TIP3    H129801   2.449   6.042   2.429 -0.9108  1.2041 -0.3697
 2770TIP3    H229802   2.347   6.037   2.540  1.0101  0.1031  1.3976
 2771TIP3   OH229803   0.715   3.755  13.140 -0.1895 -0.3625  0.0007
 2771TIP3    H129804   0.649   3.757  13.210  0.8196  0.4238  0.9521
 2771TIP3    H229805   0.778   3.689  13.169  0.6431  0.5177  0.2295
 2772TIP3   OH229806   2.846   2.565   1.674  0.0980  0.3733 -0.3976
 2772TIP3    H129807   2.779   2.551   1.607  2.0988 -0.5198 -2.2369
 2772TIP3    H229808   2.816   2.513   1.749 -0.2985 -1.5213 -1.8508
 2773TIP3   OH229809   1.308   1.300  12.844 -0.3812  0.2278 -0.1928
 2773TIP3    H129810   1.325   1.210  12.870 -0.6444  0.6256  1.3982
 2773TIP3    H229811   1.271   1.341  12.922 -1.4283  1.3874 -1.2841
 2774TIP3   OH229812   4.718   0.424   3.643  0.1036  0.3194 -0.4736
 2774TIP3    H129813   4.661   0.388   3.575 -1.0058 -1.1080  1.1410
 2774TIP3    H229814   4.757   0.502   3.604  0.7168 -1.3041 -3.2767
 2775TIP3   OH229815   0.403   2.384  14.673 -0.2778 -0.4037 -0.0719
 2775TIP3    H129816   0.426   2.477  14.666 -2.4707  0.1551 -0.0238
 2775TIP3    H229817   0.413   2.364  14.767 -2.1774  0.4340  0.3231
 2776TIP3   OH229818   4.666   0.612  16.188 -0.1472  0.0264  0.5169
 2776TIP3    H129819   4.703   0.680  16.132  0.9897 -0.0173  1.1958
 2776TIP3    H229820   4.728   0.605  16.261  0.0791 -2.1632  0.1603
 2777TIP3   OH229821   2.130   5.038  12.932 -0.0030 -0.1799  0.5027
 2777TIP3    H129822   2.187   5.096  12.882 -1.2209  1.3295  0.8115
 2777TIP3    H229823   2.176   4.954  12.934  1.9750  0.8773  0.3673
 2778TIP3   OH229824   1.045   5.730  16.022 -0.5108 -0.6279 -0.0140
 2778TIP3    H129825   1.094   5.677  16.085  0.0486  0.9254  0.9003
 2778TIP3    H229826   0.953   5.710  16.040 -0.3288 -0.7494  0.7987
 2779TIP3   OH229827   3.357   4.064  13.546  0.1613 -0.0887  0.1500
 2779TIP3    H129828   3.315   4.129  13.602  0.7051  0.7319 -0.3660
 2779TIP3    H229829   3.293   4.045  13.478 -0.3751 -0.8423  0.8586
 2780TIP3   OH229830   5.847   5.776   5.202  0.1163  0.2206 -0.7514
 2780TIP3    H129831   5.878   5.748   5.288  1.3012 -1.9214 -1.8383
 2780TIP3    H229832   5.762   5.816   5.218 -0.0845 -1.0059  1.2854
 2781TIP3   OH229833   4.684   0.729   3.999 -0.2221  0.3070  0.0997
 2781TIP3    H129834   4.730   0.646   3.985 -0.7240  0.4755 -2.9396
 2781TIP3    H229835   4.737   0.794   3.952 -2.2457  0.9146 -1.4087
 2782TIP3   OH229836   4.132   4.318   1.918 -0.3698 -0.0338 -0.1893
 2782TIP3    H129837   4.212   4.269   1.897 -0.4929 -0.5936  0.6366
 2782TIP3    H229838   4.101   4.350   1.833  2.2296  2.5598 -0.2318
 2783TIP3   OH229839   1.288   6.261  15.710  0.3892 -0.5103  0.5766
 2783TIP3    H129840   1.311   6.286  15.799 -0.6373  0.6575  0.5324
 2783TIP3    H229841   1.206   6.307  15.693  0.3570 -1.0573 -0.8238
 2784TIP3   OH229842   3.056   4.398  15.221 -0.4049  0.7370 -0.2272
 2784TIP3    H129843   3.100   4.313  15.218 -2.6550 -0.4036 -1.4693
 2784TIP3    H229844   3.124   4.461  15.197  1.1157 -0.7522  0.0917
 2785TIP3   OH229845   4.595   0.094  12.078  0.5640  0.3792  0.5380
 2785TIP3    H129846   4.527   0.071  12.014  0.9541 -1.6923  0.8445
 2785TIP3    H229847   4.665   0.131  12.025  0.1951  0.2521 -0.0488
 2786TIP3   OH229848   3.753   1.196  14.116  0.2628  0.3778  0.1625
 2786TIP3    H129849   3.764   1.174  14.024  2.0982 -0.0891  0.4703
 2786TIP3    H229850   3.664   1.168  14.137  0.0391 -0.0647 -1.3082
 2787TIP3   OH229851   6.818   6.016   2.095  0.2788 -0.7822 -0.3662
 2787TIP3    H129852   6.878   5.942   2.087  3.9324  2.1742 -1.3663
 2787TIP3    H229853   6.785   6.030   2.006 -0.0509 -0.8911 -0.2639
 2788TIP3   OH229854   1.550   2.850  17.255  0.2819 -0.3856  0.0584
 2788TIP3    H129855   1.556   2.816  17.344 -0.5971 -1.2093 -0.1945
 2788TIP3    H229856   1.507   2.781  17.205 -0.3318  0.5551 -0.7479
 2789TIP3   OH229857   1.855   2.588  17.036 -0.7183  0.6055  0.1595
 2789TIP3    H129858   1.878   2.665  16.984  1.4795 -2.0585 -3.0017
 2789TIP3    H229859   1.913   2.594  17.113  0.4245  1.3894 -0.7432
 2790TIP3   OH229860   5.261   2.342   1.876  0.4000  0.1368 -0.4563
 2790TIP3    H129861   5.339   2.399   1.877  0.2169  0.3854  1.4513
 2790TIP3    H229862   5.204   2.382   1.810  0.4417  1.9565  0.5714
 2791TIP3   OH229863   4.705   6.258   2.567  0.3835  0.0325 -0.0818
 2791TIP3    H129864   4.627   6.231   2.617  2.0074 -0.4734  2.2656
 2791TIP3    H229865   4.698   6.354   2.563 -0.4717 -0.0198 -0.0996
 2792TIP3   OH229866   6.645   0.215  13.128  0.1543 -0.2087 -0.8309
 2792TIP3    H129867   6.700   0.199  13.204 -0.3820 -0.0309 -0.4019
 2792TIP3    H229868   6.556   0.196  13.158 -0.5878  3.8739 -0.1591
 2793TIP3   OH229869   1.466   1.995  15.771 -0.0970 -0.0937  0.6516
 2793TIP3    H129870   1.431   2.057  15.707  2.3405  0.5819 -0.1044
 2793TIP3    H229871   1.446   2.035  15.856 -2.1694 -0.3327  0.3130
 2794TIP3   OH229872   3.000   6.233  14.311  0.4436  0.4254  0.2059
 2794TIP3    H129873   2.959   6.275  14.236  0.9440  0.3217 -0.1271
 2794TIP3    H229874   3.026   6.147  14.279 -0.2351 -0.0001  0.7773
 2795TIP3   OH229875   4.847   1.721  13.353 -0.0245  0.2613  0.5125
 2795TIP3    H129876   4.758   1.698  13.329  0.6963 -1.3532 -0.7618
 2795TIP3    H229877   4.902   1.666  13.297  1.7704  1.1068  1.3786
 2796TIP3   OH229878   6.070   4.191  13.285  0.5100 -0.1023 -0.2487
 2796TIP3    H129879   6.052   4.247  13.210  1.9315  0.9159  0.1414
 2796TIP3    H229880   5.993   4.200  13.342 -0.5729 -0.8835 -1.5760
 2797TIP3   OH229881   5.186   4.416  13.414 -0.5536 -0.3306 -0.0072
 2797TIP3    H129882   5.170   4.487  13.352  0.5098 -0.7122 -0.7555
 2797TIP3    H229883   5.225   4.458  13.490  2.1878 -0.3204 -1.3275
 2798TIP3   OH229884   1.531   4.858  13.128 -0.2813  0.0245 -0.5315
 2798TIP3    H129885   1.517   4.897  13.041  1.4956 -1.0450 -1.3138
 2798TIP3    H229886   1.469   4.785  13.132 -0.4266  0.1300 -0.8781
 2799TIP3   OH229887   3.369   0.332  11.261 -0.5457 -0.4824  0.0468
 2799TIP3    H129888   3.454   0.287  11.254 -0.5343 -0.7992  2.1161
 2799TIP3    H229889   3.384   0.416  11.219  1.3068  0.1315  1.8532
 2800TIP3   OH229890   2.189   3.079   0.344 -0.0486 -0.0230 -0.0556
 2800TIP3    H129891   2.264   3.057   0.399 -0.6758  1.7084  1.5182
 2800TIP3    H229892   2.228   3.113   0.263  0.8824  0.4518  0.5806
 2801TIP3   OH229893   0.177   6.307  12.068 -0.1719 -0.4089 -0.2293
 2801TIP3    H129894   0.110   6.368  12.099  1.1247  1.7196 -1.5389
 2801TIP3    H229895   0.240   6.303  12.140 -1.7756 -2.6563  1.1362
 2802TIP3   OH229896   1.277   1.179   5.117  0.6206 -0.1422  0.1668
 2802TIP3    H129897   1.295   1.268   5.147 -1.4115 -0.3160  2.0235
 2802TIP3    H229898   1.181   1.170   5.122  0.6671 -1.9615 -1.3581
 2803TIP3   OH229899   0.174   4.230   1.451 -0.2096 -0.0678 -0.2234
 2803TIP3    H129900   0.145   4.154   1.401 -0.6485 -0.3794  0.4933
 2803TIP3    H229901   0.097   4.286   1.456  0.3262  0.7891 -1.4092
 2804TIP3   OH229902   1.763   0.670  13.158  0.2456  0.1917  0.1245
 2804TIP3    H129903   1.793   0.744  13.211  0.2388  0.0712  0.2923
 2804TIP3    H229904   1.831   0.660  13.090  1.0149 -0.6197  1.0010
 2805TIP3   OH229905   2.753   4.396  11.171  0.3191 -0.5035  0.0602
 2805TIP3    H129906   2.840   4.374  11.138  0.2014 -1.0255  0.1066
 2805TIP3    H229907   2.750   4.357  11.259  0.7654  1.1795  0.8476
 2806TIP3   OH229908   6.117   5.710   3.125  0.2846  0.4385 -0.2248
 2806TIP3    H129909   6.087   5.786   3.076  0.0408  1.4889  1.4999
 2806TIP3    H229910   6.038   5.659   3.143  0.3505  0.1429 -0.7872
 2807TIP3   OH229911   2.934   5.710  11.622  0.3759  0.1276 -0.6442
 2807TIP3    H129912   3.020   5.699  11.581 -0.3125 -0.0124 -2.0871
 2807TIP3    H229913   2.889   5.627  11.604  0.3406 -0.2740  1.1470
 2808TIP3   OH229914   1.225   0.060  14.584  0.4152 -0.5464 -0.3412
 2808TIP3    H129915   1.140   0.017  14.572 -0.7653  1.0574  1.9182
 2808TIP3    H229916   1.276  -0.001  14.637 -0.6765  0.1074  1.4751
 2809TIP3   OH229917   1.390   0.153  13.536 -0.0642  0.1688  0.0142
 2809TIP3    H129918   1.443   0.221  13.578  0.5870 -0.7693  0.7047
 2809TIP3    H229919   1.352   0.104  13.608 -0.3713 -0.3373 -0.4934
 2810TIP3   OH229920   3.319   3.248   1.604 -0.0163 -0.2400  0.3791
 2810TIP3    H129921   3.385   3.306   1.566  0.7277 -1.6026 -0.4548
 2810TIP3    H229922   3.330   3.258   1.698  0.4280  0.6133  0.2440
 2811TIP3   OH229923   6.634   5.953   5.608 -0.0206 -0.1218 -0.4796
 2811TIP3    H129924   6.585   6.034   5.621 -0.1656  0.1198 -2.3855
 2811TIP3    H229925   6.658   5.925   5.696 -1.7588  0.8804  0.3445
 2812TIP3   OH229926   1.726   2.798   4.123 -0.2442 -0.0590 -0.6817
 2812TIP3    H129927   1.647   2.798   4.177 -0.4309 -1.2071 -0.9467
 2812TIP3    H229928   1.739   2.706   4.099  0.1370  0.3681 -2.1668
 2813TIP3   OH229929   3.949   4.625  16.940 -0.1082 -0.5104 -0.0082
 2813TIP3    H129930   3.960   4.550  16.882 -0.7690 -1.1094  0.6164
 2813TIP3    H229931   3.920   4.696  16.884 -1.5307 -1.2991 -0.3063
 2814TIP3   OH229932   2.120   4.451  15.951  1.0317  0.7205  0.2800
 2814TIP3    H129933   2.080   4.538  15.950  2.3310  1.3383 -2.5641
 2814TIP3    H229934   2.206   4.466  15.991  2.5263  1.4198 -3.0140
 2815TIP3   OH229935   6.819   0.586   1.139 -0.5248 -0.6081 -0.2426
 2815TIP3    H129936   6.790   0.637   1.063 -2.1648  0.0366  0.7889
 2815TIP3    H229937   6.915   0.591   1.135 -0.6153  0.6837 -1.4167
 2816TIP3   OH229938   3.050   0.534  13.723  0.5624 -0.2966  0.0888
 2816TIP3    H129939   3.060   0.561  13.814 -0.3781 -3.3764  1.1745
 2816TIP3    H229940   3.124   0.477  13.706  1.3882  1.2005 -1.4927
 2817TIP3   OH229941   3.101   2.168  14.580 -0.0939  0.2068 -0.5642
 2817TIP3    H129942   3.120   2.074  14.574 -0.1335  0.2160 -0.8328
 2817TIP3    H229943   3.176   2.204  14.627 -0.6738 -0.1499  0.6538
 2818TIP3   OH229944   0.872   3.026  10.649 -0.0763  0.5505  0.2887
 2818TIP3    H129945   0.860   3.003  10.557  0.6978 -0.9061  0.5411
 2818TIP3    H229946   0.834   2.953  10.698  0.6944  0.6882  1.1137
 2819TIP3   OH229947   2.427   2.139  15.046  0.1633  0.6164  0.2495
 2819TIP3    H129948   2.342   2.116  15.008 -1.3710  0.0797  3.7952
 2819TIP3    H229949   2.423   2.233  15.061  0.7211  0.8098 -0.7963
 2820TIP3   OH229950   1.525   5.860  12.941 -0.0364  0.1830  0.0764
 2820TIP3    H129951   1.577   5.937  12.959 -1.1862  0.6540  1.4825
 2820TIP3    H229952   1.560   5.792  12.999  0.3891 -0.1167 -0.5180
 2821TIP3   OH229953   2.236   6.031  15.657 -0.1707 -0.2121 -0.4966
 2821TIP3    H129954   2.183   5.983  15.720 -0.1175 -0.2608 -0.4892
 2821TIP3    H229955   2.173   6.071  15.597 -0.3084  1.2479  0.5901
 2822TIP3   OH229956   2.372   6.587   4.837 -0.1229 -0.0462 -0.4160
 2822TIP3    H129957   2.394   6.654   4.773 -0.4659  0.8499  0.3880
 2822TIP3    H229958   2.280   6.566   4.822  0.1342 -0.7562 -1.0367
 2823TIP3   OH229959   5.430   1.186  10.705 -0.1915  0.9968  0.7312
 2823TIP3    H129960   5.414   1.140  10.787  0.2245 -0.6086 -0.0729
 2823TIP3    H229961   5.518   1.159  10.679 -0.3064  1.5228 -0.2238
 2824TIP3   OH229962   0.894   3.131  14.489  0.5255 -0.2476 -0.1889
 2824TIP3    H129963   0.867   3.186  14.563  0.0697 -0.4895 -0.1749
 2824TIP3    H229964   0.891   3.188  14.413 -0.3740 -0.3718 -0.2452
 2825TIP3   OH229965   0.494   0.207   5.851  0.0826  0.3795  0.0327
 2825TIP3    H129966   0.550   0.131   5.831 -0.5380 -0.1637  0.3333
 2825TIP3    H229967   0.427   0.205   5.783  0.4103  1.0094 -0.3070
 2826TIP3   OH229968   1.405   5.491  15.161 -0.3386 -0.1234  0.4959
 2826TIP3    H129969   1.393   5.397  15.151 -0.7400 -0.0433  0.2253
 2826TIP3    H229970   1.486   5.511  15.113 -0.0761 -0.3797  0.8303
 2827TIP3   OH229971   5.474   2.904   4.658 -0.7600  0.0842  0.0841
 2827TIP3    H129972   5.482   2.811   4.682 -0.2958 -0.8128 -3.2746
 2827TIP3    H229973   5.390   2.931   4.694 -0.6611 -1.4695  1.5640
 2828TIP3   OH229974   1.695   0.378  17.170  0.2801  0.0655 -0.1443
 2828TIP3    H129975   1.757   0.323  17.219 -1.1008 -1.3070  0.0823
 2828TIP3    H229976   1.734   0.466  17.173  2.1989 -0.7604  0.0219
 2829TIP3   OH229977   2.614   0.274   1.088 -0.2727 -0.9267  0.4774
 2829TIP3    H129978   2.635   0.365   1.110 -0.0756 -0.9050  0.1926
 2829TIP3    H229979   2.577   0.278   1.000  2.6815 -1.4763 -0.8575
 2830TIP3   OH229980   1.147   4.912   3.325  0.4252 -0.4854  0.3675
 2830TIP3    H129981   1.095   4.961   3.261  1.4260  0.3514  0.1769
 2830TIP3    H229982   1.087   4.894   3.396 -0.1401  0.4400  0.1290
 2831TIP3   OH229983   0.445   5.379  13.237  0.4497  0.1347 -0.3597
 2831TIP3    H129984   0.494   5.352  13.160  1.5588 -3.1963  1.4151
 2831TIP3    H229985   0.394   5.302  13.262 -0.1768  1.2458  1.9912
 2832TIP3   OH229986   1.427   0.009   3.002  0.1192  0.4061 -0.1080
 2832TIP3    H129987   1.489  -0.010   3.072 -0.0878  1.5737  0.4046
 2832TIP3    H229988   1.396  -0.077   2.973  2.1284 -0.2212 -0.5281
 2833TIP3   OH229989   6.680   2.913   1.721  0.2134  0.0170 -0.1913
 2833TIP3    H129990   6.590   2.929   1.751 -0.9123 -0.3164 -3.2056
 2833TIP3    H229991   6.690   2.972   1.646  2.3921 -0.2392 -0.1074
 2834TIP3   OH229992   1.289   4.419   0.123 -0.2047  0.4818  0.5395
 2834TIP3    H129993   1.224   4.489   0.111  0.2870  0.6366 -1.3861
 2834TIP3    H229994   1.352   4.433   0.053  0.5935 -1.1403  0.9170
 2835TIP3   OH229995   4.555   1.088  15.168  0.3597  0.1402  0.3293
 2835TIP3    H129996   4.527   1.031  15.240  0.1793  0.9643  0.9133
 2835TIP3    H229997   4.492   1.160  15.168  0.7382  0.4717 -0.2476
 2836TIP3   OH229998   5.648   6.513   0.331 -0.0587 -0.1007  0.5412
 2836TIP3    H129999   5.599   6.501   0.250 -0.4743  2.4223  0.3946
 2836TIP3    H230000   5.735   6.542   0.304  0.7199 -2.0262  0.9069
 2837TIP3   OH230001   5.693   1.113  10.562  0.2412  0.1837  0.3229
 2837TIP3    H130002   5.707   1.177  10.493  0.7941  1.5293  1.6437
 2837TIP3    H230003   5.775   1.062  10.564 -0.3812 -0.9104 -1.0437
 2838TIP3   OH230004   1.254   3.853  16.034  0.2814  0.2233 -0.6138
 2838TIP3    H130005   1.310   3.919  16.075 -0.9825  2.3154 -2.1358
 2838TIP3    H230006   1.188   3.904  15.986 -0.5412 -2.1477 -2.0962
 2839TIP3   OH230007   6.223   2.691   2.557  0.6277  0.5109  0.6504
 2839TIP3    H130008   6.251   2.782   2.566  1.5923  0.2171  0.7568
 2839TIP3    H230009   6.206   2.662   2.647 -0.4107  0.7998  0.5552
 2840TIP3   OH230010   3.980   2.049   3.560 -0.1630  0.7312  0.2736
 2840TIP3    H130011   3.900   2.102   3.563 -0.6905  0.0195 -0.9255
 2840TIP3    H230012   4.005   2.039   3.652 -1.4346  0.9739  0.6658
 2841TIP3   OH230013   0.635   5.953   0.712  0.3641 -0.4805  0.0655
 2841TIP3    H130014   0.567   5.995   0.660  1.0966  1.0006  0.2855
 2841TIP3    H230015   0.603   5.863   0.725 -1.1589 -0.0348 -0.4972
 2842TIP3   OH230016   3.602   4.403  14.667  0.5207  0.2279 -0.3216
 2842TIP3    H130017   3.597   4.311  14.639  0.6818 -0.1436  0.8428
 2842TIP3    H230018   3.655   4.401  14.747 -2.2364  0.9025  1.6081
 2843TIP3   OH230019   3.169   0.692   4.020 -0.1993  0.0858  0.0977
 2843TIP3    H130020   3.173   0.673   4.113 -1.1501 -1.9997 -0.2659
 2843TIP3    H230021   3.135   0.782   4.015 -1.1524 -0.1702  1.7236
 2844TIP3   OH230022   1.254   3.343   4.590  0.0901  0.1763  0.0636
 2844TIP3    H130023   1.169   3.335   4.634  0.2183 -0.5818  0.1691
 2844TIP3    H230024   1.298   3.260   4.606 -0.0411 -0.3107 -1.8918
 2845TIP3   OH230025   0.537   0.334   5.478 -0.1367 -0.3868 -0.1841
 2845TIP3    H130026   0.468   0.288   5.527 -0.3094  0.5611  0.4523
 2845TIP3    H230027   0.552   0.277   5.402 -2.0931 -0.2907 -0.6833
 2846TIP3   OH230028   4.944   0.819   5.323 -0.2712 -0.4104  0.6188
 2846TIP3    H130029   5.006   0.746   5.328 -1.1848 -1.3496 -1.0620
 2846TIP3    H230030   4.874   0.786   5.267 -1.2575  1.3758  0.7800
 2847TIP3   OH230031   6.670   1.519  15.672 -0.3847  0.7785 -0.6844
 2847TIP3    H130032   6.619   1.591  15.635  0.4696  0.8343 -1.7862
 2847TIP3    H230033   6.670   1.453  15.602 -2.3067 -0.8702  0.8049
 2848TIP3   OH230034   3.623   0.353  17.210 -0.0936  0.1154  0.4659
 2848TIP3    H130035   3.613   0.432  17.261 -0.0596  1.0319 -0.9142
 2848TIP3    H230036   3.533   0.325  17.190 -0.1005  0.0036  0.6551
 2849TIP3   OH230037   2.762   1.589   1.743  0.0250 -0.3262 -0.1891
 2849TIP3    H130038   2.774   1.542   1.826  0.7392  0.8319  0.3753
 2849TIP3    H230039   2.840   1.569   1.693  1.0171  1.3942  0.6254
 2850TIP3   OH230040   3.588   5.664   0.919  0.2293  0.7354 -0.0219
 2850TIP3    H130041   3.645   5.723   0.871  1.3853 -0.7743 -0.5284
 2850TIP3    H230042   3.529   5.628   0.853  0.7002 -0.0476 -0.0134
 2851TIP3   OH230043   5.032   4.445   4.053 -0.4303 -0.6305 -0.3146
 2851TIP3    H130044   5.121   4.416   4.071 -0.5480 -0.9945 -0.3001
 2851TIP3    H230045   4.980   4.364   4.057 -0.9418 -0.2516  0.8278
 2852TIP3   OH230046   5.691   3.890  11.941  1.0526  0.2769 -0.5213
 2852TIP3    H130047   5.760   3.914  11.879  2.0541 -1.1150  0.0573
 2852TIP3    H230048   5.722   3.922  12.026  0.2052  1.1530 -0.5277
 2853TIP3   OH230049   2.964   5.769  10.588 -0.4422  0.0142  0.0571
 2853TIP3    H130050   2.982   5.675  10.583 -1.6865 -0.1956 -0.6310
 2853TIP3    H230051   2.879   5.775  10.631 -0.4191  0.8191  0.0021
 2854TIP3   OH230052   2.197   6.599   1.019 -0.0500  0.6222  0.0224
 2854TIP3    H130053   2.227   6.532   0.959 -1.1320 -1.3816  1.6532
 2854TIP3    H230054   2.258   6.594   1.093 -1.1344  0.2450  0.9060
 2855TIP3   OH230055   3.132   0.717  13.064 -0.0602 -0.1035  0.0688
 2855TIP3    H130056   3.205   0.746  13.119 -0.3416  0.5114  0.1269
 2855TIP3    H230057   3.065   0.785  13.075 -0.4585 -0.4228 -0.3479
 2856TIP3   OH230058   2.320   0.064   4.295 -0.3935  0.1711  0.2166
 2856TIP3    H130059   2.406   0.028   4.272  0.0933  1.4150 -0.0077
 2856TIP3    H230060   2.266   0.048   4.218 -0.2980 -0.4096  0.2672
 2857TIP3   OH230061   0.853   6.527   1.896  0.7855  0.8653 -0.2832
 2857TIP3    H130062   0.796   6.513   1.972  1.3577  2.0961  0.3939
 2857TIP3    H230063   0.801   6.497   1.821  0.4331 -0.8913  0.6580
 2858TIP3   OH230064   2.196   0.671   4.675 -0.5580 -0.3118 -0.3149
 2858TIP3    H130065   2.211   0.750   4.624  0.8927 -1.3838 -1.5909
 2858TIP3    H230066   2.215   0.696   4.765 -1.0059  1.0160 -0.5741
 2859TIP3   OH230067   3.002   0.103  12.370 -0.3686 -0.1810  0.3065
 2859TIP3    H130068   3.067   0.168  12.399 -1.8071  2.0406 -1.2645
 2859TIP3    H230069   2.936   0.104  12.440 -1.3551  1.5398 -0.5984
 2860TIP3   OH230070   3.290   1.330   4.785 -0.3040  0.3828 -0.3050
 2860TIP3    H130071   3.380   1.364   4.785  0.6713 -2.1275  0.1129
 2860TIP3    H230072   3.299   1.236   4.772 -2.9476  0.1993 -1.1510
 2861TIP3   OH230073   1.162   6.729  14.924 -0.6397 -0.4561 -0.7670
 2861TIP3    H130074   1.138   6.805  14.978  0.8121  1.2595 -2.4878
 2861TIP3    H230075   1.085   6.714  14.870 -0.7429  0.1178 -0.7884
 2862TIP3   OH230076   4.950   5.206  10.292  0.0803  0.0478  0.1837
 2862TIP3    H130077   4.905   5.176  10.213 -0.3372 -1.2086  0.8951
 2862TIP3    H230078   4.885   5.197  10.362  1.1779 -1.0342  1.0843
 2863TIP3   OH230079   1.595   3.634  12.909  0.1043 -0.1923 -0.1087
 2863TIP3    H130080   1.554   3.570  12.968  0.7962 -0.4479  0.1033
 2863TIP3    H230081   1.633   3.699  12.968 -1.6059  1.0566 -0.3508
 2864TIP3   OH230082   0.101   5.868   1.872 -0.2427  0.2112  0.3914
 2864TIP3    H130083   0.080   5.812   1.947  1.1820 -1.4359 -0.4149
 2864TIP3    H230084   0.189   5.901   1.891  0.0453 -0.0559 -0.4532
 2865TIP3   OH230085   3.747   4.798  12.416  0.3690  0.2517 -0.4925
 2865TIP3    H130086   3.680   4.806  12.485  0.0614  1.1731 -0.8934
 2865TIP3    H230087   3.825   4.768  12.463 -0.7037 -2.3084 -0.2446
 2866TIP3   OH230088   1.486   5.201   0.263  0.6793  0.0712  0.0602
 2866TIP3    H130089   1.536   5.283   0.260 -1.3021  1.2421 -1.9747
 2866TIP3    H230090   1.522   5.155   0.339  4.4888  1.0798 -1.0080
 2867TIP3   OH230091   0.397   4.696   1.441 -0.3278  0.7104  0.0626
 2867TIP3    H130092   0.377   4.619   1.386  0.3112  1.4325 -1.2084
 2867TIP3    H230093   0.491   4.709   1.430 -0.0953  0.5451  1.7847
 2868TIP3   OH230094   4.899   5.883   1.344 -0.2081 -0.1702 -0.1317
 2868TIP3    H130095   4.887   5.942   1.419 -0.5740  0.2784 -0.5435
 2868TIP3    H230096   4.814   5.840   1.334 -1.0880  1.8735 -2.0706
 2869TIP3   OH230097   5.558   0.866  15.324  0.2607 -0.3152  0.0254
 2869TIP3    H130098   5.481   0.908  15.286 -0.1469 -1.5525 -0.5360
 2869TIP3    H230099   5.542   0.772  15.314  0.8487 -0.6326  1.8841
 2870TIP3   OH230100   5.121   2.065   2.864  1.0750  0.8061 -0.2798
 2870TIP3    H130101   5.052   2.002   2.883  1.2870 -0.0744 -2.2970
 2870TIP3    H230102   5.075   2.138   2.822  0.8615  1.9282  1.8402
 2871TIP3   OH230103   0.500   6.346   2.667  0.5842  0.2522  0.0142
 2871TIP3    H130104   0.515   6.280   2.599 -0.6913  0.5469 -0.5679
 2871TIP3    H230105   0.452   6.416   2.622 -1.3975 -0.1127  1.5139
 2872TIP3   OH230106   5.146   5.125   3.666  0.0539 -0.8915  0.3361
 2872TIP3    H130107   5.109   5.211   3.645  0.6263 -0.9006 -0.7094
 2872TIP3    H230108   5.218   5.143   3.726 -0.0946 -0.6834  0.4518
 2873TIP3   OH230109   1.433   1.809   3.240 -0.0265  0.6493  0.2744
 2873TIP3    H130110   1.363   1.830   3.301 -0.1694  2.3107 -0.4330
 2873TIP3    H230111   1.506   1.865   3.266 -0.7844  2.9563 -2.3608
 2874TIP3   OH230112   4.996   3.898   4.441 -0.1641  0.0803 -0.3447
 2874TIP3    H130113   5.014   3.959   4.369  0.0689  1.4728  0.8763
 2874TIP3    H230114   4.914   3.856   4.417  0.2138  0.0871 -1.7145
 2875TIP3   OH230115   1.218   2.248  10.727  0.4060  0.1076  0.2231
 2875TIP3    H130116   1.294   2.250  10.669  0.0194  0.2849 -0.2873
 2875TIP3    H230117   1.220   2.331  10.774  0.8921 -0.1667  0.6886
 2876TIP3   OH230118   0.163   3.214  16.779 -0.2278 -0.1804  0.3363
 2876TIP3    H130119   0.105   3.206  16.856 -0.6113 -1.2924 -0.0657
 2876TIP3    H230120   0.105   3.198  16.704  0.7502 -2.0477 -0.0315
 2877TIP3   OH230121   0.184   2.739   1.973  0.5506  0.2550  0.1160
 2877TIP3    H130122   0.256   2.694   2.016  0.2614 -0.2729  0.0520
 2877TIP3    H230123   0.173   2.820   2.023  0.7540  0.0311  0.5278
 2878TIP3   OH230124   5.286   0.711  17.194 -1.0970 -0.8047  1.3033
 2878TIP3    H130125   5.200   0.706  17.235 -2.0091  0.4816 -0.4109
 2878TIP3    H230126   5.284   0.646  17.124 -0.8058 -0.5166  1.0224
 2879TIP3   OH230127   2.866   1.556  12.183  0.0789  0.6145 -0.2718
 2879TIP3    H130128   2.783   1.569  12.228  0.9922  0.9969  1.3612
 2879TIP3    H230129   2.908   1.485  12.231  0.3137 -0.1773 -1.6392
 2880TIP3   OH230130   4.831   1.277   1.362 -0.1460  0.3004 -0.5658
 2880TIP3    H130131   4.831   1.182   1.351 -0.6194  0.4138 -1.5324
 2880TIP3    H230132   4.820   1.290   1.457  0.5984 -0.6095 -0.3493
 2881TIP3   OH230133   4.882   1.053   4.901  0.1316  0.5457 -0.3938
 2881TIP3    H130134   4.973   1.058   4.929  0.2005  0.0299 -0.5179
 2881TIP3    H230135   4.834   1.104   4.966  0.4287  0.2792  0.0405
 2882TIP3   OH230136   4.288   3.921   0.761 -0.4071 -0.6339 -0.2520
 2882TIP3    H130137   4.268   3.861   0.833  1.3240 -1.9213 -0.8057
 2882TIP3    H230138   4.212   3.915   0.703 -1.1891 -0.6471  0.7704
 2883TIP3   OH230139   4.954   4.197  16.033  0.0366  0.1261 -0.1318
 2883TIP3    H130140   4.931   4.202  15.940 -0.1400  0.6749 -0.0619
 2883TIP3    H230141   4.976   4.105  16.047  2.1461  0.4527 -1.2015
 2884TIP3   OH230142   0.359   0.875  12.488 -0.3437  0.3289 -0.6796
 2884TIP3    H130143   0.383   0.910  12.574 -1.5170 -1.6571  0.4780
 2884TIP3    H230144   0.318   0.949  12.443 -0.7226  1.0865  0.8792
 2885TIP3   OH230145   1.907   6.246  16.244 -0.4789 -0.1677  0.1541
 2885TIP3    H130146   1.935   6.321  16.191 -1.5002 -1.7878 -2.7505
 2885TIP3    H230147   1.817   6.230  16.217 -0.8871 -1.3280  2.0935
 2886TIP3   OH230148   2.973   3.570  13.124 -0.2958  0.3320 -0.4411
 2886TIP3    H130149   2.918   3.492  13.128 -0.7956  0.6390 -1.1219
 2886TIP3    H230150   2.987   3.585  13.030  1.8056 -0.3292 -0.2609
 2887TIP3   OH230151   3.024   2.130  11.942 -0.2857 -0.1417  0.2557
 2887TIP3    H130152   3.046   2.058  11.884  0.6463 -0.4272  0.9446
 2887TIP3    H230153   2.965   2.092  12.007 -1.0786  0.1034 -0.3115
 2888TIP3   OH230154   2.761   2.815  15.541  0.3911 -0.1557 -0.2401
 2888TIP3    H130155   2.767   2.905  15.510  0.8061  0.3334  1.2449
 2888TIP3    H230156   2.701   2.773  15.479 -0.5550  1.3672 -0.3970
 2889TIP3   OH230157   1.891   0.050   4.935 -0.4574  0.3931 -0.1261
 2889TIP3    H130158   1.960   0.025   4.873 -1.1483 -0.6092 -0.5044
 2889TIP3    H230159   1.929   0.123   4.985  0.9846 -0.3402 -0.1226
 2890TIP3   OH230160   5.560   3.947  11.268 -0.4809  0.2241 -0.2568
 2890TIP3    H130161   5.528   4.018  11.213 -2.5999 -0.3713  0.1494
 2890TIP3    H230162   5.494   3.940  11.337 -0.3959 -2.2677 -0.4098
 2891TIP3   OH230163   1.725   3.361  16.413 -0.2467  0.1998 -0.3824
 2891TIP3    H130164   1.771   3.379  16.331 -0.9311  1.2855 -0.5378
 2891TIP3    H230165   1.632   3.371  16.392 -0.4894 -0.5722  0.2770
 2892TIP3   OH230166   6.391   1.837  15.316 -0.5686  0.2078  0.1370
 2892TIP3    H130167   6.422   1.926  15.299 -1.2019  0.5438  0.7070
 2892TIP3    H230168   6.423   1.817  15.404 -0.5224 -0.0881  0.0542
 2893TIP3   OH230169   6.800   6.327  16.233  0.4969 -0.0683 -0.0663
 2893TIP3    H130170   6.766   6.262  16.295 -0.2756 -0.6046 -1.0256
 2893TIP3    H230171   6.893   6.307  16.226  0.6184  0.0851  1.0188
 2894TIP3   OH230172   6.022   1.311  14.786  0.3941 -0.3132  0.0281
 2894TIP3    H130173   6.056   1.363  14.859 -2.7046  1.3962  0.3450
 2894TIP3    H230174   6.021   1.221  14.819  1.8502 -0.0045  0.9831
 2895TIP3   OH230175   6.041   3.484   4.272  0.0109 -1.0102 -0.3051
 2895TIP3    H130176   6.088   3.555   4.316 -0.1054  0.0612 -1.9016
 2895TIP3    H230177   6.097   3.407   4.285  1.7787  0.0622 -1.3871
 2896TIP3   OH230178   4.057   3.630   6.192 -0.0072  0.1291 -0.0636
 2896TIP3    H130179   3.966   3.641   6.165  0.3823  0.4951 -1.2576
 2896TIP3    H230180   4.051   3.591   6.280 -1.3149  2.9416  1.1464
 2897TIP3   OH230181   6.814   0.865   5.461  0.3311  0.1432  0.4374
 2897TIP3    H130182   6.897   0.902   5.489  1.4183 -1.5844 -0.3923
 2897TIP3    H230183   6.794   0.910   5.379  0.0004  1.1674  1.0720
 2898TIP3   OH230184   3.946   3.593   5.668 -0.1681 -0.0322  0.1025
 2898TIP3    H130185   4.012   3.592   5.599  0.1911  1.3193  0.4173
 2898TIP3    H230186   3.968   3.669   5.722 -0.3524 -1.1493  1.7899
 2899TIP3   OH230187   3.860   1.775  14.816  0.3246 -0.4094  0.4727
 2899TIP3    H130188   3.917   1.825  14.758  0.1991 -0.5288  0.2488
 2899TIP3    H230189   3.905   1.778  14.901  0.2826  0.1432  0.4769
 2900TIP3   OH230190   2.405   4.135   0.008 -0.2764 -0.5569  0.2998
 2900TIP3    H130191   2.324   4.084   0.019 -0.0053 -0.7162  1.6246
 2900TIP3    H230192   2.400   4.168  -0.082 -2.2858  0.2481  0.6837
 2901TIP3   OH230193   0.646   0.007   1.014  0.1516 -0.3120  0.0832
 2901TIP3    H130194   0.617  -0.083   1.029  0.7819 -0.8123 -1.5655
 2901TIP3    H230195   0.702   0.027   1.089 -1.1466 -0.7691  1.1994
 2902TIP3   OH230196   2.021   5.316  10.519 -0.0638 -0.0877  0.0105
 2902TIP3    H130197   1.928   5.293  10.507 -0.8580  1.8458  2.1794
 2902TIP3    H230198   2.056   5.245  10.572  0.3672 -2.1104 -2.8358
 2903TIP3   OH230199   5.515   2.685   0.849  0.1974 -0.8100  0.0635
 2903TIP3    H130200   5.466   2.766   0.835 -0.4876 -1.1463  0.5178
 2903TIP3    H230201   5.560   2.698   0.932 -1.0264 -1.4413  0.8391
 2904TIP3   OH230202   2.451   3.136   1.847 -0.3310 -0.0432  0.1643
 2904TIP3    H130203   2.460   3.227   1.821 -0.4269 -0.4099 -1.1780
 2904TIP3    H230204   2.541   3.105   1.855 -0.2935  0.2905  1.0733
 2905TIP3   OH230205   4.730   2.081  11.919  0.2943  0.1721  0.3791
 2905TIP3    H130206   4.754   2.172  11.898 -1.0070  0.6082  0.7721
 2905TIP3    H230207   4.681   2.087  12.001 -0.4740 -0.8047 -0.0023
 2906TIP3   OH230208   5.137   6.338   5.578 -0.0830 -0.2103  0.5866
 2906TIP3    H130209   5.185   6.260   5.606  0.4799  0.9579  3.0829
 2906TIP3    H230210   5.056   6.304   5.541  2.2195 -2.1755 -2.8751
 2907TIP3   OH230211   0.466   0.264  11.382 -0.0072  0.0799 -0.2427
 2907TIP3    H130212   0.375   0.291  11.376  0.1152  0.4827 -0.3124
 2907TIP3    H230213   0.467   0.200  11.454 -0.4037 -0.1982 -0.4858
 2908TIP3   OH230214   4.448   5.248  15.147  0.2827  0.1487 -0.4010
 2908TIP3    H130215   4.463   5.182  15.079 -1.5894  0.1124 -0.8171
 2908TIP3    H230216   4.415   5.198  15.221 -0.3717  0.5201 -0.4432
 2909TIP3   OH230217   3.580   6.528   3.269 -0.0488 -0.2307 -0.7911
 2909TIP3    H130218   3.651   6.463   3.265  0.3449  0.1496 -0.0480
 2909TIP3    H230219   3.505   6.484   3.230  0.4416 -0.8455 -1.0485
 2910TIP3   OH230220   0.659   1.177  14.185 -0.2005 -0.2989 -0.3720
 2910TIP3    H130221   0.714   1.217  14.252 -1.0979 -0.4321  0.4461
 2910TIP3    H230222   0.578   1.228  14.186 -0.1780 -0.2293 -1.4282
 2911TIP3   OH230223   6.180   6.197   5.177  0.2042 -0.0076 -0.3931
 2911TIP3    H130224   6.155   6.147   5.255  1.1356 -0.1284 -0.1672
 2911TIP3    H230225   6.245   6.142   5.133  0.9067  0.7986 -0.3761
 2912TIP3   OH230226   5.110   4.665  11.704 -0.6552 -0.2358  0.3108
 2912TIP3    H130227   5.169   4.594  11.731 -0.6532 -0.0772  0.7216
 2912TIP3    H230228   5.065   4.630  11.627  0.6685 -0.0085 -0.5874
 2913TIP3   OH230229   1.500   3.756   1.932  0.0889 -0.3597 -0.0416
 2913TIP3    H130230   1.570   3.782   1.992 -1.7144  2.1261  1.0690
 2913TIP3    H230231   1.458   3.681   1.974  0.0216  0.2065  0.9041
 2914TIP3   OH230232   0.814   0.030   6.936  0.2156 -0.1972 -0.1974
 2914TIP3    H130233   0.830   0.124   6.943 -0.6352 -0.0474 -0.2399
 2914TIP3    H230234   0.769   0.007   7.018 -0.2109 -0.4351 -0.4972
 2915TIP3   OH230235   2.129   2.142  16.022  0.1973 -0.5342  0.0131
 2915TIP3    H130236   2.059   2.149  15.957 -0.2458 -1.3188  0.3908
 2915TIP3    H230237   2.151   2.232  16.045 -0.4907 -0.2810 -0.3318
 2916TIP3   OH230238   5.571   1.289  16.432 -0.1790  0.0452 -0.3259
 2916TIP3    H130239   5.543   1.377  16.407 -1.1236  0.0950  0.8674
 2916TIP3    H230240   5.522   1.231  16.374 -1.8257  0.1881  0.8875
 2917TIP3   OH230241   0.416   3.920   4.324 -0.2901  0.1215  0.4898
 2917TIP3    H130242   0.372   3.894   4.243  1.1611  1.0509 -0.6270
 2917TIP3    H230243   0.483   3.852   4.336  0.7541  1.0337 -0.1435
 2918TIP3   OH230244   0.351   4.949   5.252 -0.0585 -0.2534  0.2235
 2918TIP3    H130245   0.423   5.009   5.232 -1.2988  1.0653 -0.2922
 2918TIP3    H230246   0.282   4.972   5.190 -2.0299  0.4321  2.6230
 2919TIP3   OH230247   6.662   4.302  14.297  0.0046 -0.1573  0.2467
 2919TIP3    H130248   6.706   4.242  14.236  0.3413  0.6485 -0.3026
 2919TIP3    H230249   6.591   4.341  14.245  1.1510  1.5793 -0.0515
 2920TIP3   OH230250   1.571   4.741   0.965  0.0904 -0.5254 -0.2578
 2920TIP3    H130251   1.622   4.685   0.906  1.1221 -0.2623  0.3856
 2920TIP3    H230252   1.635   4.776   1.027 -0.7938  0.1827  0.2652
 2921TIP3   OH230253   1.339   4.914  16.348  0.2717 -0.1579  0.1924
 2921TIP3    H130254   1.338   4.971  16.271  0.7990 -0.9202 -0.4043
 2921TIP3    H230255   1.332   4.973  16.423 -2.4494  0.4440 -0.4944
 2922TIP3   OH230256   2.894   6.202  13.222  0.5766 -0.7100  0.4707
 2922TIP3    H130257   2.825   6.194  13.157 -0.3766 -0.0027  1.3709
 2922TIP3    H230258   2.969   6.155  13.185 -0.1326 -0.7825 -0.8649
 2923TIP3   OH230259   4.605   2.583  14.322  0.3103  0.3029  0.2879
 2923TIP3    H130260   4.588   2.506  14.268  2.2988 -0.6115  0.8992
 2923TIP3    H230261   4.579   2.556  14.410  2.7202 -0.3493  0.8342
 2924TIP3   OH230262   5.130   6.677   5.159  0.2520 -0.7725  0.2806
 2924TIP3    H130263   5.166   6.732   5.090  0.3355 -0.4694  0.5615
 2924TIP3    H230264   5.168   6.591   5.144 -0.4438 -0.9277 -0.5885
 2925TIP3   OH230265   2.648   4.376  12.427 -0.2330  0.2344  0.1545
 2925TIP3    H130266   2.696   4.459  12.427 -0.2899  0.2858 -1.9808
 2925TIP3    H230267   2.714   4.310  12.445  0.3771  0.4608 -1.2033
 2926TIP3   OH230268   1.194   6.797  13.417 -0.1282 -0.8008 -0.1376
 2926TIP3    H130269   1.259   6.744  13.463  0.3891 -0.7633 -0.8111
 2926TIP3    H230270   1.191   6.879  13.466  0.8460 -0.5385 -0.4927
 2927TIP3   OH230271   3.745   3.077   1.259 -0.2225  0.4080  0.0374
 2927TIP3    H130272   3.797   3.143   1.305  0.9932 -0.0799 -0.6310
 2927TIP3    H230273   3.654   3.100   1.280  0.3086 -0.4427  3.5563
 2928TIP3   OH230274   5.482   3.221   4.572  0.0977  0.1066  0.5291
 2928TIP3    H130275   5.408   3.243   4.516 -0.7249 -2.6100  0.5037
 2928TIP3    H230276   5.446   3.217   4.661  0.1378 -1.5157  0.4799
 2929TIP3   OH230277   3.290   6.589  10.864 -0.1246 -0.2427 -0.2687
 2929TIP3    H130278   3.249   6.651  10.804  0.5956  1.8212  1.3150
 2929TIP3    H230279   3.231   6.515  10.866 -1.6363  0.9134 -1.2661
 2930TIP3   OH230280   4.380   6.112  11.054 -0.1190 -0.0727 -0.0590
 2930TIP3    H130281   4.443   6.068  11.111 -0.4672 -0.4833  0.0107
 2930TIP3    H230282   4.428   6.128  10.973 -1.0563 -3.9572 -1.4997
 2931TIP3   OH230283   4.485   5.971   2.947 -0.4082 -0.0153  0.1628
 2931TIP3    H130284   4.467   5.880   2.968 -1.0821  0.3089  0.9982
 2931TIP3    H230285   4.580   5.975   2.936 -0.5065 -1.0938 -1.2294
 2932TIP3   OH230286   4.469   2.600   5.297  0.1459 -0.2039 -0.3449
 2932TIP3    H130287   4.539   2.665   5.288 -1.4282  1.1940 -3.7001
 2932TIP3    H230288   4.477   2.545   5.219 -1.2288 -1.2871  0.2421
 2933TIP3   OH230289   1.104   2.826   1.822 -0.0221  0.4572 -0.3482
 2933TIP3    H130290   1.147   2.870   1.895 -0.0705  1.8064 -1.1158
 2933TIP3    H230291   1.047   2.761   1.863  0.7860  0.4414  0.7665
 2934TIP3   OH230292   0.807   4.686  11.605  0.3698 -0.3108  0.1406
 2934TIP3    H130293   0.711   4.683  11.602  0.2873  0.6734  1.3366
 2934TIP3    H230294   0.835   4.670  11.515 -0.9178 -0.7011 -0.1962
 2935TIP3   OH230295   3.482   0.682  14.804 -0.1358  0.0178 -0.3507
 2935TIP3    H130296   3.526   0.721  14.880 -0.3201  1.0527 -0.7618
 2935TIP3    H230297   3.434   0.755  14.765 -2.1799 -1.0676  0.0581
 2936TIP3   OH230298   5.473   2.992  12.083 -0.4217 -0.0047  0.3657
 2936TIP3    H130299   5.428   3.027  12.005 -1.1791  0.6100  1.0688
 2936TIP3    H230300   5.428   3.033  12.157 -0.0872 -1.0353  1.1507
 2937TIP3   OH230301   3.158   5.962   0.489  0.2560  0.4890  0.2603
 2937TIP3    H130302   3.096   5.893   0.464 -1.6005  1.5542  1.8102
 2937TIP3    H230303   3.233   5.915   0.525  0.7659 -0.8644 -2.4247
 2938TIP3   OH230304   1.367   1.769   1.960 -0.0636  0.0538 -0.0708
 2938TIP3    H130305   1.446   1.818   1.939  0.6151 -0.8521  0.3012
 2938TIP3    H230306   1.336   1.808   2.042  0.2292  0.1594 -0.0059
 2939TIP3   OH230307   0.840   4.243   5.104 -0.3221 -0.1834 -0.2083
 2939TIP3    H130308   0.748   4.217   5.102 -0.2153 -0.7555  1.6139
 2939TIP3    H230309   0.885   4.171   5.148  1.3583 -0.8844 -2.9265
 2940TIP3   OH230310   4.287   5.795  14.857  0.7014  0.4993  0.1915
 2940TIP3    H130311   4.352   5.790  14.786  1.1027  0.5175  0.5551
 2940TIP3    H230312   4.323   5.859  14.918  0.7201 -0.0466  0.7687
 2941TIP3   OH230313   0.927   2.090   0.442 -0.3553  0.0431 -1.1651
 2941TIP3    H130314   0.846   2.065   0.399  0.8697  0.7477 -4.0916
 2941TIP3    H230315   0.940   2.182   0.415  0.1552  0.7241  1.2979
 2942TIP3   OH230316   2.883   0.821   4.504  0.3045 -0.1968 -0.1277
 2942TIP3    H130317   2.954   0.764   4.535 -0.7373 -1.8484 -0.6959
 2942TIP3    H230318   2.911   0.848   4.417  0.8933  0.3258  0.2185
 2943TIP3   OH230319   1.905   0.929  13.912 -0.0995 -0.1697  0.0169
 2943TIP3    H130320   1.906   0.967  14.000  0.1413 -0.6284  0.2176
 2943TIP3    H230321   1.984   0.874  13.909 -0.7491 -1.1222 -0.0493
 2944TIP3   OH230322   0.649   6.762  11.489  0.5163  0.3143 -0.0256
 2944TIP3    H130323   0.598   6.688  11.457 -0.9613  1.1935  0.2450
 2944TIP3    H230324   0.584   6.824  11.522  1.6634  2.1979 -1.2263
 2945TIP3   OH230325   3.573   0.607   1.147  0.0022 -0.1189  0.2341
 2945TIP3    H130326   3.587   0.613   1.053  2.6410 -0.6214  0.5569
 2945TIP3    H230327   3.610   0.522   1.171 -0.2698  0.1853  1.7844
 2946TIP3   OH230328   0.433   5.962   2.180 -0.2731 -0.8551 -0.0658
 2946TIP3    H130329   0.471   5.970   2.267  0.1856  1.5507 -0.4571
 2946TIP3    H230330   0.420   5.868   2.168  2.2697 -1.4307  1.4576
 2947TIP3   OH230331   5.896   1.883  15.796  0.0374  0.3204 -0.0595
 2947TIP3    H130332   5.845   1.910  15.719  0.7877 -0.0218 -0.6782
 2947TIP3    H230333   5.923   1.793  15.777 -0.3786 -0.0186  0.9240
 2948TIP3   OH230334   3.230   1.022   5.389 -0.6131 -0.1537  0.2593
 2948TIP3    H130335   3.243   0.981   5.475  2.1314  0.2666  0.0919
 2948TIP3    H230336   3.209   0.949   5.331  1.7308 -1.0804  0.4837
 2949TIP3   OH230337   5.493   0.896  11.179  0.7802 -0.7042 -0.0485
 2949TIP3    H130338   5.458   0.943  11.103 -0.1578  0.3503  1.0115
 2949TIP3    H230339   5.552   0.830  11.142 -0.2996 -0.7489 -1.7359
 2950TIP3   OH230340   0.467   2.899  15.254  0.0989  0.4283 -0.0875
 2950TIP3    H130341   0.379   2.872  15.227  0.8100 -1.0714 -0.9656
 2950TIP3    H230342   0.465   2.994  15.252 -1.5583  0.4060  0.0694
 2951TIP3   OH230343   4.820   2.720  14.919  0.5520 -0.2214  0.9691
 2951TIP3    H130344   4.905   2.761  14.938  0.3941 -0.2708  1.7787
 2951TIP3    H230345   4.843   2.632  14.888  0.7821 -0.3196  1.4217
 2952TIP3   OH230346   0.563   4.066  14.653  0.3858 -0.2672 -0.0703
 2952TIP3    H130347   0.556   4.152  14.693  0.1472  0.2287 -1.1663
 2952TIP3    H230348   0.509   4.009  14.707  0.2179  0.3552  0.4122
 2953TIP3   OH230349   4.996   4.303   3.643 -0.5823 -0.0844 -0.3782
 2953TIP3    H130350   5.023   4.251   3.718 -0.5146  0.1521 -0.2388
 2953TIP3    H230351   5.030   4.256   3.567  0.8199  0.5914 -0.1674
 2954TIP3   OH230352   2.878   2.338   4.302  0.2334  0.0834 -0.5160
 2954TIP3    H130353   2.942   2.276   4.267  0.7511 -0.9493  2.1747
 2954TIP3    H230354   2.880   2.325   4.397 -1.3654  2.5668 -0.0767
 2955TIP3   OH230355   4.940   4.340  12.761 -0.1628  0.1699  0.0322
 2955TIP3    H130356   4.966   4.388  12.839 -1.4840  0.7439  0.1390
 2955TIP3    H230357   4.973   4.393  12.688 -0.7854  0.7466  0.1669
 2956TIP3   OH230358   1.744   4.213  11.185 -0.0238  0.5598  0.0832
 2956TIP3    H130359   1.770   4.143  11.244  0.6952  2.4569  2.0904
 2956TIP3    H230360   1.655   4.190  11.158 -1.4166  0.9427  4.0043
 2957TIP3   OH230361   0.510   3.224  14.769  0.0169 -0.3036  0.8478
 2957TIP3    H130362   0.428   3.213  14.818 -0.9070 -2.2195 -1.0541
 2957TIP3    H230363   0.512   3.317  14.745 -2.5574 -0.6003 -0.6764
 2958TIP3   OH230364   0.130   2.230  15.202  0.4381 -0.0906  0.1705
 2958TIP3    H130365   0.142   2.237  15.297 -0.5803  1.0334  0.2357
 2958TIP3    H230366   0.148   2.138  15.182 -1.5019 -0.8670  1.7855
 2959TIP3   OH230367   2.482   5.754   0.801 -0.3891 -0.2628 -0.5306
 2959TIP3    H130368   2.515   5.832   0.844  3.4725 -2.0011 -0.1427
 2959TIP3    H230369   2.441   5.703   0.871 -1.9862  0.8753 -0.6047
 2960TIP3   OH230370   1.964   1.502  12.847 -0.0020  0.0543  0.5186
 2960TIP3    H130371   2.024   1.436  12.882 -1.2096 -1.2789  0.1457
 2960TIP3    H230372   1.979   1.499  12.752 -0.7177 -0.3668  0.4123
 2961TIP3   OH230373   6.061   4.239  13.566 -0.1947  0.2856  0.6460
 2961TIP3    H130374   5.994   4.186  13.610 -1.0451  1.3492  0.6416
 2961TIP3    H230375   6.016   4.319  13.540  0.8135  0.5559 -0.3293
 2962TIP3   OH230376   1.223   6.183   5.435  0.1894 -0.4492 -0.2014
 2962TIP3    H130377   1.239   6.108   5.377 -1.2183 -0.5425 -0.4949
 2962TIP3    H230378   1.288   6.248   5.409 -0.4027 -0.4940 -1.8840
 2963TIP3   OH230379   0.040   0.999   3.429 -0.7044 -0.0623 -0.2377
 2963TIP3    H130380   0.092   1.065   3.475  0.5249 -0.9266 -0.3792
 2963TIP3    H230381  -0.015   1.050   3.369 -1.1984  0.9619  1.0635
 2964TIP3   OH230382   1.668   5.408   2.249  0.1422  0.2660 -0.4577
 2964TIP3    H130383   1.682   5.423   2.156  2.3307 -0.3269 -0.2790
 2964TIP3    H230384   1.632   5.320   2.254  0.2100  0.2210 -0.7516
 2965TIP3   OH230385   1.499   6.734   4.382  0.2713  0.9141 -0.4796
 2965TIP3    H130386   1.511   6.687   4.465 -0.9985  2.0034  0.3259
 2965TIP3    H230387   1.506   6.666   4.315 -0.3820 -0.2460  0.6149
 2966TIP3   OH230388   1.930   5.302  16.020  0.1013 -0.6667 -0.0903
 2966TIP3    H130389   1.896   5.296  15.930  0.1520 -1.8374 -0.0390
 2966TIP3    H230390   2.002   5.363  16.014 -1.6947  1.4986 -0.2970
 2967TIP3   OH230391   1.780   1.422   4.474  0.3225 -0.1280  0.2999
 2967TIP3    H130392   1.690   1.401   4.448 -0.5659 -1.2099  4.0563
 2967TIP3    H230393   1.808   1.487   4.409 -3.0020 -0.0516 -1.1755
 2968TIP3   OH230394   0.195   4.325  13.962 -0.3713  0.1923  0.1649
 2968TIP3    H130395   0.267   4.272  13.996  1.6527  2.5254 -0.2724
 2968TIP3    H230396   0.209   4.327  13.868 -2.7272 -1.7082 -0.2456
 2969TIP3   OH230397   2.388   0.061  15.385  0.1045  0.0349  0.3013
 2969TIP3    H130398   2.427   0.001  15.448 -0.2219 -0.3392  0.1578
 2969TIP3    H230399   2.301   0.024  15.368  0.5256 -0.3900 -1.0497
 2970TIP3   OH230400   4.053   4.828   1.362 -0.0166  0.5281 -0.4830
 2970TIP3    H130401   3.993   4.773   1.312  2.1966 -2.5521  0.0696
 2970TIP3    H230402   4.026   4.816   1.453 -0.8662  2.1114 -0.5128
 2971TIP3   OH230403   1.847   0.642  11.492 -0.2177  0.4038  0.1479
 2971TIP3    H130404   1.932   0.601  11.503 -0.5561 -0.9069 -1.9493
 2971TIP3    H230405   1.788   0.590  11.547 -0.3457 -1.0124 -1.2894
 2972TIP3   OH230406   2.490   2.829   6.917 -0.1281 -0.5198 -0.3482
 2972TIP3    H130407   2.444   2.757   6.959 -0.7855  0.4465  0.6027
 2972TIP3    H230408   2.424   2.897   6.906  0.8067  0.4658  0.0375
 2973TIP3   OH230409   0.557   4.921   3.702  0.0392  0.3230  0.1490
 2973TIP3    H130410   0.517   4.978   3.637 -0.8815 -1.1420 -0.6121
 2973TIP3    H230411   0.484   4.898   3.761  0.0640 -1.1772 -0.3836
 2974TIP3   OH230412   3.835   6.655   5.243  0.0283 -0.1772 -0.1917
 2974TIP3    H130413   3.824   6.746   5.270 -1.4344 -0.3627 -0.1286
 2974TIP3    H230414   3.880   6.613   5.317  0.1323  0.3398  0.0390
 2975TIP3   OH230415   1.211   2.921   2.045 -0.3503  0.6323  0.1423
 2975TIP3    H130416   1.176   2.899   2.131 -0.0308 -1.6059 -0.2533
 2975TIP3    H230417   1.299   2.884   2.045 -0.0446  1.3431 -0.8572
 2976TIP3   OH230418   4.484   4.285  11.467  0.3129 -0.6129  0.5309
 2976TIP3    H130419   4.520   4.252  11.549  1.9490  0.1587  0.1465
 2976TIP3    H230420   4.561   4.305  11.414 -0.6713  1.5375 -0.1387
 2977TIP3   OH230421   3.660   6.812   3.815  0.2303  0.2995  0.1469
 2977TIP3    H130422   3.732   6.809   3.878 -0.5351  2.3608  1.1797
 2977TIP3    H230423   3.590   6.761   3.856  0.9213 -1.3203 -0.6520
 2978TIP3   OH230424   5.719   5.813  15.573  0.0543  0.2017  0.1190
 2978TIP3    H130425   5.723   5.893  15.520  0.0173  0.2350  0.1687
 2978TIP3    H230426   5.779   5.829  15.646 -1.0536  0.7475  0.9174
 2979TIP3   OH230427   1.708   2.412  16.452  0.3151  0.8529  0.1814
 2979TIP3    H130428   1.714   2.340  16.390  0.5335  1.6692 -0.7576
 2979TIP3    H230429   1.790   2.461  16.440 -0.0483  1.5335  0.4499
 2980TIP3   OH230430   3.608   4.686  10.652  0.1842  0.3577 -0.4188
 2980TIP3    H130431   3.625   4.685  10.558 -0.0772 -0.0844 -0.4653
 2980TIP3    H230432   3.516   4.661  10.660  0.2959  0.0671 -0.0261
 2981TIP3   OH230433   0.417   5.787   1.691  0.2331  0.3788 -0.6667
 2981TIP3    H130434   0.429   5.824   1.778 -2.5738 -1.0151  0.3609
 2981TIP3    H230435   0.498   5.808   1.645  0.9351  2.9496  1.6033
 2982TIP3   OH230436   1.273   4.275   0.827  0.0075  0.1767 -0.1056
 2982TIP3    H130437   1.259   4.201   0.768 -0.6049 -0.5639  0.9736
 2982TIP3    H230438   1.185   4.305   0.851  0.2433 -0.2363  1.3230
 2983TIP3   OH230439   4.762   3.965  14.657  0.0578  0.5371 -0.4097
 2983TIP3    H130440   4.828   4.034  14.653 -0.3414  0.9048 -0.7974
 2983TIP3    H230441   4.774   3.925  14.743 -1.1197  2.5140  0.7047
 2984TIP3   OH230442   4.561   2.358  15.639 -0.2300 -0.1033  0.4288
 2984TIP3    H130443   4.561   2.263  15.630  1.8291 -0.0229 -0.6444
 2984TIP3    H230444   4.504   2.389  15.568  1.0934 -0.4261 -0.7957
 2985TIP3   OH230445   2.444   2.880   4.320  0.3245  0.4638 -0.1918
 2985TIP3    H130446   2.429   2.924   4.403  1.7450 -0.5942  0.6456
 2985TIP3    H230447   2.408   2.792   4.333 -0.2291  0.5598 -1.0000
 2986TIP3   OH230448   5.246   2.432  13.685  0.0706  0.2071  0.4971
 2986TIP3    H130449   5.286   2.346  13.696 -0.2776 -0.0161  0.0153
 2986TIP3    H230450   5.219   2.435  13.593  1.2605  1.3318  0.1636
 2987TIP3   OH230451   3.489   5.604  15.876 -0.0784  0.6598  0.1275
 2987TIP3    H130452   3.492   5.574  15.785 -0.2175  2.4087 -0.4766
 2987TIP3    H230453   3.398   5.592  15.902 -0.1354  0.5624 -0.1134
 2988TIP3   OH230454   2.743   4.606   1.198  0.0343 -0.1334  0.4427
 2988TIP3    H130455   2.738   4.669   1.126 -1.8933 -0.8203 -0.0524
 2988TIP3    H230456   2.799   4.536   1.163 -0.7124 -0.3588 -0.3250
 2989TIP3   OH230457   1.604   6.650   5.695 -0.1942 -0.2388 -0.8904
 2989TIP3    H130458   1.621   6.718   5.761 -2.1131 -1.1646  0.6452
 2989TIP3    H230459   1.532   6.686   5.643 -1.2688 -1.0892 -0.0221
 2990TIP3   OH230460   5.835   3.837  15.319 -0.1887 -1.0723 -0.7279
 2990TIP3    H130461   5.893   3.763  15.337 -0.3891 -0.5158  2.6211
 2990TIP3    H230462   5.749   3.808  15.348 -0.2367  0.4722  0.8007
 2991TIP3   OH230463   5.638   5.111   1.550  0.0190  0.2455  0.4134
 2991TIP3    H130464   5.609   5.188   1.501 -0.8339 -0.8704 -0.8845
 2991TIP3    H230465   5.558   5.077   1.590 -0.2138 -1.8224 -1.7051
 2992TIP3   OH230466   2.229   5.268  13.566  0.2223 -0.3565 -0.0335
 2992TIP3    H130467   2.322   5.280  13.586  0.1187  1.1440 -0.4157
 2992TIP3    H230468   2.188   5.254  13.651  0.5084  1.0344  0.3550
 2993TIP3   OH230469   5.620   5.219  12.459 -0.3495 -0.1525 -0.4773
 2993TIP3    H130470   5.706   5.177  12.456 -0.4041 -0.1792 -3.0075
 2993TIP3    H230471   5.608   5.256  12.371 -2.3658  0.9698  0.2308
 2994TIP3   OH230472   5.985   4.998  13.373 -0.3975  0.2334  0.1786
 2994TIP3    H130473   5.917   5.047  13.420 -1.3806 -0.2822 -0.6995
 2994TIP3    H230474   6.019   5.060  13.309  0.2230  0.6074  0.8616
 2995TIP3   OH230475   3.764   1.729   0.766 -0.1466 -0.4183 -0.0332
 2995TIP3    H130476   3.709   1.699   0.693 -0.2512  0.4477 -0.3204
 2995TIP3    H230477   3.765   1.824   0.757 -0.4006 -0.2963  1.2848
 2996TIP3   OH230478   2.963   6.611   2.108 -0.1209  0.3349 -0.2863
 2996TIP3    H130479   2.898   6.548   2.078 -0.3190  0.5181 -0.2405
 2996TIP3    H230480   3.043   6.559   2.120 -0.3724  0.0301  0.0751
 2997TIP3   OH230481   3.730   0.072   5.612  0.1690  0.3807 -0.0585
 2997TIP3    H130482   3.789   0.139   5.578 -1.5270  0.2852 -3.3654
 2997TIP3    H230483   3.679   0.117   5.680  0.5668  1.8307 -0.7000
 2998TIP3   OH230484   5.033   1.751   2.532  0.5669  0.1491 -0.0047
 2998TIP3    H130485   5.052   1.844   2.543 -0.0393 -0.1297  4.1341
 2998TIP3    H230486   4.941   1.749   2.504  0.4784  0.7961  0.2203
 2999TIP3   OH230487   6.015   2.822   3.990  0.0686  0.1215  0.1605
 2999TIP3    H130488   6.033   2.810   4.083 -2.3834  2.8601  1.0646
 2999TIP3    H230489   6.026   2.916   3.975 -2.5606  0.2000 -1.5753
 3000TIP3   OH230490   0.427   4.419  15.488  0.2143 -0.2186  0.7700
 3000TIP3    H130491   0.376   4.397  15.411  1.7997  0.0758 -0.3876
 3000TIP3    H230492   0.518   4.405  15.462  0.8160  0.6501  2.3239
 3001TIP3   OH230493   3.884   3.312   1.788  0.1763  0.6863  0.3242
 3001TIP3    H130494   3.926   3.227   1.770  0.0881  0.8035 -0.4555
 3001TIP3    H230495   3.951   3.376   1.768 -0.3970  0.8800 -1.0269
 3002TIP3   OH230496   6.001   6.759  15.885  0.9899 -0.1968  0.5571
 3002TIP3    H130497   5.948   6.734  15.961 -0.8574  0.2268 -0.5602
 3002TIP3    H230498   6.052   6.834  15.916 -0.9728  1.0438  0.9307
 3003TIP3   OH230499   3.584   3.275  15.841  0.0892  0.4020  0.1135
 3003TIP3    H130500   3.537   3.358  15.849  0.4612  0.6509 -0.2428
 3003TIP3    H230501   3.592   3.261  15.747  1.2039  0.6416  0.1629
 3004TIP3   OH230502   4.572   0.887   2.258  0.0082  0.2193  0.1673
 3004TIP3    H130503   4.484   0.860   2.232  0.5715 -2.6462  1.0880
 3004TIP3    H230504   4.573   0.982   2.243 -2.1382 -0.1796 -2.9991
 3005TIP3   OH230505   3.522   3.380  12.128  0.1072  0.1050  0.7210
 3005TIP3    H130506   3.488   3.332  12.203  1.7424  1.9830  2.7530
 3005TIP3    H230507   3.482   3.467  12.137  1.0734  0.6238 -0.0427
 3006TIP3   OH230508   1.818   4.909   2.423 -0.1823  0.1820 -0.3954
 3006TIP3    H130509   1.877   4.889   2.495 -1.2795 -1.9840 -0.0713
 3006TIP3    H230510   1.867   4.885   2.344 -0.9577 -2.5187 -0.0793
 3007TIP3   OH230511   0.522   4.160   0.784 -0.1177  0.0592 -0.0480
 3007TIP3    H130512   0.450   4.132   0.841  0.3086  1.7239  1.3286
 3007TIP3    H230513   0.513   4.255   0.779  0.0860 -0.0078 -2.4641
 3008TIP3   OH230514   5.351   1.217   0.786 -0.4429  0.3581 -0.2736
 3008TIP3    H130515   5.276   1.162   0.806  0.9091 -0.6659  2.2032
 3008TIP3    H230516   5.331   1.254   0.700 -2.5050 -2.0346 -0.8923
 3009TIP3   OH230517   5.261   4.119   3.208  0.1254  0.2728  0.0315
 3009TIP3    H130518   5.181   4.139   3.159  0.3214  0.3648 -0.2501
 3009TIP3    H230519   5.275   4.025   3.194 -0.5347  0.0228  0.9739
 3010TIP3   OH230520   1.199   0.317   3.623 -0.0994 -0.0754 -0.4292
 3010TIP3    H130521   1.117   0.311   3.573  0.9920  0.8913 -2.3902
 3010TIP3    H230522   1.232   0.227   3.624 -1.3432 -0.5268  0.6498
 3011TIP3   OH230523   2.139   2.074  13.243 -0.1864  0.3654 -0.2263
 3011TIP3    H130524   2.148   2.046  13.152 -3.2740 -0.1468 -0.4277
 3011TIP3    H230525   2.058   2.032  13.273  0.3183  1.2459  2.4871
 3012TIP3   OH230526   6.772   1.643   3.329 -0.0264  0.4793  0.3067
 3012TIP3    H130527   6.848   1.614   3.380 -0.2327 -0.4445  0.0880
 3012TIP3    H230528   6.797   1.730   3.298  1.5028 -0.3367 -0.8816
 3013TIP3   OH230529   6.212   3.143  14.006 -0.0806 -0.4158 -0.6973
 3013TIP3    H130530   6.188   3.117  14.095 -0.4648  0.5792 -0.5050
 3013TIP3    H230531   6.305   3.163  14.011  0.1531 -1.4209 -0.7804
 3014TIP3   OH230532   3.106   6.419   3.956  0.2201 -0.7324  0.3088
 3014TIP3    H130533   3.054   6.489   3.917  0.7997 -1.3161 -1.5992
 3014TIP3    H230534   3.047   6.343   3.955  0.5233 -0.9589 -0.2136
 3015TIP3   OH230535   5.858   4.517  10.952  0.2115  0.4085  1.0142
 3015TIP3    H130536   5.853   4.428  10.918 -0.4341  0.9405 -0.3129
 3015TIP3    H230537   5.807   4.569  10.890 -1.0636  1.3975  2.8392
 3016TIP3   OH230538   6.216   4.053  11.583 -0.0768 -0.4466 -0.3371
 3016TIP3    H130539   6.173   4.068  11.499 -0.1053  2.3535  0.1340
 3016TIP3    H230540   6.170   4.111  11.644  0.6988 -1.5871  1.3787
 3017TIP3   OH230541   3.126   1.628  11.060 -0.3411 -0.2103  0.0830
 3017TIP3    H130542   3.074   1.554  11.029  0.5375  0.1765 -2.4505
 3017TIP3    H230543   3.216   1.605  11.037  0.0289  1.2964 -0.0154
 3018TIP3   OH230544   1.515   4.339   5.781 -0.3366  0.3660 -0.2278
 3018TIP3    H130545   1.568   4.294   5.847 -1.0211  0.1607  0.1849
 3018TIP3    H230546   1.576   4.399   5.739  0.1778  0.2829  0.3872
 3019TIP3   OH230547   5.259   0.764   3.178  0.3228 -0.3599 -1.3423
 3019TIP3    H130548   5.259   0.734   3.088 -2.3112 -1.1366 -1.1310
 3019TIP3    H230549   5.167   0.756   3.206  1.1190 -0.3003  1.4334
 3020TIP3   OH230550   2.083   6.561  16.298  0.2559 -0.2764  0.6475
 3020TIP3    H130551   2.137   6.640  16.306 -0.9696  0.8293 -1.3566
 3020TIP3    H230552   2.145   6.491  16.280  1.1883  0.7004 -0.0514
 3021TIP3   OH230553   5.141   2.645   2.321  0.1971  0.3091 -0.0537
 3021TIP3    H130554   5.185   2.561   2.310 -1.0909 -0.1823 -1.7821
 3021TIP3    H230555   5.189   2.705   2.263  0.5092  0.5421  0.4383
 3022TIP3   OH230556   3.665   3.802  12.500 -0.0284 -0.1063  1.1678
 3022TIP3    H130557   3.595   3.756  12.546  0.0944 -0.5172  0.9485
 3022TIP3    H230558   3.621   3.843  12.425  0.3337 -2.2558 -0.2682
 3023TIP3   OH230559   6.354   2.335   5.819  0.3530  0.0542 -0.4269
 3023TIP3    H130560   6.414   2.321   5.893 -1.3227 -0.9778  0.7659
 3023TIP3    H230561   6.347   2.250   5.777 -0.4176  0.1223 -0.4450
 3024TIP3   OH230562   3.431   1.080   2.168 -0.0414 -0.2238  0.1585
 3024TIP3    H130563   3.513   1.051   2.127 -0.7421 -0.4451 -1.1297
 3024TIP3    H230564   3.409   1.010   2.229  0.4476 -0.4206  0.1154
 3025TIP3   OH230565   2.597   2.435  12.007  0.2205 -0.1058 -0.2242
 3025TIP3    H130566   2.530   2.397  12.063  1.3351 -0.5137  0.8644
 3025TIP3    H230567   2.568   2.415  11.918 -1.5523  0.5152  0.1893
 3026TIP3   OH230568   4.899   5.091   2.168 -0.1131 -0.3403 -0.2841
 3026TIP3    H130569   4.860   5.167   2.124  0.4080 -0.1988 -0.5087
 3026TIP3    H230570   4.927   5.124   2.253 -2.5476 -0.9785  0.8361
 3027TIP3   OH230571   5.539   6.512   0.070 -0.5377  0.2829 -0.0017
 3027TIP3    H130572   5.588   6.540  -0.007 -0.6416  0.4610 -0.0051
 3027TIP3    H230573   5.450   6.499   0.038 -0.1698 -1.5816 -0.3395
 3028TIP3   OH230574   1.604   0.505   3.464  0.2802 -0.9808 -0.0633
 3028TIP3    H130575   1.682   0.533   3.513 -0.2010 -0.4817  0.4245
 3028TIP3    H230576   1.620   0.534   3.375 -0.1279  0.6882  0.3977
 3029TIP3   OH230577   2.109   0.683  14.505 -0.7223 -0.6353 -0.4254
 3029TIP3    H130578   2.195   0.715  14.533 -1.0804  0.2722 -0.3530
 3029TIP3    H230579   2.103   0.707  14.412  0.2347 -3.1528 -1.1935
 3030TIP3   OH230580   6.060   1.414  15.427  0.3453  0.5167 -0.2039
 3030TIP3    H130581   6.020   1.362  15.497  2.4814 -0.1918  0.5371
 3030TIP3    H230582   6.020   1.382  15.346  1.1695 -1.8697  0.3058
 3031TIP3   OH230583   5.153   2.174  10.997  0.1361 -0.4969  0.2256
 3031TIP3    H130584   5.096   2.168  10.920  0.4134 -1.6194  0.0996
 3031TIP3    H230585   5.094   2.198  11.069 -0.2270 -0.0884 -0.2002
 3032TIP3   OH230586   6.186   4.462  15.631 -0.1984 -0.3357  0.5810
 3032TIP3    H130587   6.114   4.466  15.568  0.4491 -0.0676 -0.1564
 3032TIP3    H230588   6.165   4.530  15.695 -0.0324  0.5183 -0.2558
 3033TIP3   OH230589   3.862   1.062  17.241  0.2665  0.5818  0.0393
 3033TIP3    H130590   3.859   0.976  17.283  0.9801  0.8427  0.6241
 3033TIP3    H230591   3.941   1.060  17.187  0.8224  1.2178  0.8184
 3034TIP3   OH230592   1.535   5.805   0.057  0.1856  0.3255  0.0881
 3034TIP3    H130593   1.616   5.754   0.062 -0.7713 -1.1715  0.6732
 3034TIP3    H230594   1.490   5.787   0.139 -1.4548 -0.1129 -0.8707
 3035TIP3   OH230595   2.568   4.696   4.469 -0.2844  0.2175  0.4436
 3035TIP3    H130596   2.528   4.727   4.550 -0.4359  2.1021 -0.3339
 3035TIP3    H230597   2.655   4.666   4.495 -0.6667 -0.0501  1.4467
 3036TIP3   OH230598   2.910   4.369   1.499  0.6514  0.2959  0.2141
 3036TIP3    H130599   2.987   4.346   1.551 -0.2888  0.5585  1.7683
 3036TIP3    H230600   2.945   4.418   1.425  2.1877 -1.6211 -0.3837
 3037TIP3   OH230601   4.291   3.415   6.644  0.9195  0.4122  0.0486
 3037TIP3    H130602   4.366   3.388   6.697  2.5339  1.9988 -1.3154
 3037TIP3    H230603   4.324   3.411   6.554 -1.0312 -0.0295 -0.6539
 3038TIP3   OH230604   4.873   6.657   0.200  0.3852 -0.2469 -0.2448
 3038TIP3    H130605   4.889   6.591   0.268  1.2337  1.1381  0.9191
 3038TIP3    H230606   4.958   6.672   0.160 -0.0276 -0.7113 -1.3235
 3039TIP3   OH230607   3.918   1.619   5.733 -0.1615  0.0931  0.1098
 3039TIP3    H130608   3.874   1.697   5.766 -1.2545 -0.7210  0.5958
 3039TIP3    H230609   3.990   1.653   5.679 -0.2379  1.4225  0.8299
 3040TIP3   OH230610   2.359   5.191   6.601 -0.1014  0.1473  0.4616
 3040TIP3    H130611   2.361   5.270   6.655 -0.4349  1.4582 -1.3872
 3040TIP3    H230612   2.280   5.201   6.547  0.0999 -1.2351 -0.1166
 3041TIP3   OH230613   1.911   6.302  11.999  0.6112  0.2361  0.3965
 3041TIP3    H130614   1.970   6.325  12.071  1.0678 -2.6282  0.9638
 3041TIP3    H230615   1.924   6.209  11.985 -2.7520 -0.1725 -0.4591
 3042TIP3   OH230616   1.049   5.339   2.386 -0.2385  0.5855 -0.1174
 3042TIP3    H130617   1.134   5.321   2.347  0.3682  2.5676  0.2586
 3042TIP3    H230618   1.010   5.406   2.329 -0.3631  1.7210  1.2740
 3043TIP3   OH230619   2.344   2.774   5.130 -0.4494 -0.3513  0.1330
 3043TIP3    H130620   2.280   2.805   5.066 -0.3502 -0.3186  0.0478
 3043TIP3    H230621   2.327   2.681   5.139  1.1320 -0.8748 -1.8103
 3044TIP3   OH230622   0.009   5.558  12.714 -0.1832  0.1274 -0.4205
 3044TIP3    H130623  -0.021   5.610  12.639  0.0914 -0.1092 -0.6985
 3044TIP3    H230624   0.047   5.622  12.774 -1.4985  0.4533  0.0602
 3045TIP3   OH230625   1.538   1.084   5.146 -0.3449 -0.1732 -0.0719
 3045TIP3    H130626   1.450   1.122   5.134 -0.7277 -0.8242  0.6574
 3045TIP3    H230627   1.523   1.003   5.194  0.5674 -0.7804 -0.7784
 3046TIP3   OH230628   0.865   0.380   4.946 -0.0467  0.1224 -0.5620
 3046TIP3    H130629   0.961   0.374   4.948 -0.0051  0.7242 -0.7660
 3046TIP3    H230630   0.841   0.403   5.036  0.1416  1.9857 -0.9680
 3047TIP3   OH230631   6.117   5.049  13.623  0.1441  0.6172 -0.1697
 3047TIP3    H130632   6.059   5.004  13.562  0.4639  1.2228 -0.9338
 3047TIP3    H230633   6.083   5.028  13.709 -0.1078 -0.5415 -0.5430
 3048TIP3   OH230634   4.350   2.521   1.946  0.6301  0.4004  0.0553
 3048TIP3    H130635   4.396   2.442   1.975  0.6366  0.2173 -0.4490
 3048TIP3    H230636   4.334   2.570   2.027  2.4233  0.8498  0.1668
 3049TIP3   OH230637   3.418   0.949  16.535 -0.1110  0.9778  0.0226
 3049TIP3    H130638   3.359   0.987  16.601 -0.3114  0.4791  0.1289
 3049TIP3    H230639   3.450   0.869  16.575 -1.0442  0.1329 -0.9079
 3050TIP3   OH230640   6.718   1.649   0.513  0.0621 -0.2316  0.3699
 3050TIP3    H130641   6.713   1.557   0.491 -1.7957 -0.0320 -0.0572
 3050TIP3    H230642   6.764   1.689   0.440 -0.1342 -0.6371  0.0250
 3051TIP3   OH230643   5.260   0.613   5.948 -0.5534 -0.0389  0.7168
 3051TIP3    H130644   5.257   0.517   5.941  1.0832 -0.1133  0.7085
 3051TIP3    H230645   5.341   0.630   5.997 -0.0580  1.4003 -0.5720
 3052TIP3   OH230646   0.602   1.080  14.910  0.3735 -0.0692  0.4367
 3052TIP3    H130647   0.529   1.046  14.961 -1.5206  1.9650 -0.8037
 3052TIP3    H230648   0.665   1.112  14.975 -0.7434 -0.0450  1.5152
 3053TIP3   OH230649   1.565   1.971  13.335 -0.4088 -0.6139 -0.2800
 3053TIP3    H130650   1.559   1.972  13.430  0.8351 -1.7222 -0.1764
 3053TIP3    H230651   1.645   2.020  13.315 -0.8134 -0.1481 -0.7722
 3054TIP3   OH230652   4.487   5.922  13.158  0.5434  0.1416  0.8105
 3054TIP3    H130653   4.484   5.978  13.236  0.3559  0.2264  0.7427
 3054TIP3    H230654   4.510   5.836  13.192  1.4154  0.3853  0.8443
 3055TIP3   OH230655   5.853   0.469  12.169 -0.0450  0.1576 -0.0645
 3055TIP3    H130656   5.879   0.435  12.255 -0.1351  0.7150  0.1816
 3055TIP3    H230657   5.768   0.510  12.184  0.5055  1.3516 -0.1496
 3056TIP3   OH230658   5.259   0.166   2.736  0.8746 -0.3121  0.2431
 3056TIP3    H130659   5.264   0.121   2.652  1.8676 -1.4182  0.8953
 3056TIP3    H230660   5.349   0.190   2.757  0.7600 -0.9522  1.4946
 3057TIP3   OH230661   6.100   4.239  14.205 -0.3765  0.4840 -0.0895
 3057TIP3    H130662   6.138   4.326  14.219 -1.3115  0.7050  1.1448
 3057TIP3    H230663   6.087   4.204  14.293  0.7114 -1.2334 -0.5899
 3058TIP3   OH230664   3.174   5.006  12.392  0.5274 -0.3034 -0.0381
 3058TIP3    H130665   3.170   5.005  12.487  1.5277 -1.7852  0.0051
 3058TIP3    H230666   3.135   4.923  12.365 -1.9018  1.1108 -1.0525
 3059TIP3   OH230667   2.149   5.457  16.027  0.5052 -0.0527  0.1489
 3059TIP3    H130668   2.099   5.533  16.057 -0.8789 -0.5682 -0.7742
 3059TIP3    H230669   2.226   5.494  15.983  0.4203  0.7827  0.6897
 3060TIP3   OH230670   1.671   2.169   4.190  0.4031 -0.3227 -0.1846
 3060TIP3    H130671   1.625   2.096   4.231 -1.1665  0.6369 -0.1850
 3060TIP3    H230672   1.659   2.242   4.250  1.1687  0.1803 -0.6283
 3061TIP3   OH230673   4.409   1.827  13.156  0.5758  0.3648 -0.3246
 3061TIP3    H130674   4.447   1.862  13.237  1.1749 -0.3741 -0.2865
 3061TIP3    H230675   4.465   1.863  13.086  1.3220 -0.6817 -0.2716
 3062TIP3   OH230676   2.657   3.531  13.481  0.0592 -0.2579 -0.0481
 3062TIP3    H130677   2.570   3.510  13.513  0.1489 -0.6693 -0.0697
 3062TIP3    H230678   2.686   3.605  13.535 -1.0620  1.1320 -1.3162
 3063TIP3   OH230679   0.604   1.961  12.562 -0.0722 -0.2579 -0.3517
 3063TIP3    H130680   0.574   1.875  12.534 -0.1908 -0.6577  0.9580
 3063TIP3    H230681   0.652   1.945  12.643  2.1918  0.5906 -1.4772
 3064TIP3   OH230682   2.231   4.745  13.893 -0.1283  0.1770 -0.0193
 3064TIP3    H130683   2.234   4.658  13.854  1.6457  0.2307 -0.0278
 3064TIP3    H230684   2.159   4.789  13.847 -0.6200 -1.0591 -0.4615
 3065TIP3   OH230685   2.336   1.291  14.370  0.0683 -0.2665  0.7706
 3065TIP3    H130686   2.412   1.345  14.393  1.3278 -1.4950 -0.4529
 3065TIP3    H230687   2.265   1.325  14.426  1.8010  0.1039  2.8084
 3066TIP3   OH230688   3.386   2.297  15.898 -0.7316 -0.0679  0.0482
 3066TIP3    H130689   3.329   2.249  15.958 -0.8081 -0.6225 -0.4604
 3066TIP3    H230690   3.459   2.327  15.952 -0.8378 -0.4959  0.4302
 3067TIP3   OH230691   6.758   3.731   1.946 -0.1097 -0.0237  0.2150
 3067TIP3    H130692   6.823   3.701   1.883 -1.7415  0.3335 -1.7252
 3067TIP3    H230693   6.808   3.759   2.022  1.8131 -2.1007 -0.2342
 3068TIP3   OH230694   1.895   1.775   3.369 -0.0520  0.4536  0.2546
 3068TIP3    H130695   1.960   1.814   3.427  1.0119 -0.1395 -0.5213
 3068TIP3    H230696   1.862   1.699   3.417  0.9560 -0.1396  0.0202
 3069TIP3   OH230697   5.781   5.927  17.206  0.4545 -0.1469  0.6190
 3069TIP3    H130698   5.780   5.866  17.280 -0.1072  0.1642  0.8746
 3069TIP3    H230699   5.783   6.013  17.247  2.3529 -0.0047  0.2562
 3070TIP3   OH230700   4.960   0.242  11.853  0.0079 -0.0051  0.4251
 3070TIP3    H130701   4.941   0.291  11.933  0.0264  0.3755  0.1932
 3070TIP3    H230702   5.003   0.304  11.795 -0.9253  0.0083 -0.2787
 3071TIP3   OH230703   6.192   4.928  15.986 -0.5343 -0.0517  0.1824
 3071TIP3    H130704   6.114   4.974  15.957 -0.4572  0.8455  1.3505
 3071TIP3    H230705   6.264   4.988  15.969  0.0897 -1.3313 -1.9827
 3072TIP3   OH230706   6.320   2.480   1.170  0.3342  0.3530 -0.0141
 3072TIP3    H130707   6.284   2.557   1.213 -0.0174  0.3718 -0.3404
 3072TIP3    H230708   6.394   2.454   1.224  0.0129  0.4940  0.4910
 3073TIP3   OH230709   3.722   4.239  16.490 -0.1767 -0.2334  0.4491
 3073TIP3    H130710   3.686   4.275  16.408  1.9580 -0.1672 -0.4926
 3073TIP3    H230711   3.735   4.146  16.471 -0.1173 -0.3114  0.8726
 3074TIP3   OH230712   1.174   6.764  11.292 -0.3903  0.1824  0.1363
 3074TIP3    H130713   1.090   6.722  11.278 -0.4827  0.5164 -0.3190
 3074TIP3    H230714   1.174   6.839  11.232 -0.6409  1.4067  1.6353
 3075TIP3   OH230715   6.339   2.469  15.732  0.4120 -0.0756  0.4673
 3075TIP3    H130716   6.293   2.472  15.648 -0.3776 -0.6978  0.8700
 3075TIP3    H230717   6.430   2.490  15.711  0.1053  0.3226 -0.4600
 3076TIP3   OH230718   6.385   6.046  11.391 -0.6922 -0.2662  0.1152
 3076TIP3    H130719   6.322   5.996  11.339 -0.5539  0.0660 -0.3719
 3076TIP3    H230720   6.450   6.076  11.328  0.3941 -1.2691  0.7345
 3077TIP3   OH230721   3.794   3.459  13.825 -0.1103 -0.2554 -0.1054
 3077TIP3    H130722   3.727   3.518  13.858  1.1121  1.7291 -1.1023
 3077TIP3    H230723   3.804   3.393  13.894 -1.6591  0.5567  0.9073
 3078TIP3   OH230724   4.431   0.935   0.024 -0.7810  0.1115 -0.2572
 3078TIP3    H130725   4.404   0.843   0.030  0.1182 -0.1126  0.4634
 3078TIP3    H230726   4.356   0.984   0.059 -0.8639 -0.4126  0.3241
 3079TIP3   OH230727   4.168   4.788   4.435 -0.6957 -0.4212  0.2863
 3079TIP3    H130728   4.183   4.847   4.361 -1.1419 -0.7111 -0.0380
 3079TIP3    H230729   4.083   4.749   4.417 -1.1855  0.1244  1.3803
 3080TIP3   OH230730   0.703   4.787  15.076 -0.3701 -0.0474 -0.5060
 3080TIP3    H130731   0.652   4.732  15.015 -0.3246 -0.9828  0.2868
 3080TIP3    H230732   0.793   4.759  15.062 -0.0983  1.4020 -1.6965
 3081TIP3   OH230733   3.634   1.929  13.235 -0.2622  0.2021 -0.6794
 3081TIP3    H130734   3.582   1.875  13.175 -1.1432 -0.8989  1.0525
 3081TIP3    H230735   3.724   1.920  13.203 -0.5219 -1.5555 -0.9886
 3082TIP3   OH230736   3.834   0.431  14.917  0.3864 -0.1458 -0.4244
 3082TIP3    H130737   3.754   0.482  14.925  1.0185  0.9750 -1.1699
 3082TIP3    H230738   3.841   0.385  15.001  0.2104  1.6017  0.5872
 3083TIP3   OH230739   4.974   2.027   1.289  0.0189  0.2632  0.2499
 3083TIP3    H130740   5.033   1.971   1.238  0.4769  0.9992 -0.0339
 3083TIP3    H230741   4.969   1.985   1.375  0.1282 -0.3727 -0.0523
 3084TIP3   OH230742   5.794   5.281   4.708 -0.9907 -0.4007 -0.3819
 3084TIP3    H130743   5.704   5.252   4.696 -1.2542  0.1102  0.3260
 3084TIP3    H230744   5.804   5.353   4.645 -1.1116 -0.3717 -0.3678
 3085TIP3   OH230745   4.943   5.356  12.476  0.4860  0.7708  0.6322
 3085TIP3    H130746   4.938   5.353  12.381 -2.0506 -1.7903  0.8148
 3085TIP3    H230747   5.033   5.328  12.496  0.2290 -1.2661 -0.9111
 3086TIP3   OH230748   1.735   0.083   1.309  0.1076 -0.2581  0.7319
 3086TIP3    H130749   1.665   0.146   1.324 -0.5896 -0.7270 -0.4381
 3086TIP3    H230750   1.783   0.118   1.234  0.1488 -0.7488  0.5272
 3087TIP3   OH230751   3.607   2.748   3.470 -0.4523 -0.3358 -0.0928
 3087TIP3    H130752   3.639   2.799   3.545 -2.2926  0.9259 -0.1382
 3087TIP3    H230753   3.686   2.707   3.435  0.8524  1.1893  0.9322
 3088TIP3   OH230754   2.756   3.219  15.951 -0.0373 -0.2863 -0.0203
 3088TIP3    H130755   2.679   3.267  15.921 -0.2754 -0.6679 -0.0192
 3088TIP3    H230756   2.732   3.127  15.943  0.1300 -0.3996  0.7314
 3089TIP3   OH230757   5.771   3.797   0.616  0.3390 -0.0871 -0.0736
 3089TIP3    H130758   5.793   3.710   0.583  0.3176 -0.3653  0.6451
 3089TIP3    H230759   5.830   3.811   0.689 -0.8359 -0.2255  0.9242
 3090TIP3   OH230760   1.997   5.161   2.425  0.4549  0.5449 -0.7542
 3090TIP3    H130761   1.904   5.141   2.425  0.2374  1.3580  1.5378
 3090TIP3    H230762   2.001   5.256   2.412  0.8765  0.7038  0.4431
 3091TIP3   OH230763   4.096   4.799   3.205  0.3895  0.9549 -0.5601
 3091TIP3    H130764   4.043   4.744   3.263 -0.2980  1.8555 -0.3194
 3091TIP3    H230765   4.180   4.807   3.250  0.5279  0.0321 -0.6421
 3092TIP3   OH230766   0.218   3.451  12.336 -0.1403 -0.2263  0.2308
 3092TIP3    H130767   0.288   3.397  12.300  0.3614 -0.8323  2.0402
 3092TIP3    H230768   0.142   3.434  12.280  0.9248 -0.2154 -1.2202
 3093TIP3   OH230769   0.177   1.224   4.037 -0.5110 -0.0825 -0.0873
 3093TIP3    H130770   0.247   1.163   4.015  0.1721  0.4525  0.5319
 3093TIP3    H230771   0.166   1.277   3.959 -0.9469 -0.8447 -0.5455
 3094TIP3   OH230772   2.319   5.921   1.129  0.7428 -0.5929  0.2840
 3094TIP3    H130773   2.414   5.914   1.140  1.0921  3.0878  0.2491
 3094TIP3    H230774   2.284   5.909   1.218  1.3434 -0.7513  0.5021
 3095TIP3   OH230775   3.599   5.879  13.351 -0.1230  0.1550  0.1627
 3095TIP3    H130776   3.523   5.931  13.378  0.1373  0.1500  0.9009
 3095TIP3    H230777   3.631   5.923  13.272 -1.1183 -0.0579 -0.3723
 3096TIP3   OH230778   5.470   3.622   0.479  0.4767 -0.3059 -0.0350
 3096TIP3    H130779   5.407   3.571   0.529  0.8370 -1.2071 -0.4729
 3096TIP3    H230780   5.526   3.663   0.545 -0.0450 -0.1885  0.3327
 3097TIP3   OH230781   1.823   6.276  14.570 -0.0056 -0.0809  0.4919
 3097TIP3    H130782   1.803   6.353  14.622 -0.8072 -0.3059  0.5144
 3097TIP3    H230783   1.805   6.202  14.628  2.1551 -0.2812  0.9780
 3098TIP3   OH230784   0.504   4.076   2.603  0.1869  0.5429  0.1595
 3098TIP3    H130785   0.523   4.131   2.679 -1.4024  2.4142 -0.7489
 3098TIP3    H230786   0.435   4.018   2.632 -1.1312  1.9392 -0.1194
 3099TIP3   OH230787   4.548   0.022  12.322  0.2680 -0.1425 -0.3913
 3099TIP3    H130788   4.469  -0.029  12.305  1.0627 -1.3558 -0.4972
 3099TIP3    H230789   4.581   0.045  12.236 -0.8434  1.7616 -0.3328
 3100TIP3   OH230790   3.713   2.404   3.533  0.1412 -0.4636 -0.8360
 3100TIP3    H130791   3.743   2.313   3.544  2.2071  0.3266  0.4267
 3100TIP3    H230792   3.687   2.431   3.621 -0.5886  0.1257 -1.2354
 3101TIP3   OH230793   1.878   3.983   0.094  0.1630 -0.2266 -0.4224
 3101TIP3    H130794   1.930   3.941   0.026  0.0728 -1.4068  0.2385
 3101TIP3    H230795   1.787   3.972   0.066  0.1729  0.1220 -0.5920
 3102TIP3   OH230796   5.750   3.797  10.472 -0.2581  0.2366 -0.2073
 3102TIP3    H130797   5.685   3.750  10.418  1.1918 -1.6764 -0.3347
 3102TIP3    H230798   5.808   3.838  10.408  0.9605 -1.3299 -0.1417
 3103TIP3   OH230799   2.799   4.910  15.353 -0.5159 -0.0288  0.3340
 3103TIP3    H130800   2.739   4.933  15.282  0.8456 -0.8814 -1.1207
 3103TIP3    H230801   2.842   4.992  15.376  0.6873 -0.1734 -1.3885
 3104TIP3   OH230802   2.853   2.385   2.127 -0.0817 -0.2234 -0.1909
 3104TIP3    H130803   2.772   2.357   2.169  0.4354 -1.7659 -0.2187
 3104TIP3    H230804   2.901   2.432   2.195 -0.9307  0.6068 -0.1462
 3105TIP3   OH230805   5.668   1.407   0.092  0.4054 -0.8493 -0.9722
 3105TIP3    H130806   5.597   1.386   0.032  0.1663  0.9204 -1.3074
 3105TIP3    H230807   5.674   1.502   0.091  1.0174 -0.8354  1.0895
 3106TIP3   OH230808   2.866   3.485  13.940 -0.1886 -0.5482 -0.4937
 3106TIP3    H130809   2.854   3.504  14.033  1.2354 -1.4597 -0.1140
 3106TIP3    H230810   2.778   3.490  13.903 -0.6391  0.7553  0.7243
 3107TIP3   OH230811   6.459   2.452   4.962 -0.0543  0.4489 -0.4768
 3107TIP3    H130812   6.512   2.530   4.975  0.6367 -0.4609  2.5828
 3107TIP3    H230813   6.374   2.474   5.001 -0.3928  0.2077 -1.0615
 3108TIP3   OH230814   6.708   4.438   4.858  0.0994  0.1569  0.1424
 3108TIP3    H130815   6.687   4.526   4.890  0.2412 -0.2570  1.4041
 3108TIP3    H230816   6.663   4.379   4.919 -0.0723 -0.6466 -0.7499
 3109TIP3   OH230817   6.155   2.281  13.839 -0.0615  0.0536 -0.3541
 3109TIP3    H130818   6.215   2.300  13.768  0.0470 -2.5321 -0.9966
 3109TIP3    H230819   6.070   2.312  13.808  0.1288 -0.3647 -1.3138
 3110TIP3   OH230820   4.898   1.774  16.928 -0.3936 -0.3714 -0.4181
 3110TIP3    H130821   4.857   1.781  16.842 -0.0534  1.6863 -0.4436
 3110TIP3    H230822   4.838   1.818  16.987 -0.2833 -1.1526  0.2876
 3111TIP3   OH230823   6.534   4.146   2.085  0.1015 -0.4264  0.0601
 3111TIP3    H130824   6.595   4.113   2.151 -1.6098 -2.9924  0.4048
 3111TIP3    H230825   6.551   4.092   2.008  0.4635  1.0059 -0.8791
 3112TIP3   OH230826   2.275   3.100   0.046  0.5195  0.1987 -0.2549
 3112TIP3    H130827   2.358   3.147   0.048 -0.3399  1.7731 -0.3471
 3112TIP3    H230828   2.208   3.169   0.047 -0.7718 -0.9516 -2.5613
 3113TIP3   OH230829   1.356   1.467  16.494 -0.4539  0.9507 -0.5123
 3113TIP3    H130830   1.372   1.526  16.421  1.4811  1.8793  0.6286
 3113TIP3    H230831   1.398   1.385  16.468 -1.3747  0.6878 -1.2126
 3114TIP3   OH230832   2.081   1.417   3.203  0.2962 -0.3605 -0.2431
 3114TIP3    H130833   2.089   1.467   3.122 -1.4858  0.9958  0.3992
 3114TIP3    H230834   2.003   1.451   3.245  0.5309 -1.8806  1.4930
 3115TIP3   OH230835   3.600   6.080   5.333  0.2140 -0.2115 -0.4097
 3115TIP3    H130836   3.544   6.045   5.402 -0.8357 -1.4796 -1.8762
 3115TIP3    H230837   3.564   6.167   5.314  0.0658 -0.1542  0.1292
 3116TIP3   OH230838   5.349   6.745  16.178  0.3721  0.0146  0.0678
 3116TIP3    H130839   5.368   6.836  16.156 -0.5337  0.2478  0.2177
 3116TIP3    H230840   5.284   6.718  16.113  1.6579 -0.9573 -0.8381
 3117TIP3   OH230841   6.545   3.526   3.077 -0.0281 -0.2963  0.4221
 3117TIP3    H130842   6.480   3.502   3.143 -0.1572 -0.3771  0.2662
 3117TIP3    H230843   6.495   3.530   2.995  0.3118 -1.1524  0.1648
 3118TIP3   OH230844   0.992   6.005  16.001 -0.2065 -0.0458  0.2622
 3118TIP3    H130845   0.990   5.910  16.013 -2.4134 -0.1050 -0.4009
 3118TIP3    H230846   1.070   6.020  15.946  0.5002 -1.3917  0.8749
 3119TIP3   OH230847   4.486   3.815  11.926  0.6339  0.5234 -0.2641
 3119TIP3    H130848   4.549   3.800  11.996  0.8441 -1.8548 -0.9292
 3119TIP3    H230849   4.401   3.790  11.963 -0.0326  4.0604  0.7483
 3120TIP3   OH230850   5.496   4.845   0.477 -0.2394  0.2741 -0.1372
 3120TIP3    H130851   5.582   4.885   0.483  0.8605 -1.7379 -1.8906
 3120TIP3    H230852   5.480   4.810   0.564  1.9390 -1.6842 -0.4704
 3121TIP3   OH230853   0.598   4.801   6.524  0.1512  0.1318 -0.1624
 3121TIP3    H130854   0.654   4.847   6.586 -1.6011  0.4506  1.2199
 3121TIP3    H230855   0.509   4.827   6.548 -0.7110 -1.8518 -1.0771
 3122TIP3   OH230856   4.748   0.701   3.085 -0.3397  0.3497 -0.1920
 3122TIP3    H130857   4.779   0.621   3.128 -2.9177 -1.1533 -1.0516
 3122TIP3    H230858   4.757   0.682   2.992  0.7846  1.8002 -0.3896
 3123TIP3   OH230859   0.766   2.048  17.023  0.5960 -0.0030  0.5482
 3123TIP3    H130860   0.714   2.038  16.944  0.8855  1.0458  0.2103
 3123TIP3    H230861   0.772   1.960  17.060 -1.9713 -0.0237  0.9593
 3124TIP3   OH230862   4.280   0.242  11.365  0.9175 -0.1729  0.0197
 3124TIP3    H130863   4.329   0.262  11.445 -0.0267 -2.0245  1.1065
 3124TIP3    H230864   4.296   0.149  11.349  0.8058  0.0913 -1.7565
 3125TIP3   OH230865   4.580   2.580  17.041 -0.4086  0.0811 -0.2336
 3125TIP3    H130866   4.540   2.569  16.955  0.2449  1.5510 -0.7420
 3125TIP3    H230867   4.660   2.527  17.037  0.3519  1.2663 -1.0415
 3126TIP3   OH230868   3.142   6.448  11.951 -0.5125 -0.2746 -0.3600
 3126TIP3    H130869   3.126   6.383  12.020 -1.0817  1.3962  1.0913
 3126TIP3    H230870   3.066   6.506  11.955  1.0665  1.8096 -0.1297
 3127TIP3   OH230871   6.820   3.674   2.329 -0.0834 -0.4911  0.6022
 3127TIP3    H130872   6.725   3.681   2.316  0.1501  0.7028 -0.6287
 3127TIP3    H230873   6.831   3.675   2.424 -1.4645 -3.3226  0.8480
 3128TIP3   OH230874   0.349   4.854   2.705  0.3149 -0.4569  0.0925
 3128TIP3    H130875   0.321   4.946   2.704  1.1639 -0.1982 -0.2903
 3128TIP3    H230876   0.273   4.807   2.740 -0.9000  0.1243 -1.6946
 3129TIP3   OH230877   4.757   5.506  14.198  0.4332 -0.3221  0.0387
 3129TIP3    H130878   4.732   5.551  14.117  0.2666 -1.7285 -0.7018
 3129TIP3    H230879   4.714   5.421  14.192  1.3144 -0.8475  1.1085
 3130TIP3   OH230880   3.700   6.182   3.559 -0.0314  1.1729 -0.3434
 3130TIP3    H130881   3.666   6.261   3.602  1.1155  2.1127 -1.1381
 3130TIP3    H230882   3.643   6.168   3.484 -1.2859  0.2372  0.7539
 3131TIP3   OH230883   1.219   2.056  16.868 -0.6650  0.0904 -0.2374
 3131TIP3    H130884   1.161   2.131  16.878 -0.0830  0.7778 -1.9019
 3131TIP3    H230885   1.245   2.035  16.958 -1.2488  1.5372  0.2953
 3132TIP3   OH230886   5.460   5.485   0.939  0.2532  0.4276 -0.2912
 3132TIP3    H130887   5.438   5.525   0.855 -3.5602  0.2187  0.5005
 3132TIP3    H230888   5.459   5.391   0.922  0.2056  0.4112 -0.2052
 3133TIP3   OH230889   4.332   2.416  11.524  0.0308  0.4206 -0.3386
 3133TIP3    H130890   4.341   2.379  11.436 -1.2341 -0.5911 -0.0538
 3133TIP3    H230891   4.255   2.373  11.561 -0.5150  2.1624  0.6174
 3134TIP3   OH230892   5.597   3.465   6.625  0.2242 -0.2443 -0.3572
 3134TIP3    H130893   5.604   3.377   6.588 -1.2175 -0.4369 -0.2156
 3134TIP3    H230894   5.655   3.465   6.701 -0.1015 -1.2063 -0.1086
 3135TIP3   OH230895   0.997   3.357   0.182 -0.7571 -0.2226 -0.5440
 3135TIP3    H130896   1.091   3.370   0.171 -0.6253 -2.1160 -1.8862
 3135TIP3    H230897   0.960   3.445   0.170  0.7360  0.3480 -1.1824
 3136TIP3   OH230898   5.828   1.888   3.578 -0.1844  0.2856  0.0718
 3136TIP3    H130899   5.826   1.967   3.524 -0.1336  0.2759  0.0555
 3136TIP3    H230900   5.794   1.819   3.521  0.9490  0.0429 -0.3348
 3137TIP3   OH230901   5.094   4.517   4.438  0.1615  0.2123  0.0409
 3137TIP3    H130902   5.121   4.562   4.518 -0.2003  1.9808 -0.8018
 3137TIP3    H230903   5.027   4.574   4.400 -1.2494 -1.6832 -0.4188
 3138TIP3   OH230904   0.679   4.208   1.152 -0.1992 -0.4033  0.1539
 3138TIP3    H130905   0.705   4.284   1.203  0.8448 -0.6201 -0.0352
 3138TIP3    H230906   0.606   4.170   1.200 -1.9334  1.7316 -0.7007
 3139TIP3   OH230907   0.901   6.003  16.912  0.1078 -0.1686 -0.2012
 3139TIP3    H130908   0.934   5.938  16.975 -0.1618  0.2177  0.3387
 3139TIP3    H230909   0.929   6.087  16.948  0.8434 -0.0138 -1.1435
 3140TIP3   OH230910   6.040   0.708  15.371 -0.7846 -0.4227  0.5503
 3140TIP3    H130911   6.075   0.624  15.343  1.8095  0.4498  1.0754
 3140TIP3    H230912   6.030   0.700  15.466 -1.8336 -0.5900  0.4321
 3141TIP3   OH230913   6.030   2.106  15.550 -0.4630 -0.3490 -0.4313
 3141TIP3    H130914   6.008   2.060  15.631 -2.3228  1.9984  0.4524
 3141TIP3    H230915   6.060   2.037  15.491  0.9459 -2.1030  2.2432
 3142TIP3   OH230916   2.372   4.884   0.352  0.2718 -0.5002  0.1382
 3142TIP3    H130917   2.424   4.962   0.375 -0.2157 -0.3871  0.8537
 3142TIP3    H230918   2.282   4.916   0.347 -0.0939 -1.2545  1.6284
 3143TIP3   OH230919   6.116   6.582   5.059  0.1610 -0.6865  0.5575
 3143TIP3    H130920   6.123   6.609   5.151  0.7222  0.5789  0.1372
 3143TIP3    H230921   6.067   6.652   5.017  2.9571  0.4617 -0.8611
 3144TIP3   OH230922   2.782   4.329  12.763  0.0036 -0.1847  0.1505
 3144TIP3    H130923   2.802   4.279  12.842 -0.1116 -0.6233 -0.0927
 3144TIP3    H230924   2.746   4.264  12.702 -0.0084  0.1688 -0.2228
 3145TIP3   OH230925   5.486   5.421   4.220 -0.1512  0.8242 -0.0798
 3145TIP3    H130926   5.520   5.484   4.158  1.1098 -0.0481 -0.3016
 3145TIP3    H230927   5.478   5.339   4.170  0.1783  0.2998  0.7124
 3146TIP3   OH230928   3.798   4.243  12.697 -0.0832 -0.1953  0.2273
 3146TIP3    H130929   3.837   4.156  12.709 -2.2058 -1.2941 -0.6687
 3146TIP3    H230930   3.713   4.238  12.739 -0.9882  0.8819 -1.4035
 3147TIP3   OH230931   0.630   5.810   1.523  0.0261  0.5066 -0.0821
 3147TIP3    H130932   0.561   5.841   1.465 -3.1509 -2.0176  2.1307
 3147TIP3    H230933   0.677   5.744   1.472 -0.8133  0.4466 -0.7770
 3148TIP3   OH230934   6.040   6.214  10.639 -0.8793 -0.0949 -0.3940
 3148TIP3    H130935   6.104   6.279  10.609 -1.0218  0.3353  0.2204
 3148TIP3    H230936   6.079   6.130  10.618 -0.0195  0.1606  0.1654
 3149TIP3   OH230937   2.625   5.995   1.903  0.0887  0.5217  0.4029
 3149TIP3    H130938   2.569   6.027   1.973 -1.5129 -0.4522 -0.4187
 3149TIP3    H230939   2.595   5.906   1.886  1.6434  0.1114 -0.3024
 3150TIP3   OH230940   4.505   4.935   4.424 -0.1128  0.4569 -0.4898
 3150TIP3    H130941   4.489   4.985   4.344 -0.2934  0.9284 -0.1618
 3150TIP3    H230942   4.418   4.912   4.455 -0.0359  0.0717 -0.5494
 3151TIP3   OH230943   6.137   3.105  16.354  0.0332 -0.2030 -0.2744
 3151TIP3    H130944   6.120   3.163  16.429  1.4410 -0.5002  0.2968
 3151TIP3    H230945   6.177   3.027  16.393  0.9387 -0.2863 -1.3666
 3152TIP3   OH230946   2.812   4.233   4.938 -0.2339 -0.3131  0.7681
 3152TIP3    H130947   2.859   4.312   4.911 -2.3197  1.2354  1.4446
 3152TIP3    H230948   2.866   4.194   5.006  1.1182  0.2091  0.0096
 3153TIP3   OH230949   1.320   4.665  15.878 -0.4566  0.0514 -0.0536
 3153TIP3    H130950   1.241   4.665  15.825 -0.5969  1.9269  0.1350
 3153TIP3    H230951   1.375   4.597  15.838 -1.8847 -0.8221 -0.5683
 3154TIP3   OH230952   5.838   3.732   6.736  0.3708 -0.0163  0.4743
 3154TIP3    H130953   5.856   3.806   6.794 -0.5846  0.0209  0.7252
 3154TIP3    H230954   5.872   3.760   6.651 -0.9393  1.1440  0.3197
 3155TIP3   OH230955   1.313   3.065   4.496 -0.3143 -0.0945  0.1290
 3155TIP3    H130956   1.342   2.980   4.528 -0.8828  0.5132  2.3400
 3155TIP3    H230957   1.265   3.046   4.416 -0.5738 -1.8808  0.7026
 3156TIP3   OH230958   3.250   5.568  16.027  0.9795 -0.6308  0.2296
 3156TIP3    H130959   3.174   5.625  16.038  1.3396 -0.1669  0.3099
 3156TIP3    H230960   3.234   5.495  16.087 -1.3486 -2.5919 -2.5873
 3157TIP3   OH230961   0.406   5.044   4.433 -0.1530 -0.4361 -0.3875
 3157TIP3    H130962   0.477   4.981   4.448  1.0495  1.0731  0.3883
 3157TIP3    H230963   0.337   5.017   4.494  0.1691 -1.2765 -0.3907
 3158TIP3   OH230964   5.155   0.692  14.008 -0.7167  0.2134  0.4474
 3158TIP3    H130965   5.250   0.683  14.020 -0.6760  0.6815  0.4894
 3158TIP3    H230966   5.118   0.617  14.053 -0.4193  0.5956  1.3448
 3159TIP3   OH230967   2.789   1.348  15.930  0.4563 -0.3126  0.3796
 3159TIP3    H130968   2.803   1.254  15.918 -0.4457 -0.3034 -0.7666
 3159TIP3    H230969   2.732   1.355  16.007  1.9568 -0.5990  1.5625
 3160TIP3   OH230970   5.625   4.461  13.106 -0.0041 -0.1006 -1.0316
 3160TIP3    H130971   5.600   4.438  13.016  0.5968 -0.5742 -1.0800
 3160TIP3    H230972   5.663   4.381  13.141 -0.1215  0.1255 -0.3937
 3161TIP3   OH230973   1.364   4.066  12.014 -0.4115  0.2228 -0.0232
 3161TIP3    H130974   1.311   4.050  12.092 -0.2781 -1.0118 -0.1881
 3161TIP3    H230975   1.300   4.081  11.944 -0.5372 -0.2785 -0.0150
 3162TIP3   OH230976   4.070   0.794   3.415  0.5656 -0.1579 -0.6614
 3162TIP3    H130977   4.039   0.735   3.346  1.6866 -0.4708 -0.9031
 3162TIP3    H230978   4.043   0.752   3.496 -2.8070  1.3413 -0.9181
 3163TIP3   OH230979   0.393   0.639   4.650 -0.5137 -0.0536 -0.0834
 3163TIP3    H130980   0.465   0.586   4.616 -0.3290  0.6286 -0.7359
 3163TIP3    H230981   0.374   0.702   4.581 -2.1200 -0.6001 -0.1575
 3164TIP3   OH230982   6.242   2.202  14.900  0.1279 -0.3226  0.0139
 3164TIP3    H130983   6.169   2.171  14.954 -0.2269  1.9173  0.8516
 3164TIP3    H230984   6.303   2.241  14.963  0.0238  1.7402 -1.1395
 3165TIP3   OH230985   1.236   3.285  14.735  0.5034 -0.3660  0.3652
 3165TIP3    H130986   1.250   3.269  14.828  0.7314 -0.1478  0.3682
 3165TIP3    H230987   1.203   3.202  14.701  0.6781 -0.5268  0.5885
 3166TIP3   OH230988   4.303   0.729   5.018  0.2927  0.1476  0.0660
 3166TIP3    H130989   4.310   0.646   5.065 -0.7679 -0.0106 -0.0338
 3166TIP3    H230990   4.285   0.703   4.927 -1.4941  0.4878  0.2992
 3167TIP3   OH230991   0.048   4.721  15.101  0.5998 -0.0766  0.3065
 3167TIP3    H130992   0.077   4.760  15.183 -1.5218 -0.7314  1.3799
 3167TIP3    H230993   0.068   4.628  15.110  1.2550 -0.0056 -0.3345
 3168TIP3   OH230994   1.010   1.189   5.156  0.7576 -0.1281 -0.0269
 3168TIP3    H130995   0.954   1.265   5.140 -0.2845 -0.5979  1.3613
 3168TIP3    H230996   0.953   1.124   5.196  1.7192 -1.5460 -0.9186
 3169TIP3   OH230997   2.188   1.562  14.253 -0.2084  0.3608 -0.4081
 3169TIP3    H130998   2.132   1.484  14.256  1.1817 -0.7025 -0.9998
 3169TIP3    H230999   2.128   1.635  14.241 -1.4589 -0.7548 -1.0819
 3170TIP3   OH231000   5.910   2.691   6.112  0.2367 -0.9521  0.3252
 3170TIP3    H131001   5.846   2.758   6.133 -0.4397 -1.4990  0.0158
 3170TIP3    H231002   5.993   2.739   6.103 -0.2912 -0.1266 -0.1681
 3171TIP3   OH231003   2.443   3.280  14.491 -0.2476  0.3964 -0.1199
 3171TIP3    H131004   2.349   3.288  14.473 -0.1952  0.6044 -0.3080
 3171TIP3    H231005   2.470   3.200  14.447 -0.2372  0.6000 -0.4863
 3172TIP3   OH231006   5.584   1.450   3.841  0.1250  0.6917  0.5771
 3172TIP3    H131007   5.514   1.491   3.790  0.2117 -0.0187 -0.1334
 3172TIP3    H231008   5.643   1.413   3.775  0.4382  0.0930  1.1884
 3173TIP3   OH231009   1.819   1.214   5.494 -0.1479  0.4549  0.2633
 3173TIP3    H131010   1.907   1.182   5.516  0.4176  0.3443 -2.0997
 3173TIP3    H231011   1.816   1.302   5.531  1.0129  0.5143  0.2241
 3174TIP3   OH231012   0.553   2.901  12.102 -0.1218  0.2221  0.0286
 3174TIP3    H131013   0.584   2.814  12.128 -2.1564 -0.7455 -0.6643
 3174TIP3    H231014   0.512   2.937  12.180 -2.1242 -0.7953 -0.5035
 3175TIP3   OH231015   1.377   6.135  12.425 -0.6524  0.1397  0.1503
 3175TIP3    H131016   1.365   6.107  12.334 -1.4702  1.6399 -0.2435
 3175TIP3    H231017   1.435   6.211  12.419 -0.4767  0.0652  0.8964
 3176TIP3   OH231018   4.844   5.513   4.309 -0.0214  0.2374  0.0957
 3176TIP3    H131019   4.824   5.441   4.369  0.2752 -2.5936 -3.0469
 3176TIP3    H231020   4.939   5.521   4.313  0.1100 -0.7256 -0.7845
 3177TIP3   OH231021   1.490   1.265   3.719 -0.3756  0.6154 -0.3475
 3177TIP3    H131022   1.568   1.275   3.665 -0.8495 -0.3998 -1.2363
 3177TIP3    H231023   1.426   1.221   3.662 -0.6648 -1.0421  1.2072
 3178TIP3   OH231024   1.682   2.278   0.663 -0.0941  0.1656 -0.0584
 3178TIP3    H131025   1.720   2.350   0.612  0.8260  0.5490  1.1431
 3178TIP3    H231026   1.606   2.250   0.612  2.0930 -1.0047 -2.8559
 3179TIP3   OH231027   1.866   4.085  15.841 -0.5032  0.0702 -0.3465
 3179TIP3    H131028   1.909   4.170  15.832 -0.5013  0.0683 -0.3567
 3179TIP3    H231029   1.829   4.067  15.755  0.7141 -0.5998 -0.7520
 3180TIP3   OH231030   6.239   2.816  16.400  0.3423 -0.0917  0.2295
 3180TIP3    H131031   6.193   2.738  16.366  0.6141 -0.4223  0.6201
 3180TIP3    H231032   6.193   2.836  16.482 -0.6953  1.0582 -0.6062
 3181TIP3   OH231033   4.906   1.425   3.324 -0.3849 -0.1550 -0.4343
 3181TIP3    H131034   4.937   1.398   3.237  2.4457  1.0792  0.1175
 3181TIP3    H231035   4.894   1.343   3.371  1.0794 -0.7354 -1.0398
 3182TIP3   OH231036   5.549   6.563  10.479 -0.3404  0.1961 -0.8534
 3182TIP3    H131037   5.599   6.631  10.524 -2.5827  0.6424  1.0566
 3182TIP3    H231038   5.509   6.608  10.405 -1.2031  0.8058 -0.0279
 3183TIP3   OH231039   5.800   2.812   1.431 -0.3054  0.4379  0.7784
 3183TIP3    H131040   5.706   2.811   1.415 -0.0687 -0.7162 -0.6658
 3183TIP3    H231041   5.826   2.720   1.428  1.2626  0.8984 -1.4097
 3184TIP3   OH231042   5.868   5.992  14.470 -0.0868  0.0440  0.2913
 3184TIP3    H131043   5.781   6.028  14.489 -0.8500 -2.4847  1.9473
 3184TIP3    H231044   5.930   6.056  14.503 -1.3768  0.4437  1.9781
 3185TIP3   OH231045   6.290   5.317  12.677  0.3606  0.1120 -0.1855
 3185TIP3    H131046   6.292   5.245  12.740 -0.5992 -0.8268 -1.2034
 3185TIP3    H231047   6.309   5.395  12.729  1.0127 -0.8264  1.0047
 3186TIP3   OH231048   6.077   5.998  12.580 -0.3222  0.3985 -0.3424
 3186TIP3    H131049   6.107   5.946  12.654 -1.9800 -0.6688 -0.4011
 3186TIP3    H231050   6.148   5.991  12.515 -0.2948 -1.3607 -0.1447
 3187TIP3   OH231051   3.271   2.834   3.645  0.2037 -0.0130  0.7051
 3187TIP3    H131052   3.294   2.803   3.732  1.1471 -0.3627  0.3446
 3187TIP3    H231053   3.283   2.757   3.589  0.3520  0.4102  0.1523
 3188TIP3   OH231054   4.414   2.607  14.977 -0.0705 -0.0465  0.1646
 3188TIP3    H131055   4.480   2.664  14.939 -0.4815 -0.4517 -1.1638
 3188TIP3    H231056   4.464   2.536  15.017  0.4211  1.0046  1.4866
 3189TIP3   OH231057   6.595   4.014  13.146  0.5783 -0.0324 -0.4816
 3189TIP3    H131058   6.566   4.053  13.063  4.6213  0.5053 -1.7420
 3189TIP3    H231059   6.553   3.929  13.149  0.3797 -0.0534 -3.1258
 3190TIP3   OH231060   1.279   3.165   0.228  0.2140 -0.1427  0.7935
 3190TIP3    H131061   1.332   3.173   0.149  1.7543 -1.6515  1.6285
 3190TIP3    H231062   1.297   3.246   0.277  0.6249  0.0019  0.4084
 3191TIP3   OH231063   2.484   4.906  11.687  0.1475  0.4224 -0.2906
 3191TIP3    H131064   2.504   4.920  11.780 -0.0190 -1.4956  0.0436
 3191TIP3    H231065   2.446   4.990  11.659  0.4301  1.1134  1.3046
 3192TIP3   OH231066   0.949   5.609   4.790  0.3179  0.5659 -0.4629
 3192TIP3    H131067   0.875   5.635   4.736  0.4391  0.1655 -0.8265
 3192TIP3    H231068   1.013   5.572   4.728  0.0462 -0.8227  0.0496
 3193TIP3   OH231069   5.343   1.439   2.635  0.0129  0.1329 -0.3182
 3193TIP3    H131070   5.349   1.534   2.628  1.1046  0.0827 -0.2209
 3193TIP3    H231071   5.419   1.414   2.688 -0.4612 -0.7562 -0.0420
 3194TIP3   OH231072   4.001   2.142  17.084  0.3916  0.1606  0.1165
 3194TIP3    H131073   3.968   2.199  17.155 -1.9881  1.9845 -2.3326
 3194TIP3    H231074   4.078   2.188  17.051 -0.4392  1.0368 -0.6316
 3195TIP3   OH231075   5.013   3.570   1.511  0.4545 -0.3848 -0.3003
 3195TIP3    H131076   5.090   3.534   1.553  0.7754  0.7923  0.1391
 3195TIP3    H231077   5.009   3.661   1.541 -0.4046 -0.0841 -1.2806
 3196TIP3   OH231078   0.296   0.694  12.311 -0.2284  0.6421  0.1502
 3196TIP3    H131079   0.371   0.638  12.332 -1.0836 -0.3977  0.5182
 3196TIP3    H231080   0.294   0.758  12.382 -0.2395  0.0990  0.6434
 3197TIP3   OH231081   3.097   6.034   1.437  0.3848  0.1294 -0.6700
 3197TIP3    H131082   3.065   5.979   1.509  1.2225  1.3489  0.6589
 3197TIP3    H231083   3.092   5.977   1.360  0.3956 -1.5334  0.5182
 3198TIP3   OH231084   4.779   1.296  17.072 -0.4915 -0.6208  0.4785
 3198TIP3    H131085   4.698   1.336  17.104 -0.7260 -0.2469 -0.5634
 3198TIP3    H231086   4.818   1.363  17.016 -0.1260 -1.2890 -0.0667
 3199TIP3   OH231087   5.422   2.699  14.807  0.2052  0.1634 -0.0106
 3199TIP3    H131088   5.510   2.681  14.839 -0.0023 -0.2355  0.3257
 3199TIP3    H231089   5.434   2.773  14.747  0.6017  0.8616  0.9199
 3200TIP3   OH231090   1.835   3.978  11.269 -0.1588 -0.2171 -0.6451
 3200TIP3    H131091   1.761   3.923  11.297 -0.5119  0.7198  0.3144
 3200TIP3    H231092   1.908   3.917  11.259 -0.4121 -0.8091  0.9023
 3201TIP3   OH231093   4.919   3.741   2.263 -0.0007 -0.3608  0.4257
 3201TIP3    H131094   4.888   3.654   2.239  0.0952 -0.2341 -0.1633
 3201TIP3    H231095   5.000   3.753   2.213 -1.0540  0.8497 -1.0615
 3202TIP3   OH231096   0.861   5.300  15.701 -0.6865 -0.2687  0.3270
 3202TIP3    H131097   0.812   5.381  15.689 -1.5305 -0.8793 -0.4862
 3202TIP3    H231098   0.816   5.237  15.645  0.2881 -1.1607  0.5314
 3203TIP3   OH231099   2.835   5.336  14.257  0.6514  0.3119  0.8470
 3203TIP3    H131100   2.854   5.329  14.163  1.0655 -2.3552  1.1029
 3203TIP3    H231101   2.750   5.379  14.261  1.1424  1.4738 -0.7005
 3204TIP3   OH231102   1.471   1.336   1.094  0.2755 -0.0225 -0.0182
 3204TIP3    H131103   1.434   1.276   1.029  0.2181  0.3164 -0.3001
 3204TIP3    H231104   1.403   1.345   1.160  0.0291  0.2473 -0.3087
 3205TIP3   OH231105   1.858   3.284  12.026 -0.4170  0.3690 -0.0980
 3205TIP3    H131106   1.808   3.362  12.002  1.3210  1.4301 -0.4019
 3205TIP3    H231107   1.897   3.306  12.111  0.1573 -0.1230 -0.2292
 3206TIP3   OH231108   2.115   0.876   5.941  0.5908 -0.1160 -0.2478
 3206TIP3    H131109   2.135   0.854   6.032  1.1743  2.2070  0.2227
 3206TIP3    H231110   2.030   0.921   5.945  0.2265 -0.7288 -0.9528
 3207TIP3   OH231111   1.803   4.759   5.637  0.2948 -0.4204 -0.1254
 3207TIP3    H131112   1.817   4.674   5.679  0.6506  0.5446  1.7180
 3207TIP3    H231113   1.712   4.755   5.607  0.0577 -1.1530  0.6518
 3208TIP3   OH231114   0.005   4.927   1.634  1.1214  0.1355 -0.6133
 3208TIP3    H131115  -0.004   5.021   1.651  1.5643  0.1091 -0.2306
 3208TIP3    H231116   0.053   4.893   1.710 -0.8813 -0.7612  0.3108
 3209TIP3   OH231117   0.064   6.390   5.085 -0.2667  0.5962  0.2856
 3209TIP3    H131118   0.118   6.311   5.079  2.1186  2.2622 -0.6847
 3209TIP3    H231119  -0.018   6.359   5.124  0.0346 -2.6424 -1.4233
 3210TIP3   OH231120   4.126   6.775  12.769  0.6985 -0.1538 -0.0266
 3210TIP3    H131121   4.118   6.817  12.684  1.1887  0.0923  0.0434
 3210TIP3    H231122   4.062   6.703  12.767  0.2816  0.2221 -0.3709
 3211TIP3   OH231123   5.847   0.009   1.720 -0.0795 -0.7555 -0.0857
 3211TIP3    H131124   5.920   0.007   1.782 -0.2730  1.0819  0.2176
 3211TIP3    H231125   5.869  -0.059   1.655  2.6511  0.7970 -0.8689
 3212TIP3   OH231126   2.496   5.632  16.479 -0.0029 -0.1964 -0.7625
 3212TIP3    H131127   2.521   5.540  16.475  0.3765 -0.1894  1.1709
 3212TIP3    H231128   2.436   5.643  16.405  1.2235 -1.5850 -1.9999
 3213TIP3   OH231129   2.652   3.408   3.694 -0.1782  0.1146  0.3386
 3213TIP3    H131130   2.707   3.340   3.654  0.0121 -0.0403  0.8617
 3213TIP3    H231131   2.644   3.475   3.626  0.0583 -0.1945  0.0018
 3214TIP3   OH231132   4.121   2.173  16.508  0.4887  0.1137 -0.1352
 3214TIP3    H131133   4.064   2.159  16.432 -1.8668  0.9238  1.4134
 3214TIP3    H231134   4.122   2.268  16.520  0.6086 -0.0217  1.0166
 3215TIP3   OH231135   6.197   0.485  11.669 -0.3386  0.0033  0.2857
 3215TIP3    H131136   6.262   0.524  11.610 -1.3660  1.2155 -0.0387
 3215TIP3    H231137   6.131   0.449  11.610 -1.4133  1.2933  0.6932
 3216TIP3   OH231138   5.367   3.926  12.508  0.1515 -0.1634  0.1646
 3216TIP3    H131139   5.295   3.898  12.564  0.3158  0.1656  0.5412
 3216TIP3    H231140   5.385   3.850  12.453  0.5667 -0.7832  1.1489
 3217TIP3   OH231141   5.756   2.875  14.042  0.4512 -0.1820 -0.4674
 3217TIP3    H131142   5.748   2.954  14.096 -0.5576 -1.1384  0.8323
 3217TIP3    H231143   5.846   2.877  14.009  0.3299  1.6855 -0.7429
 3218TIP3   OH231144   5.143   2.007   0.668  0.5706 -0.2795  0.0119
 3218TIP3    H131145   5.053   1.975   0.668  0.7375 -0.7815 -0.8887
 3218TIP3    H231146   5.138   2.091   0.622  0.6678 -0.6637 -0.7197
 3219TIP3   OH231147   5.500   4.796   5.583  0.2065  0.2710  0.1122
 3219TIP3    H131148   5.573   4.794   5.521 -1.5225  0.1388 -1.9439
 3219TIP3    H231149   5.521   4.726   5.646  1.8868  0.2924 -0.3881
 3220TIP3   OH231150   4.530   0.914  12.405 -0.1671 -0.2819 -0.0445
 3220TIP3    H131151   4.624   0.919  12.424  0.0369 -2.4930 -0.3693
 3220TIP3    H231152   4.516   0.978  12.335  1.1382 -0.1059 -0.1488
 3221TIP3   OH231153   2.378   5.562   1.615 -0.0446  0.1594 -0.3608
 3221TIP3    H131154   2.415   5.576   1.702 -2.8658  1.4799  0.6991
 3221TIP3    H231155   2.301   5.508   1.630 -1.9307  2.3733 -1.6843
 3222TIP3   OH231156   4.577   5.854  12.737  0.6735 -0.3087  0.4241
 3222TIP3    H131157   4.528   5.935  12.720 -0.6899 -1.5401 -1.7535
 3222TIP3    H231158   4.538   5.819  12.816 -1.7300 -1.0422 -1.0338
 3223TIP3   OH231159   2.231   0.048   0.331  0.5187  0.1036 -0.0891
 3223TIP3    H131160   2.195  -0.024   0.279  0.8184  0.2867 -0.5592
 3223TIP3    H231161   2.229   0.124   0.272  2.3238 -0.0450 -0.3840
 3224TIP3   OH231162   0.620   3.717   4.379  0.1066 -0.4072  0.2934
 3224TIP3    H131163   0.628   3.622   4.370 -0.2130 -0.2931 -1.3200
 3224TIP3    H231164   0.674   3.739   4.455 -0.3406 -1.9552  1.0680
 3225TIP3   OH231165   3.550   4.843  12.590 -0.4258 -0.3292 -0.1007
 3225TIP3    H131166   3.478   4.879  12.538 -0.3248  0.0084 -0.0074
 3225TIP3    H231167   3.604   4.919  12.614  0.7226 -0.7370 -1.3376
 3226TIP3   OH231168   1.314   4.260  11.523 -0.0105 -0.4037 -0.7947
 3226TIP3    H131169   1.315   4.300  11.610 -2.7750 -0.0081 -0.9119
 3226TIP3    H231170   1.314   4.334  11.463  4.5095 -0.6523 -1.2801
 3227TIP3   OH231171   1.527   2.289   1.284  0.6721  0.2107  0.8468
 3227TIP3    H131172   1.464   2.356   1.255 -0.6368 -0.1899  2.6872
 3227TIP3    H231173   1.585   2.335   1.344  1.7804  0.4325 -0.3766
 3228TIP3   OH231174   0.797   0.981  16.465  0.2700 -0.0945 -0.0987
 3228TIP3    H131175   0.721   0.953  16.516  1.2992 -1.9738  0.4684
 3228TIP3    H231176   0.801   0.920  16.391 -0.5987  1.9610 -1.8988
 3229TIP3   OH231177   6.398   6.326   5.330 -0.2701 -0.1238 -0.5350
 3229TIP3    H131178   6.350   6.326   5.248  2.5934 -2.0535 -2.3028
 3229TIP3    H231179   6.386   6.237   5.365  0.5418 -0.0794 -0.1226
 3230TIP3   OH231180   5.795   0.955  14.199 -0.8892  0.5483  0.7462
 3230TIP3    H131181   5.714   0.957  14.250 -1.1151 -1.0665  0.4865
 3230TIP3    H231182   5.822   0.863  14.202  0.2705  0.8503 -0.2223
 3231TIP3   OH231183   4.309   4.190  11.923  0.4792 -0.1277 -0.5698
 3231TIP3    H131184   4.392   4.142  11.915  0.4528 -0.3428  0.4665
 3231TIP3    H231185   4.335   4.279  11.947  0.4200 -0.1566 -0.3960
 3232TIP3   OH231186   4.642   5.437   2.111 -0.3614  0.1710  0.5311
 3232TIP3    H131187   4.728   5.398   2.091 -1.0549 -1.1487  0.0646
 3232TIP3    H231188   4.623   5.406   2.200 -0.9593 -0.6677  0.1210
 3233TIP3   OH231189   4.959   0.093  15.910 -0.2665  0.1683 -0.2341
 3233TIP3    H131190   5.031   0.038  15.939  1.6218  1.8032 -1.6627
 3233TIP3    H231191   4.916   0.041  15.841  0.7541 -0.0423 -0.7300
 3234TIP3   OH231192   5.417   5.714  16.822  0.5069 -0.3785  0.0086
 3234TIP3    H131193   5.412   5.700  16.727 -1.4931 -0.8066  0.1489
 3234TIP3    H231194   5.395   5.628  16.859 -1.2943  0.4228  0.8545
 3235TIP3   OH231195   1.649   1.259  14.381  0.6129  0.5097  0.5509
 3235TIP3    H131196   1.658   1.346  14.419 -0.1864  1.7544 -2.0057
 3235TIP3    H231197   1.556   1.239  14.387 -0.1372  2.1621 -3.5986
 3236TIP3   OH231198   5.422   1.387  13.408  0.1833  0.7484  0.4131
 3236TIP3    H131199   5.494   1.328  13.387 -1.5022 -0.7643 -1.4305
 3236TIP3    H231200   5.353   1.329  13.441 -0.8362  1.8960  0.3284
 3237TIP3   OH231201   5.232   5.292   1.890 -0.2566  0.1523  0.5692
 3237TIP3    H131202   5.198   5.224   1.831  0.7498 -0.7592  1.0026
 3237TIP3    H231203   5.169   5.364   1.884 -0.1564  0.0718 -1.6125
 3238TIP3   OH231204   5.060   4.090  17.043 -0.0532 -0.0276  0.5157
 3238TIP3    H131205   5.124   4.156  17.069 -0.1189 -0.0535  0.7379
 3238TIP3    H231206   4.989   4.098  17.106 -1.0584  1.1629 -0.7362
 3239TIP3   OH231207   4.511   1.177   4.378 -0.1629 -0.7254 -0.3238
 3239TIP3    H131208   4.460   1.163   4.298 -1.1004  1.0120 -0.0458
 3239TIP3    H231209   4.448   1.210   4.441  1.1317  0.6614  0.2732
 3240TIP3   OH231210   3.457   5.279   0.953  0.1640 -0.1968 -0.5811
 3240TIP3    H131211   3.513   5.318   0.885  0.2902 -0.8662 -0.8679
 3240TIP3    H231212   3.474   5.185   0.946  0.5133 -0.2325  0.6830
 3241TIP3   OH231213   5.238   3.426  12.959 -0.6050 -0.1860 -0.6651
 3241TIP3    H131214   5.275   3.341  12.980 -0.4647  0.3401  1.3180
 3241TIP3    H231215   5.144   3.416  12.974 -0.7469 -0.3384 -1.6366
 3242TIP3   OH231216   5.392   1.909   4.440  0.6626  0.1379  0.3278
 3242TIP3    H131217   5.309   1.936   4.401  0.5747  2.0523  1.8258
 3242TIP3    H231218   5.424   1.986   4.486  1.7008 -1.5220  2.4675
 3243TIP3   OH231219   1.926   5.105  13.473  0.2674 -0.4126 -0.5443
 3243TIP3    H131220   2.009   5.121  13.428  1.3087  1.6851  1.9966
 3243TIP3    H231221   1.862   5.159  13.426  0.6218 -0.9038 -1.6035
 3244TIP3   OH231222   0.106   0.880   0.377 -0.4008  0.0005 -0.4727
 3244TIP3    H131223   0.119   0.888   0.472  0.4536  0.6171 -0.6376
 3244TIP3    H231224   0.178   0.824   0.348 -1.2987 -1.1120 -0.6092
 3245TIP3   OH231225   2.126   3.112  11.586 -0.1717  0.4121 -1.1003
 3245TIP3    H131226   2.126   3.207  11.595 -1.9536  0.2847  0.5876
 3245TIP3    H231227   2.037   3.086  11.607  0.3897 -1.6746 -1.1812
 3246TIP3   OH231228   4.803   2.677  13.496 -0.0941 -0.2493 -0.0060
 3246TIP3    H131229   4.814   2.718  13.410  0.7371 -2.0412 -0.8008
 3246TIP3    H231230   4.814   2.748  13.559  0.3928  0.8919 -1.3561
 3247TIP3   OH231231   0.383   3.556   5.282  0.2484 -0.5468 -0.3537
 3247TIP3    H131232   0.388   3.643   5.321 -0.1860 -0.6546 -0.0612
 3247TIP3    H231233   0.436   3.501   5.339 -0.3964 -0.7066  0.0928
 3248TIP3   OH231234   3.515   5.244  16.662  0.0315 -0.1408  0.1063
 3248TIP3    H131235   3.461   5.252  16.583 -0.7451  0.4534  0.6898
 3248TIP3    H231236   3.467   5.292  16.729  0.6959 -0.6297  0.9446
 3249TIP3   OH231237   1.869   0.537  10.998 -0.3331 -0.4378 -0.1180
 3249TIP3    H131238   1.908   0.615  11.038 -2.6756 -0.4569  2.3494
 3249TIP3    H231239   1.777   0.560  10.984 -0.6358 -2.1311 -1.1024
 3250TIP3   OH231240   1.609   1.717  12.580  0.6341  0.1239  0.4730
 3250TIP3    H131241   1.561   1.677  12.508 -1.1911  1.2373  1.0328
 3250TIP3    H231242   1.621   1.647  12.643  1.7362 -0.7132 -0.6390
 3251TIP3   OH231243   5.826   5.275  15.979  0.1156  0.0655 -0.0879
 3251TIP3    H131244   5.754   5.214  15.964  1.1655 -1.5129  1.1686
 3251TIP3    H231245   5.798   5.329  16.053 -0.0273 -0.1249 -0.0051
 3252TIP3   OH231246   2.427   4.431  15.773 -0.2604  0.0215  0.4271
 3252TIP3    H131247   2.482   4.487  15.718  1.2604 -1.2880  0.5946
 3252TIP3    H231248   2.392   4.365  15.714 -2.0386  1.0813  0.2354
 3253TIP3   OH231249   1.685   3.146  12.585  0.1723  0.3380  0.4865
 3253TIP3    H131250   1.611   3.115  12.533  1.6904  1.1532 -2.2753
 3253TIP3    H231251   1.745   3.071  12.587 -0.2767  0.0113  1.8578
 3254TIP3   OH231252   5.362   4.369   3.526  0.1179 -0.3617  0.2965
 3254TIP3    H131253   5.317   4.285   3.520 -2.0702  0.7295  0.9440
 3254TIP3    H231254   5.357   4.405   3.437 -0.8643  0.0476  0.5178
 3255TIP3   OH231255   2.384   5.903  16.511  0.4831  0.4483  0.1577
 3255TIP3    H131256   2.388   5.810  16.488  2.6516  1.3526 -3.6729
 3255TIP3    H231257   2.465   5.919  16.559  0.1287  0.3795  0.7807
 3256TIP3   OH231258   2.855   5.708  15.206  0.2595 -0.4748 -0.4461
 3256TIP3    H131259   2.876   5.786  15.258  0.8673 -1.0257  0.1405
 3256TIP3    H231260   2.877   5.732  15.116  0.0646  0.1691 -0.3243
 3257TIP3   OH231261   6.788   1.701  14.290 -0.1728  0.2752 -0.3528
 3257TIP3    H131262   6.737   1.772  14.250 -0.5307 -0.8269 -1.8432
 3257TIP3    H231263   6.877   1.713  14.256 -0.4503 -0.5865 -1.4065
 3258TIP3   OH231264   5.663   6.565  15.043 -0.6499  0.1496  0.4563
 3258TIP3    H131265   5.648   6.501  14.974 -0.6093 -1.4008  1.8335
 3258TIP3    H231266   5.580   6.611  15.053 -0.9868 -0.3892  0.1413
 3259TIP3   OH231267   1.518   2.056  14.126 -0.3429 -0.0065  0.1891
 3259TIP3    H131268   1.464   2.132  14.148 -1.0798 -0.4037 -0.2667
 3259TIP3    H231269   1.460   1.981  14.134 -0.2005 -0.3137 -1.5437
 3260TIP3   OH231270   5.978   6.338  15.144  0.1317  0.3881  0.1999
 3260TIP3    H131271   6.039   6.402  15.107 -0.6876  0.9329 -0.2461
 3260TIP3    H231272   6.027   6.256  15.148  1.6689  1.3525  2.1003
 3261TIP3   OH231273   4.341   4.843  15.529  0.0465  0.1392  0.1132
 3261TIP3    H131274   4.329   4.881  15.616 -2.3208  1.1833 -0.6105
 3261TIP3    H231275   4.310   4.753  15.537 -0.1533  0.2293  0.3646
 3262TIP3   OH231276   4.199   5.157  16.938 -0.6731  0.6281 -0.3587
 3262TIP3    H131277   4.178   5.188  17.026 -1.3654  0.7079 -0.5492
 3262TIP3    H231278   4.128   5.096  16.917 -0.2479  0.2373 -0.6681
 3263TIP3   OH231279   3.280   1.351   1.539  0.0073  0.3294 -0.8817
 3263TIP3    H131280   3.371   1.321   1.549  0.4088  1.2418 -1.7606
 3263TIP3    H231281   3.256   1.326   1.450 -0.4922  0.4112 -0.7739
 3264TIP3   OH231282   1.911   3.155  15.537 -0.2578  0.0064 -0.0655
 3264TIP3    H131283   1.933   3.215  15.465  0.2329  2.4421  2.0286
 3264TIP3    H231284   1.849   3.093  15.498 -2.2811  3.0196 -1.9093
 3265TIP3   OH231285   2.742   1.128   4.832 -0.9670 -0.3800  0.4485
 3265TIP3    H131286   2.797   1.132   4.910 -0.2685 -1.3555  0.0216
 3265TIP3    H231287   2.665   1.180   4.854 -0.9513 -0.9559  1.9239
 3266TIP3   OH231288   5.987   3.715  10.874 -0.1157  0.1351 -0.1532
 3266TIP3    H131289   5.923   3.678  10.813 -0.9664  0.7811  0.3375
 3266TIP3    H231290   6.068   3.666  10.857 -0.0067  1.0945 -2.6115
 3267TIP3   OH231291   5.998   1.587   3.307 -0.2153  0.3192  0.0542
 3267TIP3    H131292   6.030   1.502   3.339  1.9967  1.8480  2.1525
 3267TIP3    H231293   6.071   1.623   3.258 -1.2279  0.9258 -1.0259
 3268TIP3   OH231294   6.757   4.918   4.246  0.5576  0.7243  0.1182
 3268TIP3    H131295   6.770   4.889   4.337  1.0866  1.8344  0.4044
 3268TIP3    H231296   6.833   4.973   4.228  0.4840  0.4560 -1.0296
 3269TIP3   OH231297   3.471   2.258   5.907 -0.2237 -0.0532 -0.0676
 3269TIP3    H131298   3.531   2.192   5.941  0.4221  0.2320 -0.6289
 3269TIP3    H231299   3.384   2.229   5.935 -0.2057 -2.4228 -2.2799
 3270TIP3   OH231300   3.601   5.148  10.679  0.3631  0.6179 -0.2200
 3270TIP3    H131301   3.647   5.133  10.597 -0.3032  1.8904 -0.8325
 3270TIP3    H231302   3.615   5.241  10.698 -2.0749  1.0755 -0.5115
 3271TIP3   OH231303   3.293   2.869   5.220  0.2975  0.1829  0.4394
 3271TIP3    H131304   3.228   2.937   5.240  0.4194  0.1349  1.0216
 3271TIP3    H231305   3.266   2.795   5.274 -0.7198 -0.7574 -1.3121
 3272TIP3   OH231306   1.489   4.820   4.022 -0.3606 -0.1332  0.1202
 3272TIP3    H131307   1.565   4.762   4.032  0.2696  0.9714  2.0211
 3272TIP3    H231308   1.457   4.833   4.111 -1.6666  0.9115 -0.4834
 3273TIP3   OH231309   2.016   3.308  13.372  0.4168  0.0841 -0.1606
 3273TIP3    H131310   2.091   3.271  13.324  0.3449 -0.2550 -0.0157
 3273TIP3    H231311   1.951   3.325  13.304  1.0668  1.5077 -0.4432
 3274TIP3   OH231312   2.669   3.282   2.560  0.3049 -0.0326 -0.2079
 3274TIP3    H131313   2.715   3.207   2.598 -0.4884  0.1922  1.2188
 3274TIP3    H231314   2.702   3.287   2.470  1.6242 -1.0533  0.2009
 3275TIP3   OH231315   0.940   1.083  13.956 -0.2515 -0.3365 -0.8243
 3275TIP3    H131316   1.011   1.040  13.909  1.0898  2.7651 -1.7404
 3275TIP3    H231317   0.966   1.079  14.048  0.1839 -0.9059 -0.9756
 3276TIP3   OH231318   6.546   6.624   3.579  0.4046  0.1863 -0.0462
 3276TIP3    H131319   6.480   6.580   3.524 -0.4264  2.1372 -0.6288
 3276TIP3    H231320   6.539   6.579   3.664 -0.9620 -0.3110 -0.3971
 3277TIP3   OH231321   1.917   3.526  12.971 -0.1251 -0.4437 -0.0725
 3277TIP3    H131322   1.924   3.437  13.004 -0.1625 -0.6092 -0.5139
 3277TIP3    H231323   1.848   3.523  12.904  2.4789 -0.9190 -2.8443
 3278TIP3   OH231324   6.026   1.814  13.738  0.6615  0.3528  0.4914
 3278TIP3    H131325   6.005   1.741  13.679  0.2995  1.2824 -0.5579
 3278TIP3    H231326   5.969   1.801  13.814  1.1531 -0.8823  0.6572
 3279TIP3   OH231327   4.296   2.777   1.850  0.3016  0.1179  0.0934
 3279TIP3    H131328   4.202   2.779   1.869  0.3634 -0.6885  0.4889
 3279TIP3    H231329   4.318   2.684   1.849  1.2497  0.3378  0.7258
 3280TIP3   OH231330   5.319   6.357   2.626  0.7278 -0.3529  0.5282
 3280TIP3    H131331   5.228   6.348   2.655  0.7895 -0.3000  0.7433
 3280TIP3    H231332   5.340   6.449   2.643  0.8162 -0.3610  0.4626
 3281TIP3   OH231333   0.290   2.855  10.841  0.3695 -0.1247 -0.3273
 3281TIP3    H131334   0.269   2.790  10.774  1.6260 -0.7522 -0.1256
 3281TIP3    H231335   0.381   2.837  10.865  0.1528  0.5312  1.0613
 3282TIP3   OH231336   4.322   1.972  16.290  0.3396 -0.3757 -0.1174
 3282TIP3    H131337   4.331   1.887  16.247  1.5156 -0.8893  1.0925
 3282TIP3    H231338   4.272   1.953  16.370 -1.0192  0.3949 -0.7826
 3283TIP3   OH231339   5.675   0.913   4.004  0.0605  0.5528  0.2211
 3283TIP3    H131340   5.591   0.877   4.032 -0.0754  1.7451  1.3983
 3283TIP3    H231341   5.740   0.848   4.032 -0.3659  0.1698  0.3241
 3284TIP3   OH231342   3.824   6.666   2.243 -0.5358  0.0189 -0.9064
 3284TIP3    H131343   3.769   6.699   2.171 -0.5784  0.6360 -0.5996
 3284TIP3    H231344   3.874   6.743   2.271 -1.1262 -0.0206  0.2830
 3285TIP3   OH231345   4.856   0.365  14.165  0.3701 -0.2974  0.4060
 3285TIP3    H131346   4.847   0.458  14.142 -0.3774 -0.4568  0.0262
 3285TIP3    H231347   4.949   0.346  14.151  0.1917 -0.0471 -1.2186
 3286TIP3   OH231348   3.683   6.511   4.371  0.2015 -0.2406 -0.2362
 3286TIP3    H131349   3.641   6.593   4.344 -0.6410 -0.6909 -0.3045
 3286TIP3    H231350   3.718   6.530   4.458 -0.0884  0.1637 -0.2052
 3287TIP3   OH231351   4.411   6.079  11.665 -0.0382 -0.0293  0.2454
 3287TIP3    H131352   4.478   6.147  11.667  0.5303 -0.5563 -0.4852
 3287TIP3    H231353   4.347   6.106  11.731  0.8327  0.5395  0.8684
 3288TIP3   OH231354   6.769   4.518   2.861 -0.6063 -0.0358 -0.5484
 3288TIP3    H131355   6.863   4.503   2.864 -0.7178 -1.7198 -3.8010
 3288TIP3    H231356   6.730   4.432   2.877 -1.6815  1.0192  2.8956
 3289TIP3   OH231357   1.621   3.304   2.732 -0.3226  0.0303  0.3136
 3289TIP3    H131358   1.630   3.347   2.647  0.0183  0.1867  0.4270
 3289TIP3    H231359   1.526   3.297   2.746 -0.3988 -1.3586 -0.7631
 3290TIP3   OH231360   3.466   3.370  13.382 -0.0384  0.3709 -0.2566
 3290TIP3    H131361   3.499   3.328  13.462 -0.4951  0.5831  0.0447
 3290TIP3    H231362   3.464   3.464  13.403  0.3210  0.4781 -0.6916
 3291TIP3   OH231363   3.450   6.165  17.158  0.1076  0.2087 -0.2703
 3291TIP3    H131364   3.506   6.092  17.183 -1.2169 -0.5624  0.5638
 3291TIP3    H231365   3.506   6.223  17.106  1.6482 -0.5357  0.5269
 3292TIP3   OH231366   1.432   5.465  14.718  0.3036 -0.2047 -0.0745
 3292TIP3    H131367   1.420   5.453  14.624  0.2092  0.5332 -0.1579
 3292TIP3    H231368   1.433   5.376  14.754 -0.2632 -0.4598 -0.6961
 3293TIP3   OH231369   5.899   0.141   4.771  0.3248  0.8101  0.8155
 3293TIP3    H131370   5.827   0.204   4.767 -0.5712 -0.2700 -0.6019
 3293TIP3    H231371   5.876   0.083   4.844 -0.0906  0.6242  0.5322
 3294TIP3   OH231372   2.000   4.906  12.410  0.2012 -0.3615 -0.0786
 3294TIP3    H131373   1.981   4.992  12.448 -2.0953 -0.2739 -1.3433
 3294TIP3    H231374   2.038   4.856  12.482 -0.3220  1.0835  1.2361
 3295TIP3   OH231375   2.610   3.455   0.678 -0.3953 -0.1247  0.0063
 3295TIP3    H131376   2.650   3.370   0.695 -0.8996 -0.2719  0.4396
 3295TIP3    H231377   2.547   3.467   0.749 -0.2510  0.6536  0.0053
 3296TIP3   OH231378   0.799   4.341   5.460  0.2583 -0.2166 -0.0060
 3296TIP3    H131379   0.719   4.303   5.494  0.5050  0.5933  1.5464
 3296TIP3    H231380   0.770   4.418   5.410 -0.0611 -1.0458 -1.1085
 3297TIP3   OH231381   0.064   6.681  14.527 -0.0014 -0.1458  0.2077
 3297TIP3    H131382  -0.010   6.636  14.487 -0.4970  0.0302  0.9108
 3297TIP3    H231383   0.052   6.773  14.503 -1.5229  0.3090  2.5634
 3298TIP3   OH231384   2.197   3.832   1.725  0.2309  0.1606  0.0219
 3298TIP3    H131385   2.127   3.768   1.720  0.2684  0.0783  0.5938
 3298TIP3    H231386   2.158   3.913   1.691  0.3331 -0.2834 -1.1877
 3299TIP3   OH231387   6.108   3.425  12.146  0.3703  0.3804  0.1824
 3299TIP3    H131388   6.148   3.466  12.069 -0.7572  0.7229 -0.2361
 3299TIP3    H231389   6.160   3.456  12.220  0.5647  1.2183 -0.3010
 3300TIP3   OH231390   1.659   3.899   4.087 -0.3630  0.1941  0.2928
 3300TIP3    H131391   1.641   3.988   4.119  0.0717 -0.3041  1.9721
 3300TIP3    H231392   1.694   3.853   4.163  3.6409 -0.1859 -1.6734
 3301TIP3   OH231393   4.416   4.491  12.579  0.5903  0.2643  0.2188
 3301TIP3    H131394   4.403   4.577  12.617 -0.1017  0.4122 -0.3488
 3301TIP3    H231395   4.385   4.499  12.489  0.5987 -0.5500  0.1364
 3302TIP3   OH231396   1.838   3.302  12.312  0.0265 -0.2201  0.8831
 3302TIP3    H131397   1.790   3.222  12.291  0.0768 -0.1454  0.4857
 3302TIP3    H231398   1.770   3.366  12.333 -0.2393  0.8159 -2.8087
 3303TIP3   OH231399   0.651   4.165   0.541 -0.2184  0.5390 -0.1969
 3303TIP3    H131400   0.583   4.124   0.487 -1.8978  2.7351  0.2033
 3303TIP3    H231401   0.614   4.167   0.629  1.3854 -0.4991  0.5117
 3304TIP3   OH231402   5.703   1.808  12.819  0.0322  0.3599  0.4895
 3304TIP3    H131403   5.609   1.819  12.805  0.2411  0.1782 -1.2449
 3304TIP3    H231404   5.713   1.714  12.836 -0.0811  0.3546  0.5310
 3305TIP3   OH231405   4.318   1.613   0.957 -0.4975  0.3756 -0.4500
 3305TIP3    H131406   4.226   1.639   0.950 -0.6825 -0.0124  0.4204
 3305TIP3    H231407   4.364   1.671   0.896 -1.3427  0.4361 -1.0397
 3306TIP3   OH231408   4.508   5.664  11.210 -0.0045  0.2536 -0.0533
 3306TIP3    H131409   4.546   5.751  11.219  0.2336  0.0046  1.5234
 3306TIP3    H231410   4.571   5.616  11.156  1.1603  0.2996  1.2403
 3307TIP3   OH231411   6.710   0.903   1.651 -0.1932  0.0008 -0.4343
 3307TIP3    H131412   6.618   0.928   1.649 -0.0368  0.5610 -0.6244
 3307TIP3    H231413   6.753   0.974   1.698  0.0692 -0.5009  0.0887
 3308TIP3   OH231414   2.752   1.456   2.804  0.0298 -0.0140 -0.5869
 3308TIP3    H131415   2.844   1.478   2.816 -0.0514  1.9529 -3.0929
 3308TIP3    H231416   2.708   1.540   2.795 -2.0449 -0.9327  0.6303
 3309TIP3   OH231417   4.799   2.199  16.278 -0.5426 -0.2740  1.2507
 3309TIP3    H131418   4.823   2.230  16.366  0.2180 -2.9548  2.0397
 3309TIP3    H231419   4.706   2.177  16.286 -0.1094 -1.9740  1.8604
 3310TIP3   OH231420   4.332   5.139  11.481 -0.8058  0.3773 -0.0938
 3310TIP3    H131421   4.252   5.087  11.484 -0.7378  0.0630 -2.5770
 3310TIP3    H231422   4.309   5.215  11.428  0.7224 -0.1146 -1.5060
 3311TIP3   OH231423   0.361   0.265   3.355  0.4362 -0.3143  0.2361
 3311TIP3    H131424   0.307   0.286   3.279  0.4839  0.2264  0.3486
 3311TIP3    H231425   0.298   0.231   3.419  0.3623 -0.5490  0.0390
 3312TIP3   OH231426   6.356   6.475  15.746 -0.3992  0.1313  0.3111
 3312TIP3    H131427   6.324   6.565  15.736  0.2462  0.6034  2.3065
 3312TIP3    H231428   6.288   6.431  15.796  0.2744  0.1103  1.2268
 3313TIP3   OH231429   3.672   4.181   0.386  0.4258 -0.0437  0.0888
 3313TIP3    H131430   3.682   4.271   0.418 -1.3848 -0.4031  1.7344
 3313TIP3    H231431   3.584   4.179   0.348  0.3534 -1.2189  0.3254
 3314TIP3   OH231432   0.634   6.698   3.617  0.9105 -0.3778  0.0341
 3314TIP3    H131433   0.642   6.704   3.713  1.2400 -0.4422  0.0118
 3314TIP3    H231434   0.542   6.719   3.600  1.2061  1.2183  0.2487
 3315TIP3   OH231435   1.100   3.436   3.827 -0.0379 -0.9209  0.5461
 3315TIP3    H131436   1.066   3.525   3.813 -0.3900 -1.3323 -1.3653
 3315TIP3    H231437   1.022   3.381   3.833  0.1914 -1.1714  1.2332
 3316TIP3   OH231438   0.176   4.434  12.806  0.3851  0.4786  0.9047
 3316TIP3    H131439   0.270   4.416  12.812  0.1779 -1.3572 -0.6941
 3316TIP3    H231440   0.162   4.509  12.863  3.0612  1.6129  0.1693
 3317TIP3   OH231441   6.438   0.742  13.193  0.1460 -1.0488 -0.7039
 3317TIP3    H131442   6.411   0.827  13.159  2.1053 -0.3780 -0.6427
 3317TIP3    H231443   6.421   0.680  13.122  1.3725 -0.1395 -1.8112
 3318TIP3   OH231444   2.817   4.452   1.788  0.0745  0.2570 -0.2785
 3318TIP3    H131445   2.878   4.525   1.783 -0.7596  0.8994 -1.3356
 3318TIP3    H231446   2.809   4.422   1.697 -0.1347 -0.6894  0.0511
 3319TIP3   OH231447   2.643   0.900   0.021 -0.0719 -0.0259 -0.2268
 3319TIP3    H131448   2.603   0.946   0.095 -0.4223 -0.7095  0.0190
 3319TIP3    H231449   2.681   0.969  -0.033  2.4052  0.3093  1.8922
 3320TIP3   OH231450   1.562   6.599   3.903  0.0647  0.1564 -0.0605
 3320TIP3    H131451   1.517   6.522   3.940 -2.1097  1.7114  0.6342
 3320TIP3    H231452   1.583   6.653   3.979  0.3729  0.8809 -0.6587
 3321TIP3   OH231453   4.022   3.154   4.248 -0.2027  0.1618  0.5036
 3321TIP3    H131454   3.941   3.106   4.261 -1.3679  1.4388 -1.6767
 3321TIP3    H231455   4.075   3.097   4.192 -0.4311  0.1860  0.2612
 3322TIP3   OH231456   0.888   4.538  14.161 -0.4267 -0.2703 -0.1347
 3322TIP3    H131457   0.905   4.598  14.233  2.0410 -0.2382 -0.7084
 3322TIP3    H231458   0.938   4.573  14.087 -1.5104 -1.2714 -1.3901
 3323TIP3   OH231459   4.792   3.280   5.695 -0.5156 -0.4122  0.0074
 3323TIP3    H131460   4.846   3.250   5.768  0.1395  1.3743  0.2726
 3323TIP3    H231461   4.737   3.205   5.674  0.6090 -1.5682  1.1009
 3324TIP3   OH231462   4.202   5.040   1.637  0.1888 -0.3216  0.0253
 3324TIP3    H131463   4.163   5.104   1.577 -2.0040 -2.8762 -1.3738
 3324TIP3    H231464   4.247   4.978   1.579  2.7425  0.1688  1.3918
 3325TIP3   OH231465   2.941   3.767  14.230 -0.4462 -0.1951  0.3717
 3325TIP3    H131466   3.027   3.756  14.188 -0.3909  1.6765 -0.0739
 3325TIP3    H231467   2.906   3.679  14.237  0.8741 -0.8408 -0.8211
 3326TIP3   OH231468   5.824   6.757  14.949 -0.4783  0.4965  0.0777
 3326TIP3    H131469   5.758   6.705  14.995 -0.1672 -0.2051 -0.2494
 3326TIP3    H231470   5.773   6.811  14.888 -0.7366 -0.3369 -0.4606
 3327TIP3   OH231471   5.826   1.828  13.932 -0.3414 -0.5274 -0.1998
 3327TIP3    H131472   5.744   1.789  13.901  0.0006 -0.6593 -0.9501
 3327TIP3    H231473   5.800   1.914  13.966 -1.0712 -1.3252  1.2933
 3328TIP3   OH231474   2.013   0.195  15.375  0.3296  0.2072 -0.4564
 3328TIP3    H131475   2.023   0.290  15.383 -0.8215  0.1876  1.4947
 3328TIP3    H231476   2.019   0.162  15.465  0.9158 -1.6006 -1.1285
 3329TIP3   OH231477   5.384   6.591  11.772  0.3193 -0.3780 -0.1421
 3329TIP3    H131478   5.341   6.669  11.808  0.0364 -1.5018  2.0244
 3329TIP3    H231479   5.316   6.524  11.772  1.1646 -1.2482  0.1898
 3330TIP3   OH231480   0.154   0.236  16.335  0.4533  0.1938 -0.8485
 3330TIP3    H131481   0.131   0.145  16.354  0.2121  0.5575  0.6845
 3330TIP3    H231482   0.121   0.285  16.410 -3.0562  2.1088 -3.4829
 3331TIP3   OH231483   2.337   3.412   3.191 -0.2221 -0.4335  0.0699
 3331TIP3    H131484   2.364   3.456   3.272 -1.1145  1.7340 -0.7694
 3331TIP3    H231485   2.418   3.401   3.141  0.1096 -0.3668  0.5929
 3332TIP3   OH231486   4.320   5.575  13.778  0.1033 -0.2504  0.5385
 3332TIP3    H131487   4.386   5.514  13.810  0.1377 -0.0023  0.9497
 3332TIP3    H231488   4.309   5.553  13.686  0.4302 -0.5922  0.5801
 3333TIP3   OH231489   6.417   1.208  14.549 -0.4450  0.5350  0.6526
 3333TIP3    H131490   6.486   1.245  14.494 -1.3625 -1.2208 -1.7834
 3333TIP3    H231491   6.359   1.282  14.568 -0.3419  1.1003 -1.1426
 3334TIP3   OH231492   2.902   0.379   5.401  0.2886  0.7377 -0.4391
 3334TIP3    H131493   2.986   0.366   5.358  0.6967  3.0677 -0.3959
 3334TIP3    H231494   2.853   0.436   5.342 -0.5927  0.8394  0.3727
 3335TIP3   OH231495   0.829   5.281  10.288  0.4992 -0.0208  0.0247
 3335TIP3    H131496   0.797   5.200  10.327  1.0870 -0.8806 -1.2627
 3335TIP3    H231497   0.923   5.268  10.277  0.7002  1.0585  0.3359
 3336TIP3   OH231498   6.737   0.912   2.553  0.3258  0.4484  0.6992
 3336TIP3    H131499   6.700   0.904   2.641  0.6949  2.8522  1.1235
 3336TIP3    H231500   6.673   0.965   2.505  1.1587  0.9837  0.1664
 3337TIP3   OH231501   0.583   1.492   5.621 -0.7765 -0.0074 -0.0620
 3337TIP3    H131502   0.584   1.583   5.651  1.5974 -0.1256  0.3237
 3337TIP3    H231503   0.501   1.456   5.655 -1.3235  1.7531  0.5072
 3338TIP3   OH231504   5.605   3.273  15.907  0.7020  0.0146 -0.7393
 3338TIP3    H131505   5.608   3.348  15.848  0.7996  0.2057 -0.4918
 3338TIP3    H231506   5.586   3.198  15.850  0.0667  0.3064 -0.9126
 3339TIP3   OH231507   0.375   2.164  10.691 -0.3944 -0.3957  0.3443
 3339TIP3    H131508   0.416   2.078  10.693  0.0557 -0.1699  1.0529
 3339TIP3    H231509   0.313   2.163  10.764 -1.4034 -0.6082 -0.5041
 3340TIP3   OH231510   1.023   0.132   2.519  0.1793 -0.1587  0.5012
 3340TIP3    H131511   1.065   0.150   2.434  0.1653  1.2550  0.7757
 3340TIP3    H231512   1.075   0.061   2.557 -1.1112 -2.3387 -1.6187
 3341TIP3   OH231513   3.928   6.450   4.208 -0.8815 -0.4376 -0.7785
 3341TIP3    H131514   3.897   6.536   4.180  0.2956  0.7715  1.4489
 3341TIP3    H231515   4.003   6.432   4.151 -1.1529  0.0203 -1.2844
 3342TIP3   OH231516   5.767   3.710   1.682  0.2071  0.7089  0.1812
 3342TIP3    H131517   5.720   3.792   1.667  1.8347  1.6813  0.2880
 3342TIP3    H231518   5.822   3.700   1.605 -0.1570 -0.4193  0.0629
 3343TIP3   OH231519   5.858   3.136   1.057 -0.1522 -0.1042 -0.2916
 3343TIP3    H131520   5.835   3.060   1.111 -0.1653  0.0166 -0.1269
 3343TIP3    H231521   5.863   3.102   0.968 -2.2474  0.1211 -0.5080
 3344TIP3   OH231522   6.054   3.770  15.945 -0.6540 -0.1465  0.2519
 3344TIP3    H131523   5.985   3.836  15.948 -0.4508  0.0767 -0.0695
 3344TIP3    H231524   6.068   3.753  15.852 -0.0352  0.0603  0.3050
 3345TIP3   OH231525   0.735   3.404   5.144  0.2283  0.1023 -0.0548
 3345TIP3    H131526   0.640   3.399   5.151  0.2509 -0.3086 -0.0515
 3345TIP3    H231527   0.755   3.376   5.055  0.5456 -2.5474  0.8050
 3346TIP3   OH231528   3.077   6.029  15.563  0.3126 -0.4610 -0.4228
 3346TIP3    H131529   2.994   6.022  15.515 -0.8386  2.2815  1.0806
 3346TIP3    H231530   3.118   6.108  15.528  0.2499  0.6092  1.8355
 3347TIP3   OH231531   3.930   1.377  12.493 -0.0004 -0.3932 -0.2407
 3347TIP3    H131532   3.970   1.313  12.552  1.9259 -0.9644 -2.1124
 3347TIP3    H231533   3.836   1.364  12.503  0.3233 -1.4783  1.5983
 3348TIP3   OH231534   5.716   3.067  12.180 -0.1899 -0.7449 -0.0630
 3348TIP3    H131535   5.629   3.057  12.139 -0.3595 -0.1355  0.1349
 3348TIP3    H231536   5.701   3.130  12.251  0.4437 -0.5379 -0.1156
 3349TIP3   OH231537   3.376   1.090   3.170 -0.1436  0.3825  0.5560
 3349TIP3    H131538   3.291   1.114   3.135  0.2963 -1.4844 -1.9706
 3349TIP3    H231539   3.362   1.079   3.264 -2.4233  1.1109  0.3264
 3350TIP3   OH231540   3.240   4.265   2.824 -0.2413 -0.2459  0.2839
 3350TIP3    H131541   3.266   4.223   2.905  0.0992 -0.1888  0.2059
 3350TIP3    H231542   3.198   4.196   2.773  1.2829 -0.7580 -0.2890
 3351TIP3   OH231543   0.678   6.714   0.528 -0.6721 -0.1068 -0.8330
 3351TIP3    H131544   0.679   6.794   0.582 -2.1488 -1.7810  1.8001
 3351TIP3    H231545   0.770   6.699   0.507 -0.1408  1.1409  0.4548
 3352TIP3   OH231546   4.412   3.891   2.125  0.5465  0.3059  0.4742
 3352TIP3    H131547   4.449   3.835   2.056 -0.4733 -0.8893  0.8937
 3352TIP3    H231548   4.414   3.979   2.087  1.0757 -0.1706 -0.6373
 3353TIP3   OH231549   0.907   3.266  16.792  0.0533 -0.0361 -0.2793
 3353TIP3    H131550   0.815   3.282  16.815  0.2336  1.1444 -0.3815
 3353TIP3    H231551   0.905   3.244  16.699 -0.2755 -1.3955  0.0302
 3354TIP3   OH231552   3.598   0.717   4.810 -0.2557  0.8807  0.2215
 3354TIP3    H131553   3.620   0.781   4.742 -2.1340  1.0093 -0.2885
 3354TIP3    H231554   3.541   0.764   4.870  0.2852  0.3605  1.1568
 3355TIP3   OH231555   4.454   2.405  14.123 -0.0997 -0.0326  0.2697
 3355TIP3    H131556   4.501   2.331  14.084  2.0128  0.8846  1.0125
 3355TIP3    H231557   4.428   2.459  14.048  1.2376  0.1459 -0.0755
 3356TIP3   OH231558   0.969   1.361   1.303 -0.1121 -0.1286 -0.6557
 3356TIP3    H131559   0.886   1.408   1.306 -0.2765 -0.4898  0.6690
 3356TIP3    H231560   1.030   1.424   1.265 -1.1575 -0.1390 -2.3618
 3357TIP3   OH231561   3.106   3.327   2.344  0.5265  0.5698 -0.0931
 3357TIP3    H131562   3.115   3.337   2.439  2.8361 -0.7201 -0.1543
 3357TIP3    H231563   3.137   3.410   2.308  1.5117  0.3381  0.2077
 3358TIP3   OH231564   0.746   2.655  14.858  0.6371  0.1387  0.6352
 3358TIP3    H131565   0.825   2.607  14.836 -1.2400 -1.5007 -2.8659
 3358TIP3    H231566   0.759   2.742  14.820 -0.2525 -0.9498 -2.3137
 3359TIP3   OH231567   2.984   0.475  16.338  0.0897  0.5689 -0.4217
 3359TIP3    H131568   2.921   0.474  16.267 -0.0416  0.7560 -0.3082
 3359TIP3    H231569   2.969   0.558  16.383 -2.4225 -1.1888  2.1332
 3360TIP3   OH231570   1.325   3.179  14.969 -0.0959 -0.2593 -0.6464
 3360TIP3    H131571   1.330   3.218  15.056  1.9993  0.0292 -0.8627
 3360TIP3    H231572   1.360   3.090  14.981 -0.0792 -0.3167 -1.1193
 3361TIP3   OH231573   2.221   4.645  13.315 -0.2936 -0.1455 -0.1533
 3361TIP3    H131574   2.269   4.632  13.233  0.7896  1.5964  0.1765
 3361TIP3    H231575   2.289   4.652  13.382 -1.2059 -2.6964  1.0981
 3362TIP3   OH231576   4.293   2.317  16.744 -0.4145  0.0261 -0.2397
 3362TIP3    H131577   4.254   2.241  16.788 -0.7294  0.5079  0.3165
 3362TIP3    H231578   4.381   2.287  16.719 -0.9045 -0.8624 -0.9512
 3363TIP3   OH231579   2.837   3.785   0.997 -0.0729  0.6486  0.3711
 3363TIP3    H131580   2.830   3.710   0.938  0.5091 -0.2136  1.3814
 3363TIP3    H231581   2.930   3.808   0.996 -0.0274  0.4925  1.1344
 3364TIP3   OH231582   3.544   2.635   3.204  0.0986  0.1976 -0.0169
 3364TIP3    H131583   3.492   2.670   3.276 -1.8025  0.9508 -1.6886
 3364TIP3    H231584   3.524   2.693   3.130  3.3974  0.5468 -0.7148
 3365TIP3   OH231585   6.242   1.399  14.651  0.3411  0.2663 -0.1835
 3365TIP3    H131586   6.160   1.368  14.689 -0.6766 -0.7294 -3.0470
 3365TIP3    H231587   6.215   1.440  14.568  2.7317 -0.0020 -1.1089
 3366TIP3   OH231588   1.947   6.790  16.822  0.2458 -0.4092  0.2014
 3366TIP3    H131589   1.900   6.709  16.802  0.9313 -1.2490  1.8251
 3366TIP3    H231590   1.884   6.860  16.807 -0.9621 -1.3919  0.6065
 3367TIP3   OH231591   5.040   1.875   2.187  0.7844  0.6811 -0.3985
 3367TIP3    H131592   4.951   1.860   2.156  0.7103  0.9794 -0.3267
 3367TIP3    H231593   5.056   1.802   2.247  0.3142  1.0485  0.1737
 3368TIP3   OH231594   1.368   5.395  13.150  0.3104 -0.1670 -0.0729
 3368TIP3    H131595   1.447   5.409  13.203 -0.1331 -0.6457  0.7274
 3368TIP3    H231596   1.400   5.394  13.060  1.0488  0.8668  0.1648
 3369TIP3   OH231597   4.628   1.355   5.647 -0.4059  0.1710  0.3262
 3369TIP3    H131598   4.585   1.441   5.650 -2.5642 -0.8277 -0.9770
 3369TIP3    H231599   4.574   1.300   5.704 -1.5276 -1.3751 -2.1446
 3370TIP3   OH231600   3.893   6.590  15.468  0.7686 -0.1984  0.4648
 3370TIP3    H131601   3.885   6.661  15.532  1.1037  0.9933 -0.7900
 3370TIP3    H231602   3.987   6.575  15.460  0.6632 -2.3339  2.3386
 3371TIP3   OH231603   2.435   2.878  14.914 -0.3098  0.1066 -0.1975
 3371TIP3    H131604   2.405   2.967  14.932 -2.0862 -0.5506  0.2054
 3371TIP3    H231605   2.359   2.834  14.877 -0.3460 -2.0397  2.2875
 3372TIP3   OH231606   4.943   5.909  13.458  0.7566 -0.0290 -0.2508
 3372TIP3    H131607   4.922   5.824  13.420 -1.1798 -0.2255  1.1831
 3372TIP3    H231608   4.862   5.960  13.450  1.8710  1.6647 -1.0202
 3373TIP3   OH231609   2.392   1.177  14.100 -0.4410  0.2468  0.2386
 3373TIP3    H131610   2.398   1.196  14.194  0.7983 -0.2867  0.2747
 3373TIP3    H231611   2.373   1.084  14.096  2.2157 -0.3230 -0.0591
 3374TIP3   OH231612   1.863   0.244  16.925 -0.7108  0.1304  0.0410
 3374TIP3    H131613   1.804   0.261  16.998  0.6529  0.4347  1.0961
 3374TIP3    H231614   1.945   0.215  16.967 -0.8797 -2.7284 -1.4616
 3375TIP3   OH231615   2.317   4.497   0.870  0.2834  1.0998  0.4108
 3375TIP3    H131616   2.351   4.426   0.924 -1.5934 -0.3667 -0.2873
 3375TIP3    H231617   2.384   4.512   0.804 -0.7639 -2.3886 -1.5313
 3376TIP3   OH231618   3.924   5.551  13.866 -0.9636  0.2226 -0.3025
 3376TIP3    H131619   3.831   5.567  13.880 -0.2158  2.7118  2.4056
 3376TIP3    H231620   3.956   5.628  13.819 -0.0611 -0.1100 -0.2580
 3377TIP3   OH231621   1.680   1.999  16.390  0.5092  0.1004  0.1117
 3377TIP3    H131622   1.591   2.020  16.416  0.3417  0.7221 -0.9255
 3377TIP3    H231623   1.671   1.964  16.301  1.3184  0.4080 -0.0991
 3378TIP3   OH231624   1.919   3.699   0.201 -0.3724 -0.0156  0.0281
 3378TIP3    H131625   1.993   3.642   0.223  0.4211  0.0510 -2.2839
 3378TIP3    H231626   1.842   3.643   0.213  0.2168 -0.8091  0.2310
 3379TIP3   OH231627   2.352   5.185   5.318 -0.0740 -0.0467  0.1201
 3379TIP3    H131628   2.376   5.271   5.284 -1.0247  0.6247  1.1586
 3379TIP3    H231629   2.299   5.203   5.396 -2.4565 -1.5086 -1.0881
 3380TIP3   OH231630   2.455   2.929  15.385  0.4933  0.0008  0.3185
 3380TIP3    H131631   2.451   2.907  15.478 -0.6140 -0.0639  0.2567
 3380TIP3    H231632   2.414   2.855  15.340  0.0130  0.5365 -0.1422
 3381TIP3   OH231633   2.398   3.265   3.902 -0.5794  0.0376  0.1400
 3381TIP3    H131634   2.421   3.189   3.849 -0.8953  0.4312 -0.5749
 3381TIP3    H231635   2.462   3.332   3.877 -2.1716  0.9879 -1.5199
 3382TIP3   OH231636   6.328   3.193   5.112 -0.3659 -0.4628 -0.1135
 3382TIP3    H131637   6.386   3.117   5.114  0.6276  0.2721 -0.9458
 3382TIP3    H231638   6.360   3.250   5.181 -0.8443 -0.6069  0.2261
 3383TIP3   OH231639   1.771   2.713  14.595  0.5224  0.2597 -0.2028
 3383TIP3    H131640   1.833   2.769  14.642  0.6839  0.1486 -0.2854
 3383TIP3    H231641   1.730   2.660  14.663 -2.1700  2.8874  0.3683
 3384TIP3   OH231642   6.407   2.189  14.475  0.2997 -0.0382  0.5793
 3384TIP3    H131643   6.381   2.159  14.388 -0.6967 -0.5840  1.0585
 3384TIP3    H231644   6.351   2.140  14.535  0.8884  0.4351  1.5238
 3385TIP3   OH231645   1.441   4.846  14.208 -0.8240 -0.5562 -0.2898
 3385TIP3    H131646   1.481   4.802  14.133 -1.6533 -1.6025 -0.1400
 3385TIP3    H231647   1.502   4.832  14.280  0.5883  1.5279 -1.0282
 3386TIP3   OH231648   6.780   3.412  16.070 -0.5643  0.3267 -0.1745
 3386TIP3    H131649   6.733   3.344  16.118 -0.1242 -1.6868 -2.4706
 3386TIP3    H231650   6.870   3.405  16.099 -0.2999 -0.8825 -1.2595
 3387TIP3   OH231651   5.245   1.529  14.978  0.1302  0.2776  0.1875
 3387TIP3    H131652   5.292   1.597  15.025 -0.8763  2.4897 -1.8677
 3387TIP3    H231653   5.299   1.511  14.902  0.4216 -1.2866  0.7599
 3388TIP3   OH231654   4.598   3.526   4.362 -0.0760  0.0160 -0.2610
 3388TIP3    H131655   4.611   3.464   4.290  0.4542 -1.2201  0.8825
 3388TIP3    H231656   4.504   3.538   4.368 -0.0588  1.4880 -2.2794
 3389TIP3   OH231657   2.169   4.735  11.027 -0.1319  0.2240  0.0216
 3389TIP3    H131658   2.247   4.789  11.021 -0.7427  1.1262  0.1536
 3389TIP3    H231659   2.099   4.789  10.990 -0.9512 -0.0603  1.1145
 3390TIP3   OH231660   2.747   0.064   3.146  0.0325 -0.0203  0.1309
 3390TIP3    H131661   2.659   0.082   3.178 -0.7139 -1.7227 -0.8792
 3390TIP3    H231662   2.796   0.145   3.162 -1.3476  0.4831  1.9233
 3391TIP3   OH231663   2.345   3.050  16.164  0.0088  0.5675 -0.0660
 3391TIP3    H131664   2.266   3.012  16.204 -0.9288  2.0521 -0.4508
 3391TIP3    H231665   2.315   3.132  16.126  1.6664  0.9284 -0.6357
 3392TIP3   OH231666   4.333   0.861   1.453 -0.5082 -0.3895 -0.0685
 3392TIP3    H131667   4.346   0.874   1.547 -0.1429  1.0413 -0.3033
 3392TIP3    H231668   4.398   0.917   1.412  0.8060 -2.7095 -1.1861
 3393TIP3   OH231669   4.743   6.070   3.522 -0.3248 -0.3234  0.0946
 3393TIP3    H131670   4.727   6.099   3.433  0.9762 -0.4514 -0.1871
 3393TIP3    H231671   4.656   6.067   3.562 -0.9957 -0.9999 -1.3803
 3394TIP3   OH231672   1.159   3.376   5.464 -0.5639 -0.2357 -0.0762
 3394TIP3    H131673   1.097   3.404   5.396 -0.7070  1.3862  0.6911
 3394TIP3    H231674   1.107   3.371   5.544 -0.4797 -2.5303 -0.1503
 3395TIP3   OH231675   4.555   2.806  10.845  0.2062 -0.5781  0.4987
 3395TIP3    H131676   4.570   2.723  10.799  1.0175 -0.0888 -0.1172
 3395TIP3    H231677   4.587   2.789  10.934 -0.0232 -1.0601  0.4948
 3396TIP3   OH231678   3.037   4.953   1.259 -0.2923  0.3585  0.0183
 3396TIP3    H131679   3.016   4.904   1.339 -1.9457  0.4363 -0.3365
 3396TIP3    H231680   3.023   4.890   1.188  3.4016 -0.4049 -0.1174
 3397TIP3   OH231681   4.191   3.151   6.698 -0.2727  0.4142 -0.0868
 3397TIP3    H131682   4.127   3.113   6.637 -0.9556 -0.9877  1.4612
 3397TIP3    H231683   4.207   3.238   6.663  0.4028 -0.8161 -3.0456
 3398TIP3   OH231684   2.828   4.422  12.093 -0.3961  0.4239  0.0667
 3398TIP3    H131685   2.744   4.454  12.060 -0.3729  0.8199  0.3900
 3398TIP3    H231686   2.893   4.464  12.037 -0.4600 -0.8030 -0.9500
 3399TIP3   OH231687   4.415   0.215   6.100  0.0082 -0.1207  0.3599
 3399TIP3    H131688   4.389   0.128   6.130  2.2218 -0.9024  0.0700
 3399TIP3    H231689   4.405   0.211   6.005 -0.3728  0.1118  0.3893
 3400TIP3   OH231690   0.844   5.029  10.479  0.0180 -0.3503  0.5066
 3400TIP3    H131691   0.763   4.980  10.494 -0.3919  0.2483  0.2447
 3400TIP3    H231692   0.867   5.064  10.565 -0.9997  1.0155  0.2327
 3401TIP3   OH231693   1.991   5.344   4.060 -0.3465  0.4909  0.4924
 3401TIP3    H131694   2.079   5.360   4.026 -0.4756 -3.8677 -2.2520
 3401TIP3    H231695   1.933   5.388   3.997 -0.2482  0.0406  0.0814
 3402TIP3   OH231696   2.699   3.722   6.034  0.7944 -0.3417 -0.1005
 3402TIP3    H131697   2.765   3.655   6.014 -0.2706 -2.2955  2.6237
 3402TIP3    H231698   2.697   3.726   6.130 -0.6281  2.1756 -0.1820
 3403TIP3   OH231699   5.241   0.521   4.827  0.0512  0.7185 -0.2720
 3403TIP3    H131700   5.172   0.586   4.842  0.8175  1.0560  1.9085
 3403TIP3    H231701   5.316   0.572   4.798 -0.2754  0.4575 -1.6171
 3404TIP3   OH231702   6.269   2.476  12.125  0.4411 -0.1274 -0.4906
 3404TIP3    H131703   6.341   2.497  12.184  0.7398 -0.8607 -0.5816
 3404TIP3    H231704   6.284   2.531  12.048 -2.2985  4.0012  1.7620
 3405TIP3   OH231705   4.238   0.302  12.090 -0.4824 -0.1343  0.2744
 3405TIP3    H131706   4.183   0.374  12.061 -1.9218 -0.8996  1.0688
 3405TIP3    H231707   4.308   0.298  12.025  0.9349  3.4262  1.4722
 3406TIP3   OH231708   1.210   1.988   0.477  0.3512 -0.0683 -0.0002
 3406TIP3    H131709   1.220   1.960   0.386  2.2766  1.3914 -0.2834
 3406TIP3    H231710   1.118   2.015   0.484  0.4744  0.9520 -1.8717
 3407TIP3   OH231711   2.790   3.091  15.507 -0.5773  0.0271 -0.0823
 3407TIP3    H131712   2.725   3.099  15.438  0.1254  1.4275 -0.6046
 3407TIP3    H231713   2.865   3.142  15.476 -0.5404  1.3243  2.0261
 3408TIP3   OH231714   2.740   4.061   2.201  0.3566 -0.1856  0.1246
 3408TIP3    H131715   2.820   4.034   2.245 -0.3551 -4.0832 -0.7805
 3408TIP3    H231716   2.769   4.103   2.120  1.4797 -1.0762  0.0609
 3409TIP3   OH231717   3.293   2.254   3.096 -0.1203  0.2248  0.3368
 3409TIP3    H131718   3.236   2.180   3.116 -0.1756  0.2223  0.1609
 3409TIP3    H231719   3.250   2.329   3.136  0.0881  0.1147  0.7767
 3410TIP3   OH231720   3.098   3.489   1.457  0.2368  0.1049  0.4133
 3410TIP3    H131721   3.073   3.427   1.526 -1.2144  0.1074 -0.0808
 3410TIP3    H231722   3.109   3.572   1.502  1.3062 -0.3231  0.9470
 3411TIP3   OH231723   3.376   1.261  16.479 -0.4038  0.1873  0.8681
 3411TIP3    H131724   3.364   1.167  16.479  0.0031  0.1356  1.0194
 3411TIP3    H231725   3.450   1.276  16.420 -0.1199  0.3694  1.2719
 3412TIP3   OH231726   2.368   3.204   1.046  0.5514 -0.4027 -0.2673
 3412TIP3    H131727   2.445   3.232   1.095  1.8626 -3.3277 -0.5305
 3412TIP3    H231728   2.350   3.116   1.078 -1.2802 -0.6506 -1.8726
 3413TIP3   OH231729   2.903   6.629  13.846 -0.7256  0.2393 -0.0219
 3413TIP3    H131730   2.894   6.539  13.877 -1.2021  0.0324 -0.7709
 3413TIP3    H231731   2.910   6.622  13.751 -2.5643  1.1109 -0.2475
 3414TIP3   OH231732   4.750   5.885   1.038  0.2665 -0.5948 -0.5902
 3414TIP3    H131733   4.753   5.799   1.080  0.3265 -0.4495 -0.3031
 3414TIP3    H231734   4.668   5.924   1.068  0.2222 -0.5648 -0.7495
 3415TIP3   OH231735   2.535   2.011  16.598 -0.0306  0.2135  0.2402
 3415TIP3    H131736   2.539   1.925  16.556  0.2093  1.7127 -2.9345
 3415TIP3    H231737   2.477   1.997  16.673 -0.0521 -2.7033 -0.2248
 3416TIP3   OH231738   0.334   0.275   1.604  0.4388 -0.0531  0.3110
 3416TIP3    H131739   0.266   0.342   1.607 -0.3801 -0.8616  0.3961
 3416TIP3    H231740   0.333   0.245   1.513 -0.7250 -1.4451  0.7498
 3417TIP3   OH231741   0.231   6.507   2.256  0.6741 -0.2443  0.1432
 3417TIP3    H131742   0.244   6.433   2.196  1.8004 -0.5134  0.7036
 3417TIP3    H231743   0.229   6.584   2.199 -0.5609 -0.7030 -0.4483
 3418TIP3   OH231744   4.842   5.747  14.449 -0.0443  0.2326 -0.2853
 3418TIP3    H131745   4.781   5.757  14.376 -0.4246 -0.1986 -0.0248
 3418TIP3    H231746   4.841   5.832  14.493  0.7469  0.7358 -1.2139
 3419TIP3   OH231747   5.335   1.028   2.468  0.0709  0.6453  0.4112
 3419TIP3    H131748   5.375   0.949   2.505 -0.7488 -0.7662 -1.6251
 3419TIP3    H231749   5.406   1.072   2.422  0.1631  0.2269  0.1546
 3420TIP3   OH231750   0.841   6.606  13.442 -0.2656  0.5759 -0.1948
 3420TIP3    H131751   0.765   6.553  13.421  0.5348 -0.9451  0.6528
 3420TIP3    H231752   0.867   6.579  13.530  1.3645  0.9232 -0.5377
 3421TIP3   OH231753   6.343   0.327  15.642  0.6973  0.0761  0.0469
 3421TIP3    H131754   6.274   0.320  15.576 -0.0997  0.2500  0.8628
 3421TIP3    H231755   6.414   0.273  15.608 -0.1981 -0.8774 -0.3250
 3422TIP3   OH231756   3.526   0.637  12.581  0.1444 -0.2906  0.3438
 3422TIP3    H131757   3.595   0.671  12.637  1.1632 -0.5263 -0.7541
 3422TIP3    H231758   3.534   0.542  12.587  0.8793 -0.3292 -0.9191
 3423TIP3   OH231759   4.904   6.001  15.145 -0.3441  0.3689  0.5147
 3423TIP3    H131760   4.980   6.050  15.177 -1.5591  0.8561  2.7828
 3423TIP3    H231761   4.829   6.044  15.186 -1.6972 -1.3691 -0.0705
 3424TIP3   OH231762   6.738   1.130  13.941 -0.3732 -0.0796  0.3001
 3424TIP3    H131763   6.697   1.208  13.903  0.2620  0.1308  0.0320
 3424TIP3    H231764   6.685   1.109  14.017 -2.2629 -1.0977 -1.2644
 3425TIP3   OH231765   1.447   3.275   0.832 -0.1861 -0.4567  0.0034
 3425TIP3    H131766   1.425   3.253   0.923 -0.0323 -2.2646 -0.3840
 3425TIP3    H231767   1.444   3.370   0.830 -0.5549 -0.4007  1.8228
 3426TIP3   OH231768   0.947   2.108   0.732  0.1254  0.1771 -0.6275
 3426TIP3    H131769   0.859   2.087   0.764  0.4446 -0.1686  0.0398
 3426TIP3    H231770   0.935   2.125   0.638 -0.5515 -0.4870 -0.6703
 3427TIP3   OH231771   3.261   4.627   0.157  0.5651 -0.9387 -0.7223
 3427TIP3    H131772   3.241   4.718   0.177  1.4936 -1.1629  1.3891
 3427TIP3    H231773   3.204   4.576   0.216  1.2184 -1.6749 -0.7085
 3428TIP3   OH231774   1.196   1.223  15.982 -0.0957 -0.3532  0.4237
 3428TIP3    H131775   1.228   1.294  15.926  0.6599  1.5689  3.1805
 3428TIP3    H231776   1.274   1.171  16.001  0.2254  0.6763  2.0049
 3429TIP3   OH231777   6.247   2.960   3.556  0.0038  0.5070 -0.2381
 3429TIP3    H131778   6.236   2.946   3.462 -1.4932  0.9559 -0.1306
 3429TIP3    H231779   6.329   2.914   3.577 -0.3753 -0.7822 -1.4864
 3430TIP3   OH231780   6.053   6.622   2.821 -0.1568  0.4746 -0.1497
 3430TIP3    H131781   6.012   6.644   2.905  0.2677  1.4345 -0.1821
 3430TIP3    H231782   6.106   6.545   2.840  1.2303  1.6321  0.8786
 3431TIP3   OH231783   0.557   6.459   0.451  0.1633 -0.2052 -0.4499
 3431TIP3    H131784   0.584   6.549   0.469 -0.2001  0.0504 -1.1909
 3431TIP3    H231785   0.626   6.405   0.490  1.4389  0.4346 -1.7755
 3432TIP3   OH231786   0.349   4.600  13.177  0.1057 -0.7720 -0.0686
 3432TIP3    H131787   0.423   4.602  13.237 -1.6488  0.7688  2.1584
 3432TIP3    H231788   0.382   4.636  13.095  2.2243 -1.7552  0.3309
 3433TIP3   OH231789   6.258   3.045   1.160 -0.1415  0.1868  0.2055
 3433TIP3    H131790   6.269   2.951   1.147 -0.2133  0.0021  1.4615
 3433TIP3    H231791   6.165   3.055   1.182  0.3167  0.3114  2.1359
 3434TIP3   OH231792   2.346   0.700   3.908 -0.0206  0.2690  0.6121
 3434TIP3    H131793   2.280   0.674   3.844 -0.6993 -0.3094  1.5281
 3434TIP3    H231794   2.349   0.796   3.902 -1.4664  0.3612  1.0483
 3435TIP3   OH231795   1.531   6.388   5.996 -0.3147  0.4956  0.0509
 3435TIP3    H131796   1.586   6.466   5.988 -0.9537  1.1696  2.0082
 3435TIP3    H231797   1.445   6.416   5.964 -0.5806  0.6365  0.8889
 3436TIP3   OH231798   2.467   6.421  15.037  0.3692 -0.4002 -0.1903
 3436TIP3    H131799   2.432   6.337  15.067 -1.7391  0.6598  0.3801
 3436TIP3    H231800   2.418   6.487  15.086  1.6147  1.2007 -1.0358
 3437TIP3   OH231801   2.796   0.782  13.803  0.1396  0.1461  0.0147
 3437TIP3    H131802   2.715   0.818  13.767 -0.5851 -1.2785  0.1474
 3437TIP3    H231803   2.789   0.688  13.787  2.0267  0.0658 -0.4409
 3438TIP3   OH231804   1.730   3.925  14.040  0.7863 -0.2712  0.3556
 3438TIP3    H131805   1.746   3.958  14.129  2.7781  0.6148 -0.2856
 3438TIP3    H231806   1.745   3.830  14.047 -1.8374 -0.6493  1.5295
 3439TIP3   OH231807   1.186   0.739  11.001 -0.0288 -0.3172  0.1176
 3439TIP3    H131808   1.248   0.687  10.951  0.9956  0.2149  0.8221
 3439TIP3    H231809   1.103   0.690  10.995  1.1591 -2.6160  1.6439
 3440TIP3   OH231810   0.282   5.242   0.666  0.6319  0.0705  0.5342
 3440TIP3    H131811   0.284   5.279   0.578  0.0189  0.3038  0.6144
 3440TIP3    H231812   0.269   5.148   0.652 -1.0241  0.3023  0.4058
 3441TIP3   OH231813   0.111   4.448  13.147  0.6474 -0.0287  0.1285
 3441TIP3    H131814   0.177   4.510  13.180  0.3783  0.4297 -0.1909
 3441TIP3    H231815   0.088   4.482  13.061  1.1437 -1.0664 -0.4235
 3442TIP3   OH231816   1.964   2.945  16.543 -0.3499  0.3035  0.4002
 3442TIP3    H131817   1.950   3.036  16.572 -0.5948  0.4009 -0.0196
 3442TIP3    H231818   1.963   2.894  16.624  2.2599  0.9615  0.9207
 3443TIP3   OH231819   1.428   2.071   5.091 -0.4375 -0.1102 -0.1074
 3443TIP3    H131820   1.394   2.099   5.176 -1.4504 -0.1886 -0.4770
 3443TIP3    H231821   1.459   2.151   5.050  0.3114 -0.1146  0.4541
 3444TIP3   OH231822   5.650   5.622   3.599 -0.3611 -0.0298 -0.1052
 3444TIP3    H131823   5.678   5.624   3.507 -0.5059  2.2527 -0.1441
 3444TIP3    H231824   5.605   5.538   3.609  0.9744 -0.9557 -1.7144
 3445TIP3   OH231825   5.717   4.733  14.864  0.0345  0.2794  0.2479
 3445TIP3    H131826   5.706   4.693  14.950 -1.9077  0.3396  0.0495
 3445TIP3    H231827   5.736   4.825  14.883  0.9586  0.0123  0.6333
 3446TIP3   OH231828   4.684   2.463  15.022 -0.0419 -0.4857  0.3990
 3446TIP3    H131829   4.767   2.480  15.065  0.8442 -0.5351 -1.2452
 3446TIP3    H231830   4.618   2.472  15.091  1.1628  1.2789  1.3466
 3447TIP3   OH231831   6.303   1.406  11.373 -0.0719  0.2241  0.2772
 3447TIP3    H131832   6.233   1.402  11.308 -0.2415 -1.3990  0.5228
 3447TIP3    H231833   6.316   1.314  11.399 -0.1486  0.8608  2.6677
 3448TIP3   OH231834   5.561   6.800   0.584  0.4643 -0.2567  0.2888
 3448TIP3    H131835   5.498   6.733   0.558  1.8601 -1.9257  1.1570
 3448TIP3    H231836   5.599   6.830   0.501  0.4727 -1.1634 -0.0389
 3449TIP3   OH231837   2.736   2.142   5.180  0.5549  0.6118  0.5644
 3449TIP3    H131838   2.794   2.187   5.119  0.3364 -1.1663 -0.9943
 3449TIP3    H231839   2.660   2.201   5.189  0.1429  0.4569 -1.6619
 3450TIP3   OH231840   1.082   2.487  15.965  0.6811  0.0786 -0.2888
 3450TIP3    H131841   1.032   2.483  16.047  1.2018 -3.0399 -0.0647
 3450TIP3    H231842   1.157   2.429  15.980  2.6644  2.1696 -1.7710
 3451TIP3   OH231843   3.410   6.408  14.161  0.1234  0.1224 -0.1843
 3451TIP3    H131844   3.352   6.422  14.086 -1.0096 -0.3241  0.5908
 3451TIP3    H231845   3.419   6.494  14.201  0.4558  0.2978 -0.6370
 3452TIP3   OH231846   1.653   6.344   1.941 -0.6990 -0.4405  0.2826
 3452TIP3    H131847   1.618   6.325   1.854 -1.4329  0.4780  0.3645
 3452TIP3    H231848   1.603   6.420   1.970  2.8603  2.3575 -0.5197
 3453TIP3   OH231849   1.799   6.819   3.487  0.2298  0.3365 -0.8431
 3453TIP3    H131850   1.785   6.894   3.429  0.8778  0.7634 -0.4511
 3453TIP3    H231851   1.844   6.855   3.563 -0.6811 -0.2064 -0.0309
 3454TIP3   OH231852   5.850   4.023  12.641  0.4616  0.0869 -0.2684
 3454TIP3    H131853   5.848   3.944  12.588  0.2740  1.1013 -1.8005
 3454TIP3    H231854   5.776   4.075  12.610 -1.1302 -0.3420  2.6416
 3455TIP3   OH231855   5.311   1.715   6.010  0.2490  0.6896 -0.2629
 3455TIP3    H131856   5.306   1.633   6.059  0.9555  0.8415  0.0838
 3455TIP3    H231857   5.319   1.782   6.077 -0.4411  1.0574 -0.5422
 3456TIP3   OH231858   4.668   1.053   0.112 -0.0809 -0.1932  0.1389
 3456TIP3    H131859   4.699   1.039   0.022  1.1159  0.1851  0.4850
 3456TIP3    H231860   4.576   1.027   0.110 -0.4669  1.2099 -1.5678
 3457TIP3   OH231861   3.443   0.678  16.225  0.2568  0.3048  0.2764
 3457TIP3    H131862   3.370   0.725  16.266 -2.0074 -2.1985 -0.6561
 3457TIP3    H231863   3.449   0.596  16.275 -0.6054 -1.4865 -2.4360
 3458TIP3   OH231864   1.586   6.570   4.707  0.4168  0.3339 -0.5197
 3458TIP3    H131865   1.630   6.655   4.706 -0.5416  0.8663  0.8697
 3458TIP3    H231866   1.564   6.555   4.799 -1.7543 -0.1939 -1.0872
 3459TIP3   OH231867   4.555   6.061  15.676  0.3879 -0.4118  0.2842
 3459TIP3    H131868   4.557   6.012  15.593  0.7047 -2.2908  1.3849
 3459TIP3    H231869   4.462   6.079  15.690  0.2082 -1.3109  0.2380
 3460TIP3   OH231870   0.146   1.168   3.616 -0.2612 -0.7349  0.4240
 3460TIP3    H131871   0.138   1.085   3.663  0.1066  0.0647  1.9322
 3460TIP3    H231872   0.195   1.225   3.675 -0.0589  0.3987 -0.8083
 3461TIP3   OH231873   0.527   5.670  15.591  0.4563 -0.4898  0.5745
 3461TIP3    H131874   0.511   5.738  15.526  3.1342 -0.0978  0.2654
 3461TIP3    H231875   0.441   5.651  15.628 -0.9393  0.0643 -2.3026
 3462TIP3   OH231876   3.706   5.150  15.801 -0.1735  0.0522  0.7126
 3462TIP3    H131877   3.639   5.212  15.831  0.1105  0.6515  0.1218
 3462TIP3    H231878   3.762   5.202  15.742 -0.4739 -1.0104 -0.5131
 3463TIP3   OH231879   0.737   2.428   3.178  0.1414 -0.4226  0.3597
 3463TIP3    H131880   0.682   2.483   3.122 -0.0257  1.4055  2.2201
 3463TIP3    H231881   0.820   2.477   3.184  1.0121 -1.8099 -0.2533
 3464TIP3   OH231882   0.692   5.035   6.312  0.5083 -0.3379 -0.1722
 3464TIP3    H131883   0.642   5.106   6.353 -1.0941 -0.4298 -1.8769
 3464TIP3    H231884   0.765   5.019   6.371 -1.6348 -0.3805  2.5797
 3465TIP3   OH231885   2.248   3.874  16.385 -0.1514  0.0789 -0.1517
 3465TIP3    H131886   2.204   3.959  16.389  0.3001  0.2152  2.8734
 3465TIP3    H231887   2.177   3.810  16.380 -0.5935  0.4829  0.8491
 3466TIP3   OH231888   5.470   2.044  12.694 -0.1727  0.8630 -0.0273
 3466TIP3    H131889   5.435   2.059  12.606  1.0281  3.8892 -0.0369
 3466TIP3    H231890   5.401   1.995  12.739 -1.2593  0.2262 -2.2899
 3467TIP3   OH231891   0.971   3.043   1.202  0.4189  0.1203 -0.0354
 3467TIP3    H131892   0.942   2.954   1.182 -1.2877  0.6059  0.2381
 3467TIP3    H231893   1.023   3.068   1.125  1.7304 -1.4350  0.3000
 3468TIP3   OH231894   5.457   1.180  13.662  0.8318  0.2743 -0.1414
 3468TIP3    H131895   5.461   1.096  13.707 -0.5326 -0.2491 -0.9707
 3468TIP3    H231896   5.412   1.161  13.580  1.1905  1.6736 -0.6768
 3469TIP3   OH231897   0.887   1.618  15.572 -0.2585  0.1914 -0.2412
 3469TIP3    H131898   0.896   1.562  15.495 -0.2154  0.9961 -0.8330
 3469TIP3    H231899   0.921   1.703  15.543  0.3050  0.3387  0.8526
 3470TIP3   OH231900   0.331   3.004  14.938 -0.3163  0.3938  0.5035
 3470TIP3    H131901   0.319   2.977  14.847  2.7457  1.2460 -0.2046
 3470TIP3    H231902   0.343   2.922  14.986  0.4752  0.0682 -0.2477
 3471TIP3   OH231903   1.511   3.033   3.666  0.5875 -0.2556 -0.3986
 3471TIP3    H131904   1.554   3.109   3.627  1.0023  0.6214  1.6900
 3471TIP3    H231905   1.509   2.968   3.596 -1.0018  2.1270 -2.6247
 3472TIP3   OH231906   2.319   6.800   2.605 -0.4381  0.8581  0.1929
 3472TIP3    H131907   2.385   6.829   2.542 -0.6593 -0.1082 -0.4887
 3472TIP3    H231908   2.247   6.862   2.595  0.2899  1.8436  0.8496
 3473TIP3   OH231909   3.412   4.588   2.236  0.2226  0.4243 -0.2079
 3473TIP3    H131910   3.461   4.635   2.304  2.2557 -0.8256 -0.7412
 3473TIP3    H231911   3.475   4.579   2.164 -1.3356  0.1561 -1.5553
 3474TIP3   OH231912   1.991   0.963   0.298  0.3749  0.4061  0.4508
 3474TIP3    H131913   2.080   0.929   0.296  0.1234 -0.2105 -0.9147
 3474TIP3    H231914   1.955   0.940   0.212 -0.1594  3.1577 -0.0951
 3475TIP3   OH231915   6.298   0.202  16.478 -0.4251 -0.7920  0.6641
 3475TIP3    H131916   6.212   0.163  16.458 -1.0466  0.1220  1.5218
 3475TIP3    H231917   6.310   0.188  16.572  0.0293 -0.2682  0.6891
 3476TIP3   OH231918   0.011   0.268  12.519 -0.0884 -0.0563 -0.1058
 3476TIP3    H131919  -0.076   0.270  12.479  0.1154 -1.8101 -0.6819
 3476TIP3    H231920   0.006   0.332  12.590 -1.7834  0.0017 -0.2469
 3477TIP3   OH231921   1.881   2.687  11.151 -0.5806 -0.5567  0.2106
 3477TIP3    H131922   1.822   2.638  11.094 -0.7495  0.1240 -0.2121
 3477TIP3    H231923   1.892   2.771  11.107  0.2608 -0.4737  0.5753
 3478TIP3   OH231924   5.156   3.843  17.032 -0.0493 -0.2153  0.2862
 3478TIP3    H131925   5.107   3.923  17.012  0.5935  0.0380 -0.2813
 3478TIP3    H231926   5.242   3.856  16.991 -0.5344 -1.9406 -1.3542
 3479TIP3   OH231927   1.655   2.744  10.681  0.5753 -0.1949  0.2169
 3479TIP3    H131928   1.585   2.705  10.629  0.6320 -0.1420  0.1000
 3479TIP3    H231929   1.734   2.728  10.630  0.7823 -1.1059  0.8109
 3480TIP3   OH231930   0.462   0.526  12.058 -0.1279 -0.1321  0.2540
 3480TIP3    H131931   0.436   0.518  12.150  0.4891 -0.1643  0.4307
 3480TIP3    H231932   0.478   0.436  12.030  1.7836  0.0164  0.7513
 3481TIP3   OH231933   2.928   3.389   1.801  0.0651  0.7525  0.0869
 3481TIP3    H131934   2.966   3.476   1.790 -0.8659  1.0023 -1.2635
 3481TIP3    H231935   2.945   3.367   1.893  2.0837  1.4994 -0.0803
 3482TIP3   OH231936   2.139   1.293  12.517  0.2347 -0.2603 -0.0887
 3482TIP3    H131937   2.220   1.241  12.516  0.6524  0.4099 -1.6329
 3482TIP3    H231938   2.096   1.272  12.434  0.5122  2.0015 -0.8176
 3483TIP3   OH231939   1.013   5.277  13.372 -0.0222  0.4219  0.4693
 3483TIP3    H131940   0.959   5.204  13.405 -2.2831  1.7603 -0.1318
 3483TIP3    H231941   1.063   5.240  13.300  0.2823 -1.0117  1.4037
 3484TIP3   OH231942   1.036   3.631  13.047  0.1383 -0.2589  0.0338
 3484TIP3    H131943   1.016   3.542  13.019 -1.0154 -0.1413  0.4589
 3484TIP3    H231944   1.102   3.662  12.985 -1.9212 -0.2034 -2.2115
 3485TIP3   OH231945   5.976   5.908  15.678  0.0775  0.0994 -0.2300
 3485TIP3    H131946   6.049   5.876  15.626  0.7894  1.2044  0.0775
 3485TIP3    H231947   5.945   5.986  15.631 -0.4623  0.0370  0.0138
 3486TIP3   OH231948   3.323   4.989   1.685  0.5368  0.2965  0.3198
 3486TIP3    H131949   3.403   4.936   1.692  1.3862  1.6942  1.2563
 3486TIP3    H231950   3.353   5.074   1.654 -0.9208  0.0568 -1.9156
 3487TIP3   OH231951   3.781   4.304   5.864 -0.1720  0.3120  0.4775
 3487TIP3    H131952   3.810   4.318   5.955 -0.9666 -0.9235  0.9321
 3487TIP3    H231953   3.692   4.340   5.862 -1.0705 -1.8308  0.8455
 3488TIP3   OH231954   2.441   0.115  11.119 -0.1881  0.1171 -0.3985
 3488TIP3    H131955   2.523   0.139  11.164  0.5537 -1.2729 -0.9612
 3488TIP3    H231956   2.375   0.115  11.188 -0.0026  2.5729 -0.1740
 3489TIP3   OH231957   2.662   1.520   0.075  0.0385 -0.2661 -0.3662
 3489TIP3    H131958   2.708   1.455   0.021 -0.4575 -0.4332 -0.5888
 3489TIP3    H231959   2.590   1.472   0.115 -0.4370  0.1838 -0.6701
 3490TIP3   OH231960   2.141   4.736  13.610 -0.1677  0.0358 -0.2495
 3490TIP3    H131961   2.065   4.754  13.554  0.2911  0.7649 -0.6544
 3490TIP3    H231962   2.205   4.803  13.585  0.6835 -0.6997 -0.0529
 3491TIP3   OH231963   4.157   6.181  11.230  0.0159 -0.4597 -0.0069
 3491TIP3    H131964   4.242   6.172  11.186 -0.9308  2.0759 -2.5052
 3491TIP3    H231965   4.178   6.227  11.312  1.2150 -0.9372 -0.0302
 3492TIP3   OH231966   3.344   2.845   4.049 -0.1617 -0.5924  0.1374
 3492TIP3    H131967   3.264   2.894   4.031  0.5579  0.2553 -0.7676
 3492TIP3    H231968   3.323   2.795   4.128 -1.9736 -1.2699 -0.7315
 3493TIP3   OH231969   5.535   5.612   1.394  0.0329  0.0393 -0.3170
 3493TIP3    H131970   5.626   5.633   1.414 -0.2601 -1.5183  2.9936
 3493TIP3    H231971   5.491   5.697   1.389  1.3285  0.7233 -0.2222
 3494TIP3   OH231972   4.631   6.465   0.637 -0.7236  0.1697  0.7250
 3494TIP3    H131973   4.587   6.501   0.714  0.0536 -2.2976  2.4131
 3494TIP3    H231974   4.591   6.379   0.625 -0.2270  0.1869 -1.1109
 3495TIP3   OH231975   6.517   1.674  15.943 -0.2165 -0.7288 -0.2092
 3495TIP3    H131976   6.471   1.594  15.918  0.6207 -1.5003  0.6972
 3495TIP3    H231977   6.610   1.650  15.942  0.1311  0.5596 -1.1007
 3496TIP3   OH231978   4.982   0.924  14.818  0.0079  0.1464  0.1950
 3496TIP3    H131979   4.975   0.976  14.898  1.5919  0.2822  0.2556
 3496TIP3    H231980   4.973   0.833  14.847  0.9985  0.1727  0.5809
 3497TIP3   OH231981   6.263   4.247  16.747 -0.2850 -0.0414 -0.2169
 3497TIP3    H131982   6.313   4.194  16.685  1.0121  0.2258  0.5914
 3497TIP3    H231983   6.242   4.327  16.698 -0.2993 -0.3444 -0.7077
 3498TIP3   OH231984   1.473   6.725   0.754 -0.2092 -0.2791 -0.1618
 3498TIP3    H131985   1.495   6.794   0.817 -0.6859 -2.2573  2.2344
 3498TIP3    H231986   1.488   6.765   0.668 -1.0603  3.0054  1.1506
 3499TIP3   OH231987   2.110   3.208   2.714  0.3367  0.3237  0.1291
 3499TIP3    H131988   2.151   3.218   2.628 -1.3875  0.1666 -0.7323
 3499TIP3    H231989   2.021   3.178   2.695 -0.3811  1.2261  1.9211
 3500TIP3   OH231990   1.304   3.620   4.242  0.1417  0.1720  0.1018
 3500TIP3    H131991   1.373   3.631   4.177  1.5914  0.3533  1.6285
 3500TIP3    H231992   1.286   3.526   4.242  1.1763 -0.0283  0.4818
 3501TIP3   OH231993   1.743   1.373  12.589 -0.1460  0.4262 -0.0326
 3501TIP3    H131994   1.684   1.320  12.535  0.2545  2.0619 -2.1365
 3501TIP3    H231995   1.687   1.406  12.660 -1.4699  0.9015 -1.2738
 3502TIP3   OH231996   0.629   3.963  10.762  0.1442 -0.2010 -0.3251
 3502TIP3    H131997   0.593   3.892  10.709 -0.0034 -0.6186  0.3249
 3502TIP3    H231998   0.635   3.926  10.850 -0.5663  0.8140  0.1600
 3503TIP3   OH231999   6.731   2.730  15.193  0.5427  0.0339 -0.1267
 3503TIP3    H132000   6.642   2.734  15.229  0.9845 -1.8109  1.2685
 3503TIP3    H232001   6.767   2.817  15.206 -1.1814  0.8977 -1.0242
 3504TIP3   OH232002   3.389   6.205  15.084  0.4364 -0.4572  0.1901
 3504TIP3    H132003   3.345   6.288  15.105 -0.8575 -1.6080  2.1686
 3504TIP3    H232004   3.322   6.152  15.042  1.5268 -0.1888 -1.9647
 3505TIP3   OH232005   6.751   0.529   3.461  0.4033 -0.1494  0.1833
 3505TIP3    H132006   6.693   0.595   3.423  1.2409  0.0145 -0.8337
 3505TIP3    H232007   6.752   0.458   3.397  0.8744 -0.3932  0.4548
 3506TIP3   OH232008   4.207   2.645   0.906  0.3660 -0.6785  0.2809
 3506TIP3    H132009   4.244   2.684   0.986 -1.6517  0.4115  0.7079
 3506TIP3    H232010   4.127   2.601   0.935  1.1175 -2.7537 -0.6877
 3507TIP3   OH232011   2.638   2.887   2.751 -0.2789 -0.6419  0.4162
 3507TIP3    H132012   2.665   2.797   2.769  2.8629 -0.0670 -1.1758
 3507TIP3    H232013   2.544   2.888   2.772  0.5147 -3.0972  4.7434
 3508TIP3   OH232014   5.978   0.618  14.927  0.3453  0.0272  0.0839
 3508TIP3    H132015   5.912   0.687  14.940 -0.6997 -1.2693  1.8398
 3508TIP3    H232016   6.059   0.655  14.963 -0.1849  0.3609  0.9363
 3509TIP3   OH232017   4.789   5.352   6.132 -0.4460 -0.9316 -0.4899
 3509TIP3    H132018   4.719   5.403   6.172  0.4078  0.4832 -0.7375
 3509TIP3    H232019   4.819   5.292   6.200 -1.8223 -1.4867 -0.3604
 3510TIP3   OH232020   0.845   4.899  15.365 -0.5440  0.0762 -0.2315
 3510TIP3    H132021   0.847   4.990  15.394 -0.2274 -0.2170  0.7208
 3510TIP3    H232022   0.785   4.897  15.291 -0.5676  1.0546 -0.2347
 3511TIP3   OH232023   4.501   2.466   6.428 -0.2499  0.1146 -0.1793
 3511TIP3    H132024   4.560   2.540   6.412  1.2514 -0.8890  0.5419
 3511TIP3    H232025   4.545   2.392   6.387  1.2365 -1.5153  4.0622
 3512TIP3   OH232026   5.789   3.637   1.319 -0.0740  0.5188  0.5317
 3512TIP3    H132027   5.717   3.700   1.328 -0.4737  0.2324 -0.5359
 3512TIP3    H232028   5.773   3.572   1.388 -0.8446  0.4573  0.3014
 3513TIP3   OH232029   4.917   3.041  11.259  0.0517 -0.1742 -0.1646
 3513TIP3    H132030   4.890   3.123  11.301  2.6931 -0.2692  1.8288
 3513TIP3    H232031   4.962   3.069  11.179  0.1376  0.2871  0.0415
 3514TIP3   OH232032   4.037   1.848   4.993  0.5017 -0.4426 -0.2598
 3514TIP3    H132033   4.126   1.827   4.966  0.5501 -0.1683 -0.3112
 3514TIP3    H232034   3.984   1.832   4.914  0.5943  0.0194 -0.4186
 3515TIP3   OH232035   5.196   0.831  13.200 -0.6220 -0.0689 -0.7242
 3515TIP3    H132036   5.175   0.822  13.107  1.4773  1.7827 -1.4212
 3515TIP3    H232037   5.291   0.842  13.202 -0.4671 -1.4929  1.7785
 3516TIP3   OH232038   6.366   5.761   2.343  0.0392  0.5790  0.6265
 3516TIP3    H132039   6.298   5.750   2.277  0.4722 -1.1700  0.4314
 3516TIP3    H232040   6.434   5.812   2.299 -0.1535  0.3671  0.0717
 3517TIP3   OH232041   4.576   4.515  15.307 -0.6216 -0.1289  0.7191
 3517TIP3    H132042   4.588   4.533  15.400  0.0766  1.5510  0.3152
 3517TIP3    H232043   4.541   4.597  15.270 -2.1597 -1.1925 -0.2686
 3518TIP3   OH232044   2.762   6.062   5.962 -0.6240  0.2927 -0.2261
 3518TIP3    H132045   2.730   6.131   6.020  0.7732  0.5285  0.2830
 3518TIP3    H232046   2.758   6.100   5.874  3.5216  2.3609  0.3937
 3519TIP3   OH232047   3.264   3.206   5.642 -0.2592 -0.4602 -0.0739
 3519TIP3    H132048   3.303   3.189   5.727  1.0284 -1.0584 -0.7730
 3519TIP3    H232049   3.264   3.122   5.597  0.1992  0.0888 -1.1273
 3520TIP3   OH232050   0.630   3.140  16.348 -0.3899  0.4336 -0.6258
 3520TIP3    H132051   0.587   3.062  16.383  2.7419 -0.6967  0.8825
 3520TIP3    H232052   0.584   3.213  16.390 -1.3566 -0.7057  0.3442
 3521TIP3   OH232053   1.867   3.277  12.729 -0.0168 -0.9240 -0.1325
 3521TIP3    H132054   1.836   3.366  12.711  0.8289 -0.7427 -0.6997
 3521TIP3    H232055   1.810   3.221  12.676 -0.0044 -0.6572 -0.4333
 3522TIP3   OH232056   5.798   0.875  11.952  0.2907 -0.2284 -0.4900
 3522TIP3    H132057   5.815   0.799  11.897  0.1792 -0.4371 -0.2413
 3522TIP3    H232058   5.786   0.947  11.891 -0.9444 -0.6717 -0.8043
 3523TIP3   OH232059   6.619   0.257  12.339 -0.1910 -0.0315  0.1875
 3523TIP3    H132060   6.559   0.183  12.327  0.9850 -1.1224  0.9895
 3523TIP3    H232061   6.561   0.332  12.356 -1.4210 -0.6050 -1.3516
 3524TIP3   OH232062   0.165   4.390   5.336 -0.2210  0.5889  0.6111
 3524TIP3    H132063   0.247   4.435   5.358 -0.5851  1.1903  0.7558
 3524TIP3    H232064   0.182   4.352   5.249  0.5067 -0.0407  1.0194
 3525TIP3   OH232065   6.323   6.281   4.630 -0.8791 -0.0842 -0.3561
 3525TIP3    H132066   6.292   6.307   4.716  0.4671 -2.2207  0.8257
 3525TIP3    H232067   6.271   6.204   4.608 -0.8967  0.1736 -1.2545
 3526TIP3   OH232068   0.798   0.103   3.534 -0.3637 -0.2179  0.3516
 3526TIP3    H132069   0.818   0.078   3.624  0.4404 -0.0704  0.2126
 3526TIP3    H232070   0.717   0.055   3.514  0.1303 -1.2301  0.7327
 3527TIP3   OH232071   4.009   0.025   0.481  0.1983  0.0477 -0.4292
 3527TIP3    H132072   3.937   0.086   0.464  0.2695  0.3289  0.2640
 3527TIP3    H232073   3.965  -0.059   0.498  0.0413  0.1712 -0.2225
 3528TIP3   OH232074   1.388   0.599   3.905 -0.6042 -0.1093  0.0053
 3528TIP3    H132075   1.394   0.610   3.810 -0.4640  1.3465  0.1637
 3528TIP3    H232076   1.474   0.567   3.931  0.9664  4.0035  0.1829
 3529TIP3   OH232077   4.014   2.543   1.990  0.5629  0.2491 -0.0320
 3529TIP3    H132078   4.032   2.637   1.994  1.7953  0.0234 -0.1536
 3529TIP3    H232079   4.088   2.503   2.036  0.2475 -0.6801 -0.3370
 3530TIP3   OH232080   0.105   3.433   3.876 -0.4109  0.2625 -0.2261
 3530TIP3    H132081   0.046   3.485   3.931  0.7378 -0.0125  1.3200
 3530TIP3    H232082   0.047   3.380   3.821 -1.5960  2.9358 -1.6355
 3531TIP3   OH232083   5.139   5.982   1.858 -0.1617  0.2650  0.0494
 3531TIP3    H132084   5.189   5.998   1.778  1.9028 -0.0350  1.2402
 3531TIP3    H232085   5.102   6.068   1.880  1.1802  0.8589  0.0250
 3532TIP3   OH232086   5.165   3.215  17.278 -0.1018  0.2944  0.5253
 3532TIP3    H132087   5.106   3.239  17.349 -0.0796  0.9820  0.3239
 3532TIP3    H232088   5.122   3.141  17.235 -1.3417  1.4102 -0.2340
 3533TIP3   OH232089   6.209   4.059  16.326 -0.3240  0.0184 -0.7072
 3533TIP3    H132090   6.231   3.968  16.304 -1.1227 -0.0256 -1.3307
 3533TIP3    H232091   6.293   4.105  16.319  0.3817 -0.9445  1.1034
 3534TIP3   OH232092   6.486   5.804   2.579  0.2416 -0.0262  0.1845
 3534TIP3    H132093   6.428   5.779   2.508  1.1785 -0.3790 -0.4718
 3534TIP3    H232094   6.428   5.835   2.649 -0.5834  2.3258 -1.4963
 3535TIP3   OH232095   2.767   0.397   5.873 -0.4636  0.2864  0.5250
 3535TIP3    H132096   2.803   0.351   5.949  1.3853  1.5632  0.4667
 3535TIP3    H232097   2.829   0.377   5.803 -1.1823  0.5909 -0.1975
 3536TIP3   OH232098   2.642   5.461   6.278 -0.3154 -0.3804 -0.1857
 3536TIP3    H132099   2.566   5.405   6.281 -0.5600  0.0086  0.9471
 3536TIP3    H232100   2.643   5.507   6.362  1.3268 -0.5960 -0.0617
 3537TIP3   OH232101   3.949   1.009   4.127 -0.3123  0.2016  0.3819
 3537TIP3    H132102   4.031   0.982   4.168  0.8612 -0.0458 -2.0839
 3537TIP3    H232103   3.972   1.027   4.036 -3.2221 -1.0709 -0.6586
 3538TIP3   OH232104   2.391   4.364  13.184 -0.3692  0.1763  0.5671
 3538TIP3    H132105   2.295   4.370  13.185 -0.2373  3.4366 -0.0250
 3538TIP3    H232106   2.420   4.444  13.228  2.1153 -0.5245  0.2670
 3539TIP3   OH232107   2.294   5.137  16.160 -0.1571 -0.3547  0.2169
 3539TIP3    H132108   2.315   5.159  16.070 -1.9735  0.2457 -0.0882
 3539TIP3    H232109   2.282   5.042  16.160  1.8011 -0.6249  0.2679
 3540TIP3   OH232110   0.645   5.936   2.587  0.1626  0.0563  0.1908
 3540TIP3    H132111   0.650   5.857   2.534  1.3202 -0.2065  0.6854
 3540TIP3    H232112   0.641   5.905   2.677  2.7286  0.5783  0.5227
 3541TIP3   OH232113   5.127   6.204  17.152 -1.0613  0.8788  0.2048
 3541TIP3    H132114   5.096   6.116  17.129  1.8957  0.1800 -1.2924
 3541TIP3    H232115   5.153   6.242  17.068 -0.2940  2.3885  1.1216
 3542TIP3   OH232116   0.041   1.280   2.780  0.4732  0.1824 -0.4695
 3542TIP3    H132117   0.023   1.303   2.871  1.8308 -0.7857  0.0697
 3542TIP3    H232118   0.122   1.326   2.759 -0.6802  1.6728 -1.7113
 3543TIP3   OH232119   3.162   3.021  11.171  0.2481  0.6657  0.0609
 3543TIP3    H132120   3.224   3.022  11.098 -0.1813  0.3134 -0.3021
 3543TIP3    H232121   3.137   2.929  11.181  2.0361  0.3432  2.1040
 3544TIP3   OH232122   6.168   2.100  13.546 -0.2872 -0.2775 -0.0365
 3544TIP3    H132123   6.218   2.027  13.582 -1.8342 -1.5244 -0.3578
 3544TIP3    H232124   6.171   2.086  13.451  1.5673  1.5387 -0.2904
 3545TIP3   OH232125   6.810   4.235   0.346 -0.1195 -0.7659 -0.2744
 3545TIP3    H132126   6.857   4.156   0.370  1.1293 -0.0737 -0.3780
 3545TIP3    H232127   6.741   4.243   0.412 -0.6920 -2.2957 -0.6658
 3546TIP3   OH232128   5.906   4.639  12.892  0.2928  0.0280 -0.5335
 3546TIP3    H132129   5.998   4.655  12.912  0.6722 -0.7459 -1.6390
 3546TIP3    H232130   5.882   4.564  12.945  0.7243 -0.7281 -1.4055
 3547TIP3   OH232131   5.879   4.944  10.381  0.2058 -0.2080 -0.0643
 3547TIP3    H132132   5.853   4.951  10.289 -1.3361  3.3491  0.5896
 3547TIP3    H232133   5.808   4.986  10.429  1.8791 -0.4065  2.6406
 3548TIP3   OH232134   1.261   6.655   5.807 -0.7640  0.2723 -0.3293
 3548TIP3    H132135   1.312   6.608   5.741 -1.2207 -0.1263 -0.4037
 3548TIP3    H232136   1.186   6.598   5.824 -0.0728 -0.1666  1.3652
 3549TIP3   OH232137   6.768   6.380   6.587  0.6624 -0.0528 -0.1649
 3549TIP3    H132138   6.746   6.463   6.543  0.5031 -0.4555 -0.8550
 3549TIP3    H232139   6.789   6.406   6.676 -0.3907  0.6215 -0.0939
 3550TIP3   OH232140   4.856   3.071   1.543  0.5261 -0.3714  0.2652
 3550TIP3    H132141   4.824   3.013   1.612 -0.7976 -1.3891 -1.1797
 3550TIP3    H232142   4.798   3.055   1.469  2.2864  0.2503 -1.2985
 3551TIP3   OH232143   4.645   4.506   1.272  0.2487  0.3010 -0.2158
 3551TIP3    H132144   4.558   4.512   1.233 -0.2162 -2.4410  0.2984
 3551TIP3    H232145   4.652   4.415   1.301  2.2650  1.1498  2.1391
 3552TIP3   OH232146   1.165   0.003  14.093 -0.2988 -0.3873  0.0416
 3552TIP3    H132147   1.226   0.056  14.144 -1.3722  0.1136  0.7960
 3552TIP3    H232148   1.085   0.055  14.088 -0.5614 -0.8955 -1.2360
 3553TIP3   OH232149   4.203   5.772   2.500 -0.6195 -0.0460 -0.6902
 3553TIP3    H132150   4.156   5.749   2.579  1.0183 -3.5131 -0.6470
 3553TIP3    H232151   4.271   5.833   2.529 -0.9534 -0.1396  0.2872
 3554TIP3   OH232152   4.120   2.187  11.552  0.1003  0.2712 -0.3724
 3554TIP3    H132153   4.118   2.102  11.507  0.2117  0.5114 -0.8336
 3554TIP3    H232154   4.153   2.166  11.639 -1.0516 -0.3363 -0.0784
 3555TIP3   OH232155   1.638   4.109   1.509  0.2122 -0.1724 -0.3781
 3555TIP3    H132156   1.616   4.110   1.602 -1.2153  2.5660 -0.6621
 3555TIP3    H232157   1.731   4.131   1.505  0.7497 -2.2690  0.4723
 3556TIP3   OH232158   2.035   2.368  15.258 -0.3565 -0.5037 -0.3190
 3556TIP3    H132159   1.988   2.323  15.329 -0.4150  0.3483  0.1929
 3556TIP3    H232160   1.995   2.334  15.178 -2.0427  0.3895  0.1168
 3557TIP3   OH232161   4.580   4.078   5.806 -0.3837 -0.0861 -0.8821
 3557TIP3    H132162   4.606   4.115   5.721 -0.3469 -0.1477 -0.8972
 3557TIP3    H232163   4.662   4.059   5.851 -0.3843  2.2166  0.1680
 3558TIP3   OH232164   5.205   6.357   5.143  0.1642 -0.1710  0.4969
 3558TIP3    H132165   5.234   6.373   5.053 -0.0072  0.6531  0.5845
 3558TIP3    H232166   5.211   6.262   5.153 -2.5717 -0.6000 -1.3093
 3559TIP3   OH232167   5.297   4.785   4.780 -0.1552  0.2421  0.2001
 3559TIP3    H132168   5.212   4.826   4.791  0.0169  0.3060  1.2967
 3559TIP3    H232169   5.336   4.785   4.867  0.7876 -0.1830 -0.2100
 3560TIP3   OH232170   4.228   5.188   0.313 -0.1239  1.0526 -0.3905
 3560TIP3    H132171   4.276   5.189   0.231  0.8145 -0.9242  0.1208
 3560TIP3    H232172   4.290   5.222   0.378  0.4856 -1.1647  0.2071
 3561TIP3   OH232173   2.455   3.162  11.097  0.8226 -0.4872 -0.3229
 3561TIP3    H132174   2.505   3.165  11.015  1.6977 -1.0270  0.1731
 3561TIP3    H232175   2.402   3.241  11.096 -0.4936 -1.3581 -2.2341
 3562TIP3   OH232176   5.108   4.572  16.316  0.8232 -0.9388 -0.6432
 3562TIP3    H132177   5.086   4.665  16.310 -1.5017 -1.5324 -1.7926
 3562TIP3    H232178   5.030   4.531  16.352  1.3471 -2.6205 -1.3928
 3563TIP3   OH232179   0.569   4.713   4.619  0.1842 -0.7296  0.9049
 3563TIP3    H132180   0.656   4.723   4.580  0.0264 -0.0459  0.7211
 3563TIP3    H232181   0.566   4.779   4.688 -1.1326  1.0375 -0.7821
 3564TIP3   OH232182   6.573   1.271  15.125  0.5582  0.0296  0.3407
 3564TIP3    H132183   6.519   1.293  15.049  0.9451 -0.9041 -0.2217
 3564TIP3    H232184   6.630   1.348  15.137 -1.7018  1.5441  1.7168
 3565TIP3   OH232185   3.077   5.137   1.069  0.9014  0.3221  0.1112
 3565TIP3    H132186   3.103   5.095   0.987 -1.6616 -1.6304  0.2112
 3565TIP3    H232187   3.059   5.063   1.128  0.0722  1.6478  1.5357
 3566TIP3   OH232188   1.892   0.104  12.970  0.1451  0.3188  0.1430
 3566TIP3    H132189   1.816   0.116  12.914 -2.0422 -0.5950  2.8283
 3566TIP3    H232190   1.931   0.022  12.940 -0.2247  0.5094 -0.8807
 3567TIP3   OH232191   3.740   2.309   4.616  0.0536  0.0161 -0.2637
 3567TIP3    H132192   3.787   2.388   4.640  0.3652  0.4441 -2.2351
 3567TIP3    H232193   3.717   2.268   4.700  1.6499  1.1354  0.7297
 3568TIP3   OH232194   4.937   1.845  10.845 -0.4684 -0.0537 -0.4417
 3568TIP3    H132195   4.949   1.935  10.814 -0.5161 -0.0477 -0.4441
 3568TIP3    H232196   4.904   1.798  10.768  0.2749 -0.2445 -0.6461
 3569TIP3   OH232197   0.602   2.257  12.736 -0.0476 -0.1326 -0.0007
 3569TIP3    H132198   0.595   2.240  12.642 -2.3230 -0.0513  0.1314
 3569TIP3    H232199   0.672   2.198  12.765 -1.7249 -2.7719 -1.1418
 3570TIP3   OH232200   6.253   4.471   2.033  0.1745 -0.1461  0.2714
 3570TIP3    H132201   6.292   4.556   2.013  1.4257 -0.7025  0.3307
 3570TIP3    H232202   6.164   4.493   2.063  0.6343  1.1806  0.7351
 3571TIP3   OH232203   5.282   1.301   1.406 -0.3909  0.2083 -0.1753
 3571TIP3    H132204   5.325   1.352   1.476 -0.2761  1.1699 -0.9315
 3571TIP3    H232205   5.231   1.235   1.453 -0.7271  1.1639  0.8410
 3572TIP3   OH232206   2.504   4.781  15.642  0.0786 -0.4556 -0.5001
 3572TIP3    H132207   2.593   4.747  15.630  0.4907 -0.1173  1.4205
 3572TIP3    H232208   2.515   4.876  15.639 -0.5034 -0.4323 -2.1034
 3573TIP3   OH232209   2.418   0.356   3.146  0.3571 -0.6544  0.3057
 3573TIP3    H132210   2.403   0.410   3.068  1.8475  0.0476  0.4952
 3573TIP3    H232211   2.356   0.390   3.211 -0.6772 -1.0433 -0.4610
 3574TIP3   OH232212   2.952   1.319  14.149 -0.0517  0.3850  0.3357
 3574TIP3    H132213   2.989   1.260  14.214  0.4535  1.0064  0.6100
 3574TIP3    H232214   2.968   1.275  14.065  0.8811  0.4348  0.4915
 3575TIP3   OH232215   4.932   2.283  13.207  0.7194  0.1334 -0.1073
 3575TIP3    H132216   4.938   2.367  13.160 -2.1171  0.2003 -0.4752
 3575TIP3    H232217   4.872   2.301  13.280  0.3667 -1.4813  0.0128
 3576TIP3   OH232218   1.626   2.930   5.588  0.5117  0.6303  0.6666
 3576TIP3    H132219   1.629   3.009   5.641  1.4928  1.3986 -0.5010
 3576TIP3    H232220   1.718   2.911   5.567  0.7124 -3.0250  4.0752
 3577TIP3   OH232221   0.347   5.997   0.206  0.5293  0.0900 -0.0707
 3577TIP3    H132222   0.363   5.905   0.184 -0.1560 -0.4910  1.7424
 3577TIP3    H232223   0.319   6.037   0.124 -0.0426 -1.5225 -0.6807
 3578TIP3   OH232224   5.826   1.032   2.336 -0.1782 -0.8303  0.1544
 3578TIP3    H132225   5.859   1.019   2.425  1.3535  3.6816  0.3843
 3578TIP3    H232226   5.872   0.965   2.284 -0.4790 -2.9944  2.5644
 3579TIP3   OH232227   2.801   1.159   2.022 -0.3349 -0.3717  0.2863
 3579TIP3    H132228   2.828   1.116   2.103  1.8794 -1.0651 -0.7869
 3579TIP3    H232229   2.809   1.253   2.040  1.2153 -0.5372  0.5423
 3580TIP3   OH232230   4.057   3.151  11.315  0.0249 -0.0937  0.7590
 3580TIP3    H132231   4.016   3.070  11.285 -0.1292 -0.1555  1.1339
 3580TIP3    H232232   4.079   3.198  11.234  0.3502 -0.6231  0.5389
 3581TIP3   OH232233   4.779   3.046   3.740 -0.8912  0.5258 -0.2440
 3581TIP3    H132234   4.868   3.073   3.759 -0.4885 -0.8600 -0.1407
 3581TIP3    H232235   4.749   3.002   3.820 -1.0619 -0.5248 -0.8758
 3582TIP3   OH232236   6.240   5.871  11.232  0.2993 -0.0675 -0.5288
 3582TIP3    H132237   6.235   5.868  11.137 -1.8836 -1.6296 -0.3990
 3582TIP3    H232238   6.158   5.911  11.260  0.8387  0.2185  0.7140
 3583TIP3   OH232239   1.964   1.939   2.915 -0.2799 -0.0568  0.2127
 3583TIP3    H132240   1.901   1.905   2.851  0.3939  1.2988 -1.2245
 3583TIP3    H232241   1.928   1.914   3.000 -1.6469 -1.1521 -0.6624
 3584TIP3   OH232242   5.726   4.424  17.028 -0.5418 -0.1284 -0.3032
 3584TIP3    H132243   5.783   4.351  17.052  1.4636  2.0780  1.9009
 3584TIP3    H232244   5.642   4.403  17.069 -0.6479 -2.2273 -1.5305
 3585TIP3   OH232245   2.944   5.567  13.684 -0.1568  0.4361 -0.3521
 3585TIP3    H132246   3.021   5.532  13.729 -0.1449  0.0749 -0.6454
 3585TIP3    H232247   2.949   5.662  13.697 -0.4611  0.2933  0.8835
 3586TIP3   OH232248   0.397   2.623  14.501 -0.0083 -0.4090  0.3683
 3586TIP3    H132249   0.379   2.623  14.407  0.2686 -1.5065  0.3068
 3586TIP3    H232250   0.489   2.650  14.509 -0.2381  0.3747  0.3710
 3587TIP3   OH232251   0.886   1.949   1.683 -0.7641  0.0112  0.3736
 3587TIP3    H132252   0.904   1.987   1.597 -0.4859  0.6921  0.7211
 3587TIP3    H232253   0.967   1.903   1.705 -0.6857  0.1817  0.4454
 3588TIP3   OH232254   4.837   4.495   1.640  0.0193  0.0376  0.5014
 3588TIP3    H132255   4.765   4.434   1.654 -0.8383  1.1178  0.8271
 3588TIP3    H232256   4.869   4.514   1.728  0.2955  0.0639  0.3965
 3589TIP3   OH232257   5.485   5.505  16.292 -0.3914  0.0142  0.0159
 3589TIP3    H132258   5.464   5.532  16.382 -0.7991  0.3482 -0.1750
 3589TIP3    H232259   5.485   5.410  16.295 -1.1275  0.0150  0.2103
 3590TIP3   OH232260   3.176   5.344   4.830 -0.0648  0.2748  0.2916
 3590TIP3    H132261   3.112   5.289   4.875 -0.7260  0.8016 -0.0040
 3590TIP3    H232262   3.220   5.285   4.768 -0.1672 -0.1158  0.5958
 3591TIP3   OH232263   4.790   5.056  15.796  0.2100  0.4868  0.2962
 3591TIP3    H132264   4.800   4.968  15.831  0.4711  0.8547  1.1927
 3591TIP3    H232265   4.828   5.113  15.864 -0.6799  1.3376  0.1026
 3592TIP3   OH232266   2.263   3.999   6.445 -0.0488  0.7514  0.0234
 3592TIP3    H132267   2.207   3.950   6.505 -0.3100  0.6336 -0.3153
 3592TIP3    H232268   2.204   4.057   6.398 -0.0589 -0.1412 -1.1000
 3593TIP3   OH232269   4.994   3.781   3.975  0.4728 -0.3831 -0.3744
 3593TIP3    H132270   4.989   3.875   3.957  1.0652  0.3471  2.9696
 3593TIP3    H232271   4.913   3.761   4.021 -0.2267 -1.8036 -2.1848
 3594TIP3   OH232272   2.305   2.790   0.000 -0.3740  0.6689  1.0381
 3594TIP3    H132273   2.214   2.777  -0.027  0.4971  0.2549 -1.7553
 3594TIP3    H232274   2.320   2.884  -0.010 -0.0100  0.4955 -0.0924
 3595TIP3   OH232275   2.652   3.536  16.257  0.0859  0.3524  0.7294
 3595TIP3    H132276   2.576   3.479  16.249 -0.8599  1.7840 -0.6590
 3595TIP3    H232277   2.726   3.480  16.232 -0.8440 -0.2207 -0.8043
 3596TIP3   OH232278   1.295   5.344  15.497 -0.4739  0.5815 -0.1989
 3596TIP3    H132279   1.243   5.273  15.533 -1.3939 -0.1134 -2.8404
 3596TIP3    H232280   1.231   5.406  15.462  0.3943  1.0077 -1.0652
 3597TIP3   OH232281   5.928   2.280  13.583 -0.0509  0.3054  0.4280
 3597TIP3    H132282   5.972   2.202  13.549 -0.9703 -0.2226  0.4412
 3597TIP3    H232283   5.912   2.260  13.676 -0.4608  0.4238  0.3844
 3598TIP3   OH232284   5.537   1.984  14.487  0.0733 -0.2269 -0.1765
 3598TIP3    H132285   5.529   1.898  14.445  0.3085 -0.2764 -0.1159
 3598TIP3    H232286   5.475   2.039  14.439  1.3245  0.0671 -1.4955
 3599TIP3   OH232287   6.166   0.161  15.888 -0.2798 -0.5842 -0.3519
 3599TIP3    H132288   6.258   0.134  15.882  0.4079  1.9769 -1.9834
 3599TIP3    H232289   6.139   0.176  15.797 -1.2647  1.9607  0.3107
 3600TIP3   OH232290   4.794   1.017  15.309 -0.1105 -0.4142 -0.5702
 3600TIP3    H132291   4.746   1.060  15.238  0.2351 -1.1158 -1.2342
 3600TIP3    H232292   4.726   0.974  15.361 -0.2007 -1.7059 -1.7115
 3601TIP3   OH232293   6.392   0.164  11.446 -0.2056  0.0290  0.0812
 3601TIP3    H132294   6.460   0.121  11.394 -0.1532  1.1384 -0.7814
 3601TIP3    H232295   6.441   0.209  11.516 -0.2486 -1.1295  0.8876
 3602TIP3   OH232296   1.084   0.204  13.531 -0.2138  0.5087  0.5759
 3602TIP3    H132297   1.054   0.247  13.611  0.8120  2.0139  0.1655
 3602TIP3    H232298   1.056   0.263  13.461  2.5864  1.3388  0.1069
 3603TIP3   OH232299   4.462   5.368   2.536  0.3400 -0.4680 -0.1453
 3603TIP3    H132300   4.367   5.368   2.547  0.3789 -1.2445  0.1863
 3603TIP3    H232301   4.477   5.335   2.447  0.2671  0.5421 -0.5456
 3604TIP3   OH232302   0.476   2.156   4.298  0.1517 -0.2552 -0.1074
 3604TIP3    H132303   0.453   2.204   4.378 -0.6342  0.2595 -0.6268
 3604TIP3    H232304   0.553   2.105   4.321 -2.9006 -3.9719  2.4452
 3605TIP3   OH232305   3.183   2.904  15.338 -0.2137  0.0372 -0.3335
 3605TIP3    H132306   3.133   2.920  15.418 -1.2396 -3.1756 -0.2424
 3605TIP3    H232307   3.274   2.912  15.365 -0.5650 -0.4368  1.0454
 3606TIP3   OH232308   5.298   3.318  14.831  0.2409 -0.7178 -0.7627
 3606TIP3    H132309   5.297   3.256  14.758  0.3738 -0.5470 -0.9073
 3606TIP3    H232310   5.206   3.325  14.857  0.1728 -0.6461 -1.0229
 3607TIP3   OH232311   4.533   0.731  16.540  1.0815  0.5994 -0.0888
 3607TIP3    H132312   4.608   0.780  16.574  1.8019  0.2491 -1.1473
 3607TIP3    H232313   4.472   0.798  16.510  1.2484  0.8741  0.1860
 3608TIP3   OH232314   2.413   3.023   5.810 -0.1380 -0.2070 -0.9895
 3608TIP3    H132315   2.363   2.945   5.835 -0.9626 -0.0481 -2.1043
 3608TIP3    H232316   2.427   3.070   5.892 -0.2347 -1.1691 -0.4054
 3609TIP3   OH232317   5.021   2.752   1.573  0.0250 -0.0863  0.2968
 3609TIP3    H132318   5.095   2.706   1.533  0.8586  1.3678  0.1032
 3609TIP3    H232319   5.061   2.808   1.639 -1.1198 -0.7469  1.5598
 3610TIP3   OH232320   0.870   0.632   2.472  0.5398  0.1591  0.0614
 3610TIP3    H132321   0.797   0.584   2.512 -1.0025  0.9181 -1.7498
 3610TIP3    H232322   0.827   0.705   2.425  2.5414  1.1591 -0.2578
 3611TIP3   OH232323   2.248   2.116   2.081  0.1134  0.5534  0.0451
 3611TIP3    H132324   2.251   2.021   2.065 -0.8599  0.9371 -2.5522
 3611TIP3    H232325   2.217   2.123   2.171 -0.4133 -1.5920  0.0622
 3612TIP3   OH232326   6.185   1.587   0.672 -0.1680  0.0229  0.5277
 3612TIP3    H132327   6.229   1.536   0.603 -1.0945  0.1089 -0.1370
 3612TIP3    H232328   6.093   1.585   0.647 -0.7846 -1.4992  2.7555
 3613TIP3   OH232329   3.819   0.834  16.187  0.1822  0.9552 -0.1954
 3613TIP3    H132330   3.798   0.823  16.280  0.0897  0.0595 -0.3177
 3613TIP3    H232331   3.738   0.869  16.148  0.4162  1.9032  0.1703
 3614TIP3   OH232332   1.851   3.881  13.755  0.3781  0.1615 -0.0238
 3614TIP3    H132333   1.809   3.918  13.833 -1.3268 -0.2121 -0.7526
 3614TIP3    H232334   1.911   3.950  13.726 -2.4481  2.2693 -1.1330
 3615TIP3   OH232335   3.431   6.582  13.035 -0.0777  0.0844 -0.1229
 3615TIP3    H132336   3.495   6.539  13.092 -0.9471 -0.7409  0.2631
 3615TIP3    H232337   3.351   6.583  13.088 -0.1662  1.8334 -0.2880
 3616TIP3   OH232338   0.150   3.791   2.123  0.3350  0.0633 -0.1186
 3616TIP3    H132339   0.119   3.806   2.213  1.5969 -0.2872  0.3868
 3616TIP3    H232340   0.153   3.696   2.115  1.8912  0.0900  0.0613
 3617TIP3   OH232341   0.953   6.446   2.688 -0.0264  0.0837  0.5081
 3617TIP3    H132342   0.874   6.438   2.742 -0.7228 -2.0315 -0.7559
 3617TIP3    H232343   0.929   6.511   2.622 -1.7040 -2.3497 -1.4080
 3618TIP3   OH232344   0.887   4.070   1.429  0.0848  0.0352 -0.0092
 3618TIP3    H132345   0.846   3.996   1.384  0.2655  0.9491 -1.7052
 3618TIP3    H232346   0.969   4.034   1.464 -0.7263 -1.0389  0.8556
 3619TIP3   OH232347   4.357   2.970   3.854  0.3283 -0.5962  0.1907
 3619TIP3    H132348   4.368   2.911   3.779  1.4699 -1.1424  0.7710
 3619TIP3    H232349   4.415   2.934   3.921  0.9516  1.1128  0.5938
 3620TIP3   OH232350   4.304   4.280   0.935  0.3692 -0.3850  0.2097
 3620TIP3    H132351   4.333   4.371   0.941  0.6741 -0.4569 -0.1712
 3620TIP3    H232352   4.224   4.284   0.882  0.9500 -0.4630 -0.6726
 3621TIP3   OH232353   0.839   4.138  11.849 -0.1297 -0.2515  0.2278
 3621TIP3    H132354   0.843   4.128  11.754  1.2334  2.6039 -0.0679
 3621TIP3    H232355   0.753   4.102  11.873 -2.1538  2.4284 -2.5678
 3622TIP3   OH232356   3.493   6.014  12.802 -0.3330  0.3160 -0.4794
 3622TIP3    H132357   3.449   6.026  12.718  2.2047 -1.3461 -2.1385
 3622TIP3    H232358   3.560   6.082  12.803  0.3509 -0.3542 -0.3112
 3623TIP3   OH232359   2.197   5.281  11.512 -0.2099 -0.3820 -0.1189
 3623TIP3    H132360   2.139   5.232  11.454 -2.5575  1.0452  0.9395
 3623TIP3    H232361   2.281   5.235  11.508 -0.7669 -1.1932 -3.4078
 3624TIP3   OH232362   3.541   1.759  15.683  0.3921 -0.3275 -0.3327
 3624TIP3    H132363   3.567   1.758  15.775 -0.4022  0.6286 -0.0875
 3624TIP3    H232364   3.461   1.811  15.681  1.3395  1.1354 -1.8041
 3625TIP3   OH232365   4.203   3.545   3.804 -0.6754  0.0539 -0.0578
 3625TIP3    H132366   4.138   3.614   3.785  2.4016  2.8648 -0.7831
 3625TIP3    H232367   4.175   3.508   3.888 -2.3571  2.2766  0.4142
 3626TIP3   OH232368   1.139   4.714  12.509  0.2731  0.4644 -0.0407
 3626TIP3    H132369   1.215   4.757  12.467  0.7305 -0.0891  0.2121
 3626TIP3    H232370   1.064   4.743  12.457  0.9037 -0.7631 -1.7281
 3627TIP3   OH232371   0.628   0.586  15.785  0.5258 -0.2726  0.3373
 3627TIP3    H132372   0.603   0.558  15.697  0.9504  1.6717 -0.4243
 3627TIP3    H232373   0.558   0.646  15.811  1.5981  0.9623  0.3831
 3628TIP3   OH232374   0.401   0.905  11.379 -0.5111 -0.7286 -0.5878
 3628TIP3    H132375   0.411   0.997  11.355  0.5638 -0.5677  0.4633
 3628TIP3    H232376   0.479   0.885  11.430 -1.1522 -1.9948 -0.1013
 3629TIP3   OH232377   1.020   3.892   6.001 -0.1308 -0.7737  0.1075
 3629TIP3    H132378   1.010   3.981   6.035 -0.1902 -0.1026 -1.6430
 3629TIP3    H232379   0.997   3.836   6.075  0.3110  0.6528  1.3602
 3630TIP3   OH232380   5.413   6.369  15.093  0.0673  0.0827  0.3801
 3630TIP3    H132381   5.417   6.331  15.005 -0.3435  0.1815  0.3210
 3630TIP3    H232382   5.497   6.415  15.102 -0.5674  1.4627 -0.5877
 3631TIP3   OH232383   1.494   4.533   2.843  0.1564 -0.1121 -0.0628
 3631TIP3    H132384   1.555   4.553   2.772 -0.0764 -0.5665 -0.3986
 3631TIP3    H232385   1.533   4.458   2.887 -0.4938 -0.8379 -0.7023
 3632TIP3   OH232386   1.454   0.302  13.021 -0.4712 -0.8877 -0.1464
 3632TIP3    H132387   1.372   0.352  13.026 -0.9355 -1.4637 -1.4876
 3632TIP3    H232388   1.471   0.274  13.111 -0.4095  1.3150  0.5672
 3633TIP3   OH232389   2.556   5.697   5.689  0.4478 -0.3980  0.1260
 3633TIP3    H132390   2.624   5.674   5.626 -0.2849  1.5314 -1.4180
 3633TIP3    H232391   2.604   5.733   5.764  1.2461 -1.5985  0.2222
 3634TIP3   OH232392   2.257   5.981  12.103 -0.5478  0.9133  0.2407
 3634TIP3    H132393   2.342   5.981  12.058 -0.7629 -1.1397 -0.2324
 3634TIP3    H232394   2.252   6.066  12.146  3.2327 -0.1760  3.0591
 3635TIP3   OH232395   4.624   4.637   0.360 -0.3446 -0.0412 -0.2216
 3635TIP3    H132396   4.671   4.640   0.276  1.5731  1.2120  0.8633
 3635TIP3    H232397   4.564   4.563   0.351 -0.8850  0.6896 -3.0558
 3636TIP3   OH232398   5.261   5.098  12.074 -0.2539 -0.3092 -0.0561
 3636TIP3    H132399   5.169   5.126  12.073 -0.0707  0.2747 -0.9550
 3636TIP3    H232400   5.261   5.016  12.025 -0.5393 -1.1014  1.2536
 3637TIP3   OH232401   0.843   0.674  15.235  0.0591  0.2472 -0.4983
 3637TIP3    H132402   0.803   0.645  15.153 -0.0663 -0.1167 -0.3070
 3637TIP3    H232403   0.936   0.655  15.223  0.4214  2.4211 -1.5299
 3638TIP3   OH232404   1.138   2.371  11.581  1.0718 -0.4796  0.9542
 3638TIP3    H132405   1.115   2.286  11.618 -0.8500 -0.5371 -0.3186
 3638TIP3    H232406   1.102   2.435  11.642  2.5300 -0.5572  1.9202
 3639TIP3   OH232407   0.959   3.304   4.571 -0.0322  0.9367 -0.8970
 3639TIP3    H132408   0.898   3.245   4.527  2.6210 -2.2831 -0.4209
 3639TIP3    H232409   1.033   3.310   4.511  1.3664  0.7264  0.8034
 3640TIP3   OH232410   4.155   2.654   1.189  0.1563  0.1660  0.6234
 3640TIP3    H132411   4.083   2.634   1.248  1.0278 -0.3349  1.5271
 3640TIP3    H232412   4.234   2.627   1.236  1.0048  1.4465 -0.0179
 3641TIP3   OH232413   6.679   6.152  14.767  0.1488  0.1178 -0.1129
 3641TIP3    H132414   6.607   6.212  14.784  0.9997  1.2352 -0.4211
 3641TIP3    H232415   6.652   6.070  14.808 -0.9495  0.7489  0.4402
 3642TIP3   OH232416   1.020   5.494   5.018  0.1860  0.0837 -0.4083
 3642TIP3    H132417   0.994   5.539   4.938 -1.2986  0.9375  0.5272
 3642TIP3    H232418   1.115   5.505   5.022  0.3766 -0.5911 -2.4038
 3643TIP3   OH232419   5.729   4.251  16.700  0.3053 -0.3102  0.1126
 3643TIP3    H132420   5.659   4.212  16.647  0.0704 -0.7423  0.7362
 3643TIP3    H232421   5.701   4.341  16.715 -0.5327 -0.7239  1.0802
 3644TIP3   OH232422   2.579   5.444  13.691 -0.1395 -0.1168 -0.6392
 3644TIP3    H132423   2.603   5.417  13.602  3.1919 -0.3495  0.2527
 3644TIP3    H232424   2.569   5.362  13.739 -1.1930  0.0268 -0.6038
 3645TIP3   OH232425   6.519   4.865  13.401  0.2289  0.4980  0.4762
 3645TIP3    H132426   6.583   4.935  13.395  1.5102 -0.4572  2.4253
 3645TIP3    H232427   6.545   4.803  13.333  0.8411  0.5275  0.6850
 3646TIP3   OH232428   0.409   3.444  13.373 -0.2861 -0.5739 -0.0696
 3646TIP3    H132429   0.424   3.371  13.433  3.3700 -0.4564 -0.7481
 3646TIP3    H232430   0.405   3.521  13.430 -0.2171 -0.8593  0.3242
 3647TIP3   OH232431   0.123   0.968   1.058 -0.7428  0.4267 -0.2057
 3647TIP3    H132432   0.163   1.048   1.092 -0.3209  0.8103 -1.5783
 3647TIP3    H232433   0.193   0.926   1.007 -0.3075 -1.8873  2.1817
 3648TIP3   OH232434   3.571   3.177   4.164  0.4295  0.1920 -0.5034
 3648TIP3    H132435   3.500   3.208   4.109  0.6555  0.7092 -0.5092
 3648TIP3    H232436   3.539   3.188   4.254  0.4784  0.3653 -0.5074
 3649TIP3   OH232437   2.028   2.907   3.141  0.3660  0.1377 -0.1601
 3649TIP3    H132438   1.977   2.987   3.156  0.5148  0.7701 -2.7628
 3649TIP3    H232439   2.065   2.919   3.053  2.6331 -1.5885  0.5196
 3650TIP3   OH232440   0.386   4.508   0.649  0.0145 -0.1783  0.0192
 3650TIP3    H132441   0.389   4.447   0.576  0.2587 -0.2724  0.1077
 3650TIP3    H232442   0.451   4.475   0.711  1.2697  1.0578 -0.6225
 3651TIP3   OH232443   4.854   1.296  13.127 -0.7077  0.4518  0.1332
 3651TIP3    H132444   4.837   1.348  13.206 -1.8023  1.3647 -0.6930
 3651TIP3    H232445   4.932   1.245  13.149 -0.0899  1.8453  1.2434
 3652TIP3   OH232446   5.106   5.521   4.304  0.0090 -0.2463  0.1593
 3652TIP3    H132447   5.134   5.430   4.308  0.6235 -0.0024  1.9540
 3652TIP3    H232448   5.178   5.570   4.345 -0.7595  0.9361  0.1323
 3653TIP3   OH232449   0.148   2.772  11.903  0.2980  0.0013  0.5222
 3653TIP3    H132450   0.238   2.797  11.880  0.4589 -0.2251  0.8994
 3653TIP3    H232451   0.118   2.842  11.961 -0.2913  0.8430 -0.7942
 3654TIP3   OH232452   4.117   5.640   3.933  0.2365  0.0305  0.3220
 3654TIP3    H132453   4.083   5.690   3.858  0.8764  1.6681  1.0912
 3654TIP3    H232454   4.106   5.699   4.008 -0.1320 -1.4879  1.4720
 3655TIP3   OH232455   0.319   3.325   1.619  0.0660  0.3422 -0.1011
 3655TIP3    H132456   0.268   3.252   1.584 -0.6287  0.8193 -0.0902
 3655TIP3    H232457   0.297   3.399   1.562  1.1175  0.4338 -0.3910
 3656TIP3   OH232458   0.588   0.472   2.039  0.2824 -0.2000 -0.6671
 3656TIP3    H132459   0.584   0.559   1.999  0.8365  0.2682  0.2802
 3656TIP3    H232460   0.673   0.469   2.082 -0.3159 -0.6809  0.5082
 3657TIP3   OH232461   1.597   6.753  13.005  0.1182 -0.0393 -0.1788
 3657TIP3    H132462   1.614   6.780  12.915  1.0713  2.4618  0.6946
 3657TIP3    H232463   1.501   6.750  13.012 -0.0016  1.7211 -0.7597
 3658TIP3   OH232464   1.178   3.180   0.741  0.2194 -0.0015 -0.1477
 3658TIP3    H132465   1.142   3.207   0.656 -0.2201 -0.9206 -0.2577
 3658TIP3    H232466   1.255   3.236   0.753 -0.4463  1.0264 -0.5584
 3659TIP3   OH232467   1.505   0.547   4.346  0.0470  0.4902  0.1655
 3659TIP3    H132468   1.592   0.573   4.376 -0.1069  0.4869  0.6247
 3659TIP3    H232469   1.513   0.540   4.251  1.6376 -3.5914  0.5122
 3660TIP3   OH232470   6.200   2.989   1.988  0.6005  0.1720 -0.6512
 3660TIP3    H132471   6.253   2.952   1.917 -0.4936 -1.8426 -0.4420
 3660TIP3    H232472   6.252   2.976   2.067  0.9117  0.5492 -0.7903
 3661TIP3   OH232473   0.868   3.151  11.389  0.0377 -0.6149 -0.2716
 3661TIP3    H132474   0.889   3.058  11.383  0.4036 -0.4203 -2.1742
 3661TIP3    H232475   0.935   3.194  11.336  0.2636  0.8113  1.1155
 3662TIP3   OH232476   2.125   3.870  10.504 -0.2545 -0.1821 -0.2174
 3662TIP3    H132477   2.060   3.933  10.536  0.1755  0.6700 -1.0031
 3662TIP3    H232478   2.100   3.787  10.546 -2.1385  0.0178 -0.8782
 3663TIP3   OH232479   5.283   6.637  12.887  0.0654  0.4420 -0.0530
 3663TIP3    H132480   5.278   6.552  12.843  0.8455  0.0335  0.6023
 3663TIP3    H232481   5.201   6.644  12.936 -0.4772  0.5655 -0.9852
 3664TIP3   OH232482   3.754   5.179   4.309  0.0882  0.0085 -0.4948
 3664TIP3    H132483   3.663   5.178   4.279 -0.1079  1.3737  0.0177
 3664TIP3    H232484   3.796   5.248   4.257  0.6458 -0.1335 -0.2361
 3665TIP3   OH232485   1.015   2.336  13.833  0.1367 -0.2691 -0.4102
 3665TIP3    H132486   1.071   2.318  13.758  0.1451  0.9758 -0.7113
 3665TIP3    H232487   0.926   2.332  13.799  0.1496  0.6056 -0.5723
 3666TIP3   OH232488   0.429   1.692   5.042 -0.1263 -0.1217  0.0759
 3666TIP3    H132489   0.403   1.696   5.133  0.2463  1.3616  0.1420
 3666TIP3    H232490   0.352   1.660   4.995 -0.5880 -0.0825  0.8103
 3667TIP3   OH232491   4.030   1.387  14.654  0.0858 -0.5151 -1.0339
 3667TIP3    H132492   4.029   1.462  14.594  0.8262 -0.2467 -0.7200
 3667TIP3    H232493   3.967   1.411  14.722  1.1882  0.3714 -0.2954
 3668TIP3   OH232494   3.614   3.628  13.349  0.5044  0.1338 -0.5258
 3668TIP3    H132495   3.669   3.564  13.395  0.8134  1.0499  0.4090
 3668TIP3    H232496   3.589   3.690  13.417  2.8172  2.8120 -2.0031
 3669TIP3   OH232497   5.644   0.252  12.535 -0.2779  0.1683  0.1525
 3669TIP3    H132498   5.625   0.219  12.623  0.1295  1.0903  0.5975
 3669TIP3    H232499   5.670   0.343  12.549 -0.5424  0.4234 -0.9594
 3670TIP3   OH232500   1.991   6.009  16.413  0.2299 -0.2677 -0.5616
 3670TIP3    H132501   2.029   6.062  16.342 -0.7173  0.8918 -0.2232
 3670TIP3    H232502   2.053   5.937  16.424  0.7864 -0.0454 -2.0453
 3671TIP3   OH232503   3.882   0.609   5.010 -0.1984 -0.8151 -0.0000
 3671TIP3    H132504   3.871   0.554   4.932  0.1673  0.1956 -0.7758
 3671TIP3    H232505   3.793   0.624   5.041 -0.4910  0.2500 -1.2792
 3672TIP3   OH232506   5.870   1.317  13.130 -0.0544  0.1375 -0.1881
 3672TIP3    H132507   5.890   1.228  13.160 -2.0075  0.0848  1.0490
 3672TIP3    H232508   5.927   1.330  13.054 -0.5477 -2.5814 -1.0772
 3673TIP3   OH232509   3.017   3.957   5.998 -0.7577 -0.2450 -0.1872
 3673TIP3    H132510   2.976   3.929   6.081  1.6019 -0.8059  0.8258
 3673TIP3    H232511   3.095   4.006   6.025  1.1846 -2.1990 -2.0819
 3674TIP3   OH232512   3.958   4.494   5.298 -0.5404  0.3913 -0.6462
 3674TIP3    H132513   4.005   4.452   5.226  0.8095 -0.6571  0.8009
 3674TIP3    H232514   3.937   4.421   5.357 -0.6500  1.3791  0.5453
 3675TIP3   OH232515   4.359   2.454  15.457 -0.4915  0.0828  0.1820
 3675TIP3    H132516   4.321   2.541  15.442 -1.4502 -0.5772 -1.3880
 3675TIP3    H232517   4.287   2.403  15.495 -0.2154 -0.2681  0.2356
 3676TIP3   OH232518   4.530   5.910  11.421  0.1961 -0.0288 -1.1792
 3676TIP3    H132519   4.491   5.997  11.412 -0.7492 -0.3522 -0.3038
 3676TIP3    H232520   4.624   5.927  11.431 -0.0051  0.9040 -0.8121
 3677TIP3   OH232521   5.099   6.690   0.755 -0.0150  0.0695 -0.1402
 3677TIP3    H132522   5.027   6.632   0.780  0.4647  0.2755  1.8223
 3677TIP3    H232523   5.066   6.778   0.771 -0.1272  0.2677 -1.4370
 3678TIP3   OH232524   6.739   4.611  16.080  0.2144 -0.2126 -0.3982
 3678TIP3    H132525   6.725   4.593  16.173 -0.8888 -0.2700 -0.5686
 3678TIP3    H232526   6.794   4.690  16.079  1.8454 -1.3165  0.3040
 3679TIP3   OH232527   3.620   3.918   4.614 -0.0672  0.3769  0.0508
 3679TIP3    H132528   3.606   3.938   4.522 -1.1305 -2.3201 -0.3913
 3679TIP3    H232529   3.541   3.950   4.658  0.5738  1.9456  0.1053
 3680TIP3   OH232530   2.249   1.453   0.197 -0.1829 -0.4892  0.1277
 3680TIP3    H132531   2.275   1.475   0.286  0.9635 -1.3052  0.0045
 3680TIP3    H232532   2.328   1.415   0.158 -0.1652  1.3831 -1.7531
 3681TIP3   OH232533   1.441   6.180  16.044 -0.1651 -0.0243 -0.6190
 3681TIP3    H132534   1.464   6.271  16.027 -0.8284  0.2572 -0.0071
 3681TIP3    H232535   1.370   6.184  16.107 -0.5826 -0.9528 -1.0141
 3682TIP3   OH232536   1.057   0.630   6.101  0.1956  0.2347  0.0072
 3682TIP3    H132537   1.027   0.556   6.049  0.9720 -0.1557  0.1104
 3682TIP3    H232538   0.993   0.637   6.172  0.1071 -0.3267 -0.0151
 3683TIP3   OH232539   2.433   0.391  15.087  0.1356  0.2090 -0.4725
 3683TIP3    H132540   2.397   0.399  15.175 -0.4354 -0.7789 -0.6013
 3683TIP3    H232541   2.510   0.447  15.087 -0.1506  0.6116  0.5024
 3684TIP3   OH232542   4.160   5.910   0.079 -0.1466  0.4303 -0.3909
 3684TIP3    H132543   4.089   5.971   0.056  0.9167  1.0885 -2.0833
 3684TIP3    H232544   4.217   5.960   0.136 -1.0621 -0.1237  1.0327
 3685TIP3   OH232545   2.237   3.548   4.130 -0.4043 -0.0462  0.2478
 3685TIP3    H132546   2.177   3.482   4.165 -2.0793  0.6728 -1.2487
 3685TIP3    H232547   2.203   3.568   4.043  2.6253 -0.4079 -1.0818
 3686TIP3   OH232548   2.524   6.306  11.951 -0.2815 -0.2040 -0.0666
 3686TIP3    H132549   2.498   6.259  11.872 -0.0922  1.9280 -1.4129
 3686TIP3    H232550   2.617   6.284  11.962 -0.2198 -0.2324 -0.6245
 3687TIP3   OH232551   2.773   5.888   0.703  0.0309  0.5872  0.3728
 3687TIP3    H132552   2.726   5.905   0.785 -1.0328 -1.4100  0.2037
 3687TIP3    H232553   2.821   5.807   0.720  1.2255  1.1195 -0.4047
 3688TIP3   OH232554   3.906   0.662  13.528  0.2614 -0.0326  0.0226
 3688TIP3    H132555   3.823   0.617  13.547 -0.5163  2.5126  3.0344
 3688TIP3    H232556   3.880   0.740  13.478  0.9211  0.4090  0.3664
 3689TIP3   OH232557   0.483   0.110  16.750 -0.8459  0.2894  0.8281
 3689TIP3    H132558   0.392   0.129  16.774 -0.4821  1.3390  1.4296
 3689TIP3    H232559   0.502   0.028  16.795 -2.3303 -1.3952 -1.5066
 3690TIP3   OH232560   2.195   6.618   5.267 -0.5112 -0.0886 -0.2817
 3690TIP3    H132561   2.152   6.541   5.230 -2.2122 -0.2567  1.9245
 3690TIP3    H232562   2.224   6.590   5.354 -1.1628  1.7553  0.5546
 3691TIP3   OH232563   2.340   1.349  15.131 -0.2841  0.0078 -0.0632
 3691TIP3    H132564   2.270   1.284  15.133 -0.2387 -0.0303  0.4723
 3691TIP3    H232565   2.333   1.390  15.045 -2.3550  1.4911  0.7685
 3692TIP3   OH232566   2.369   2.938  12.049 -0.2096 -0.2527  0.2280
 3692TIP3    H132567   2.311   2.917  11.976 -0.0957 -3.2300  0.9056
 3692TIP3    H232568   2.457   2.917  12.018  0.0279  0.1969  0.5962
 3693TIP3   OH232569   0.424   5.564  12.538 -0.0278 -0.8558 -0.1307
 3693TIP3    H132570   0.375   5.584  12.459 -4.1374  1.5891  2.8313
 3693TIP3    H232571   0.368   5.503  12.586 -0.7260  2.5768  3.6876
 3694TIP3   OH232572   2.627   2.011   2.716  0.0858  0.0431  0.0951
 3694TIP3    H132573   2.633   1.978   2.626  1.3205 -0.9779  0.5238
 3694TIP3    H232574   2.584   1.940   2.764 -0.2787  0.4551  0.3738
 3695TIP3   OH232575   3.926   2.189  12.470  0.0503  0.7456  0.5779
 3695TIP3    H132576   3.906   2.273  12.430 -1.0440  0.3361  0.2245
 3695TIP3    H232577   3.949   2.132  12.397  0.9830  0.7937  0.8352
 3696TIP3   OH232578   6.026   2.720  11.090 -0.5919 -0.4220  0.2556
 3696TIP3    H132579   5.953   2.781  11.097 -0.2318  0.1618 -0.8559
 3696TIP3    H232580   6.061   2.714  11.178 -1.1192  0.3765  0.5245
 3697TIP3   OH232581   1.240   2.012  13.443  0.5434 -0.5045  0.3267
 3697TIP3    H132582   1.256   2.086  13.501  0.1447  0.0852 -0.3134
 3697TIP3    H232583   1.225   2.051  13.357 -0.3003 -1.2839  0.1138
 3698TIP3   OH232584   1.482   5.526   2.563  0.4129  0.0600 -0.0338
 3698TIP3    H132585   1.389   5.504   2.566  0.4861 -0.1537  0.7994
 3698TIP3    H232586   1.487   5.612   2.605  0.6607 -0.1500  0.3629
 3699TIP3   OH232587   0.394   6.267  17.183  0.2360 -0.1642  0.2555
 3699TIP3    H132588   0.346   6.334  17.232  0.7555 -0.3266  0.9899
 3699TIP3    H232589   0.486   6.286  17.200  0.3799 -1.3514  0.8473
 3700TIP3   OH232590   5.664   3.159   5.432  0.1043 -0.0353 -0.4640
 3700TIP3    H132591   5.623   3.133   5.515 -1.2355  0.6849 -0.8811
 3700TIP3    H232592   5.596   3.209   5.387  1.7824  1.9787 -0.8002
 3701TIP3   OH232593   4.632   4.320  14.669 -0.3877 -0.2097 -0.0335
 3701TIP3    H132594   4.721   4.355  14.677  0.0664 -1.7283  1.7476
 3701TIP3    H232595   4.580   4.395  14.642  0.5808  1.8553  3.6077
 3702TIP3   OH232596   0.753   1.603  11.793  0.0449 -0.3826  0.0429
 3702TIP3    H132597   0.835   1.640  11.761  0.5181 -0.4562  1.1238
 3702TIP3    H232598   0.735   1.653  11.873 -2.4282  1.5440 -1.6397
 3703TIP3   OH232599   4.983   0.113   4.646 -0.0220  0.2277 -0.7556
 3703TIP3    H132600   4.990   0.193   4.699 -2.8714 -0.6973  1.1198
 3703TIP3    H232601   5.074   0.083   4.638  0.8411  2.2698  0.6617
 3704TIP3   OH232602   1.819   5.849  14.532 -0.2886 -0.6981  0.1498
 3704TIP3    H132603   1.754   5.864  14.462 -0.3175 -1.6763 -0.0421
 3704TIP3    H232604   1.798   5.915  14.598 -1.6262 -1.1495  0.1905
 3705TIP3   OH232605   5.171   3.568   3.716 -0.7164 -0.4129 -0.0457
 3705TIP3    H132606   5.229   3.492   3.706 -0.2069 -0.0707  0.3000
 3705TIP3    H232607   5.204   3.631   3.653 -1.4497 -0.6625 -0.6828
 3706TIP3   OH232608   4.014   4.668   5.616  0.9848 -0.3784  0.0696
 3706TIP3    H132609   4.001   4.686   5.709  0.6279  0.7675 -0.1877
 3706TIP3    H232610   3.959   4.592   5.598  2.4895 -1.7590  1.1949
 3707TIP3   OH232611   5.107   0.725   0.453 -0.2636  0.1451  0.5115
 3707TIP3    H132612   5.116   0.814   0.419  0.5172 -0.7080 -1.5587
 3707TIP3    H232613   5.169   0.720   0.525 -0.6803  1.4249  0.9685
 3708TIP3   OH232614   3.907   1.258   1.014  0.1097  0.5020  0.3283
 3708TIP3    H132615   3.897   1.287   0.923  1.0732 -0.4505 -0.0972
 3708TIP3    H232616   3.917   1.163   1.007  1.5781  0.5723  1.3171
 3709TIP3   OH232617   4.700   5.639  13.589  0.2610  0.0940  0.0808
 3709TIP3    H132618   4.767   5.635  13.520 -0.9130 -0.9632 -1.0105
 3709TIP3    H232619   4.702   5.553  13.630  0.4694  0.4945  0.9370
 3710TIP3   OH232620   5.821   1.685   5.794  0.2636 -0.7642 -0.6519
 3710TIP3    H132621   5.756   1.636   5.744  0.2075 -1.9429  0.5533
 3710TIP3    H232622   5.775   1.712   5.874  0.5415  0.5265 -0.9131
 3711TIP3   OH232623   3.724   1.069  15.945  0.1504 -0.4650 -0.0487
 3711TIP3    H132624   3.679   0.987  15.966 -1.7418  0.5919  0.1609
 3711TIP3    H232625   3.734   1.113  16.029 -1.9637  1.0464 -0.5425
 3712TIP3   OH232626   0.889   6.435  16.086 -0.1458  0.7607 -0.1939
 3712TIP3    H132627   0.875   6.429  16.180  0.0555 -1.0122 -0.2691
 3712TIP3    H232628   0.817   6.490  16.055  0.4912  2.3807  1.1409
 3713TIP3   OH232629   0.385   0.949  12.763  0.5033 -0.3407 -0.7051
 3713TIP3    H132630   0.296   0.982  12.772  1.0901  1.4851 -1.3807
 3713TIP3    H232631   0.440   1.027  12.760  1.9930 -1.3922 -1.7673
 3714TIP3   OH232632   2.312   4.512   3.679  0.6920 -0.4423 -0.3100
 3714TIP3    H132633   2.295   4.421   3.701 -0.4684 -0.3443 -0.7473
 3714TIP3    H232634   2.250   4.532   3.609 -1.3937  1.6431  2.0552
 3715TIP3   OH232635   5.159   6.728  13.954 -0.1382 -0.0518 -0.4148
 3715TIP3    H132636   5.147   6.822  13.949 -1.1878 -0.2370 -1.7354
 3715TIP3    H232637   5.135   6.696  13.867  1.6972 -1.3725 -0.4700
 3716TIP3   OH232638   1.372   2.155   3.253 -0.4093  0.2054  0.2966
 3716TIP3    H132639   1.313   2.080   3.249  0.4625 -0.4255 -1.3405
 3716TIP3    H232640   1.459   2.116   3.255 -0.0039  1.1560  1.2663
 3717TIP3   OH232641   2.234   3.809   5.537  0.2816  0.1986 -0.4626
 3717TIP3    H132642   2.141   3.789   5.545  0.6160 -0.4343  2.4078
 3717TIP3    H232643   2.238   3.904   5.526 -0.7154  0.2579 -0.3253
 3718TIP3   OH232644   2.298   5.266   3.688  0.1897  0.1279  0.4283
 3718TIP3    H132645   2.370   5.204   3.700  0.6558  0.4863 -0.4691
 3718TIP3    H232646   2.291   5.311   3.772 -1.0624 -2.0828  1.5670
 3719TIP3   OH232647   4.996   4.703   0.847  0.0185  0.2410  0.2063
 3719TIP3    H132648   4.911   4.745   0.831  0.1007  0.2162 -0.3245
 3719TIP3    H232649   4.975   4.616   0.879 -0.1549  0.6489  1.1945
 3720TIP3   OH232650   6.055   0.079  15.646  0.2763  0.3272 -0.4179
 3720TIP3    H132651   5.996   0.085  15.571  0.6045  3.4186 -0.4899
 3720TIP3    H232652   6.016   0.011  15.701 -0.6824 -1.0745 -2.7447
 3721TIP3   OH232653   4.831   4.559   1.913 -0.5837 -0.1484 -0.2903
 3721TIP3    H132654   4.819   4.653   1.903  2.5437  0.0918 -2.4804
 3721TIP3    H232655   4.898   4.550   1.981  1.1573 -0.6432 -2.0264
 3722TIP3   OH232656   4.113   3.690   0.405  0.2733  0.5395 -0.7123
 3722TIP3    H132657   4.075   3.777   0.416 -0.3822  0.0452  1.0539
 3722TIP3    H232658   4.206   3.702   0.424  0.5190  1.1934 -2.2562
 3723TIP3   OH232659   6.171   3.765  13.761 -0.4824 -0.3835 -0.2038
 3723TIP3    H132660   6.232   3.799  13.697 -1.4465  0.7507 -0.5221
 3723TIP3    H232661   6.085   3.792  13.730 -1.0168 -0.4966  1.1421
 3724TIP3   OH232662   0.434   0.236  14.952  0.4362  0.1421 -0.0920
 3724TIP3    H132663   0.449   0.324  14.988  0.7576 -0.9713  2.6243
 3724TIP3    H232664   0.409   0.252  14.861  0.9816  3.0214  0.1920
 3725TIP3   OH232665   6.802   5.591  11.354  0.0697 -0.3447 -0.2541
 3725TIP3    H132666   6.826   5.515  11.301 -2.3540 -0.3036 -1.4402
 3725TIP3    H232667   6.752   5.647  11.295 -1.0103  0.6227  1.5466
 3726TIP3   OH232668   1.712   2.362  14.750 -0.5383  0.4816  0.3709
 3726TIP3    H132669   1.690   2.450  14.778 -1.1678  0.6878 -0.7540
 3726TIP3    H232670   1.634   2.330  14.705  0.1076 -0.1952 -0.3045
 3727TIP3   OH232671   3.288   5.421   5.583  0.4897  0.1068 -0.6755
 3727TIP3    H132672   3.316   5.339   5.542 -2.6482 -1.1398 -0.4308
 3727TIP3    H232673   3.245   5.469   5.512  0.0925  0.4545 -0.2003
 3728TIP3   OH232674   0.655   5.690   0.040 -0.0573 -0.5474 -0.4184
 3728TIP3    H132675   0.687   5.649   0.120  1.0885 -0.8077 -0.9969
 3728TIP3    H232676   0.641   5.617  -0.020  0.1505 -0.2639 -0.8144
 3729TIP3   OH232677   0.402   4.063  16.119  0.1549 -0.1846  0.2887
 3729TIP3    H132678   0.373   4.153  16.137  0.7018 -0.1519  1.0413
 3729TIP3    H232679   0.457   4.041  16.194  0.1745 -1.0837  0.0091
 3730TIP3   OH232680   2.547   6.325   3.574 -0.3984 -0.1513  0.5768
 3730TIP3    H132681   2.616   6.321   3.640  0.3534  0.6357 -0.1530
 3730TIP3    H232682   2.507   6.237   3.576  1.0021 -0.8033  0.6013
 3731TIP3   OH232683   6.470   6.645  14.151  0.1866 -0.3411 -0.4630
 3731TIP3    H132684   6.493   6.630  14.060 -0.4555  0.3623 -0.7505
 3731TIP3    H232685   6.533   6.710  14.182 -0.6141  0.6504 -0.8872
 3732TIP3   OH232686   6.299   2.957  14.934  0.1986 -0.0975 -0.5127
 3732TIP3    H132687   6.302   3.046  14.900 -2.6212 -0.3878 -1.6812
 3732TIP3    H232688   6.388   2.940  14.964  1.2040  2.4902 -1.8374
 3733TIP3   OH232689   6.009   5.206  12.151  0.2261 -0.4229 -0.1704
 3733TIP3    H132690   6.087   5.216  12.096  0.5533  1.5380  0.6079
 3733TIP3    H232691   5.944   5.264  12.112  0.1631  0.2782  0.9631
 3734TIP3   OH232692   0.380   4.695  11.292  0.1658  0.4754  0.1964
 3734TIP3    H132693   0.417   4.607  11.302  0.2680  0.3647 -1.0809
 3734TIP3    H232694   0.311   4.685  11.227 -1.7257  0.8092  2.0855
 3735TIP3   OH232695   5.948   6.213  13.372 -0.1905 -0.1627  0.4412
 3735TIP3    H132696   5.983   6.287  13.422 -0.7407  1.1670 -1.1030
 3735TIP3    H232697   5.859   6.240  13.349 -0.3861 -1.3039 -0.1672
 3736TIP3   OH232698   5.516   4.722   2.036 -0.2622  0.4839  0.4637
 3736TIP3    H132699   5.493   4.764   2.119 -1.0412 -2.6771  1.9190
 3736TIP3    H232700   5.596   4.673   2.056 -0.1441  0.1312 -0.8438
 3737TIP3   OH232701   1.077   1.122   6.884 -0.0788 -0.3414 -0.7280
 3737TIP3    H132702   1.125   1.060   6.830  2.6277  0.3353  0.8045
 3737TIP3    H232703   0.997   1.075   6.910  2.0915 -3.3976  0.7334
 3738TIP3   OH232704   0.245   3.932   1.109 -0.7584 -0.6361  0.3090
 3738TIP3    H132705   0.245   4.027   1.098  0.4689 -0.4366  1.8702
 3738TIP3    H232706   0.325   3.913   1.159  0.1824 -2.7075 -1.8176
 3739TIP3   OH232707   3.183   4.297  14.895  0.0272 -0.5765  0.2923
 3739TIP3    H132708   3.119   4.234  14.863 -0.3917 -0.9937  1.8945
 3739TIP3    H232709   3.132   4.374  14.918  0.2174 -0.5719  0.7061
 3740TIP3   OH232710   4.114   1.359  11.292 -0.3546  0.1799 -0.2076
 3740TIP3    H132711   4.109   1.453  11.278  0.9682 -0.0315 -2.2369
 3740TIP3    H232712   4.062   1.321  11.222  0.8161 -0.6633 -0.6357
 3741TIP3   OH232713   3.478   3.363   2.195 -0.0143  0.6063  0.7285
 3741TIP3    H132714   3.491   3.435   2.257 -0.2993 -1.1564  2.8926
 3741TIP3    H232715   3.388   3.375   2.163 -0.5734  0.4291  2.1682
 3742TIP3   OH232716   0.723   0.723   7.186  0.3261  0.4015 -0.2229
 3742TIP3    H132717   0.773   0.644   7.206  0.5989  1.1190  2.0376
 3742TIP3    H232718   0.760   0.790   7.244  0.0546  2.1786 -2.0606
 3743TIP3   OH232719   2.336   1.559  11.936 -0.5195  0.2120  0.1931
 3743TIP3    H132720   2.425   1.538  11.907  0.2064  1.1380  1.6590
 3743TIP3    H232721   2.315   1.491  12.000 -0.1771  0.9754  1.1277
 3744TIP3   OH232722   4.712   4.937  15.106 -0.3674 -0.1539 -0.3400
 3744TIP3    H132723   4.758   4.998  15.164  0.3489  0.2549 -1.3236
 3744TIP3    H232724   4.661   4.993  15.048 -0.6769 -0.5350 -0.4366
 3745TIP3   OH232725   3.895   5.369   4.121  0.0967 -0.0866 -0.0352
 3745TIP3    H132726   3.838   5.444   4.103  0.1741  0.0056  0.1062
 3745TIP3    H232727   3.967   5.405   4.172  1.3356  0.1792 -1.9195
 3746TIP3   OH232728   4.647   0.297   2.191  0.0823 -0.3412  0.1065
 3746TIP3    H132729   4.564   0.317   2.234  0.2027  0.3407  0.0223
 3746TIP3    H232730   4.651   0.358   2.117  0.1249 -1.1422 -0.5622
 3747TIP3   OH232731   3.154   3.824   0.460 -0.5811 -0.5204  0.0174
 3747TIP3    H132732   3.083   3.791   0.405 -1.4410  1.2744  0.0198
 3747TIP3    H232733   3.161   3.760   0.531 -1.2195 -1.4581 -0.7542
 3748TIP3   OH232734   5.718   3.856   3.707 -0.4921  0.0555 -0.1467
 3748TIP3    H132735   5.780   3.787   3.732 -1.4001 -0.2755  1.2506
 3748TIP3    H232736   5.749   3.886   3.621  1.7280  0.0587  0.6217
 3749TIP3   OH232737   3.834   3.060   3.489  0.4700  0.4897 -0.3018
 3749TIP3    H132738   3.838   3.123   3.417  0.0165  0.3898 -0.4180
 3749TIP3    H232739   3.747   3.072   3.527  0.5398  0.2293 -0.0567
 3750TIP3   OH232740   3.169   5.611   5.438 -0.8105  0.4575 -0.3177
 3750TIP3    H132741   3.188   5.657   5.356  1.6962 -1.4783 -0.8845
 3750TIP3    H232742   3.177   5.678   5.505  0.5617  1.3583 -1.3486
 3751TIP3   OH232743   2.179   6.468   5.580 -0.8221  0.0501 -0.3734
 3751TIP3    H132744   2.129   6.549   5.590  0.0250  0.4491  0.7853
 3751TIP3    H232745   2.269   6.493   5.598 -0.8077 -1.5198  1.9385
 3752TIP3   OH232746   6.311   5.329  16.879  0.0283 -0.0036  0.1202
 3752TIP3    H132747   6.337   5.243  16.912  0.1354 -0.9023 -2.2163
 3752TIP3    H232748   6.393   5.371  16.855 -0.0248  0.7697  1.2784
 3753TIP3   OH232749   5.880   6.648   2.597 -0.5347 -0.1648 -0.2385
 3753TIP3    H132750   5.940   6.627   2.668  4.0774 -1.5742 -4.2381
 3753TIP3    H232751   5.917   6.727   2.557 -1.9429 -0.4476 -2.1647
 3754TIP3   OH232752   3.152   0.644   1.293  0.3198  0.5398  0.1671
 3754TIP3    H132753   3.131   0.663   1.201  1.4809  0.0537 -0.1989
 3754TIP3    H232754   3.067   0.625   1.333 -0.0704 -0.4454 -1.0848
 3755TIP3   OH232755   5.630   3.551   6.139  0.2761  0.5073 -0.0376
 3755TIP3    H132756   5.670   3.638   6.140 -0.0950  0.6845 -0.3087
 3755TIP3    H232757   5.687   3.498   6.194 -0.9943  1.5754  2.3997
 3756TIP3   OH232758   6.637   3.999   4.182  0.2482  0.5000 -0.3646
 3756TIP3    H132759   6.636   4.088   4.218  0.4243  1.0545 -1.6731
 3756TIP3    H232760   6.706   4.002   4.115 -1.1745 -0.0324 -1.8716
 3757TIP3   OH232761   0.201   3.266   0.811 -0.0717 -0.1097 -0.1742
 3757TIP3    H132762   0.151   3.213   0.750  0.7730  0.4677 -1.3836
 3757TIP3    H232763   0.265   3.312   0.757  0.6954  0.4113  1.1387
 3758TIP3   OH232764   0.970   1.157   4.689  0.3323 -0.0776  0.7209
 3758TIP3    H132765   0.917   1.119   4.758 -0.6605 -1.6524 -0.8510
 3758TIP3    H232766   1.051   1.105   4.689  0.3355 -0.0726  0.7334
 3759TIP3   OH232767   4.771   4.552   0.966  0.5633  0.0361  0.1258
 3759TIP3    H132768   4.716   4.475   0.956  1.7845 -0.4980 -2.8578
 3759TIP3    H232769   4.833   4.529   1.035  0.2780 -1.2474 -0.0475
 3760TIP3   OH232770   1.133   0.233  11.547 -0.4091 -0.6201 -0.4288
 3760TIP3    H132771   1.046   0.239  11.584 -0.0238 -0.3013  0.4315
 3760TIP3    H232772   1.159   0.324  11.531  0.4397 -0.6145  0.9147
 3761TIP3   OH232773   6.203   4.501   4.117  0.2498  0.3802 -0.5488
 3761TIP3    H132774   6.165   4.512   4.205  0.4519  0.5209 -0.4769
 3761TIP3    H232775   6.288   4.460   4.133 -0.3893 -1.0666 -0.8030
 3762TIP3   OH232776   5.493   2.675   2.247  0.1876  0.1193 -0.6563
 3762TIP3    H132777   5.493   2.766   2.275  0.6842  0.0834 -0.5429
 3762TIP3    H232778   5.433   2.674   2.172  1.1004  0.7751 -1.4113
 3763TIP3   OH232779   1.251   0.503  14.104 -0.3535  0.1282  0.0347
 3763TIP3    H132780   1.224   0.505  14.196  1.9446 -1.3038  0.7907
 3763TIP3    H232781   1.273   0.594  14.083 -0.7051  0.4309  0.9589
 3764TIP3   OH232782   1.740   0.275   1.041  0.4179 -0.2408  0.0849
 3764TIP3    H132783   1.749   0.340   1.111 -1.6599  0.6631 -0.4575
 3764TIP3    H232784   1.820   0.286   0.989  0.6689  1.0378  0.7082
 3765TIP3   OH232785   1.160   4.281   4.758  0.0381  0.3354 -0.0880
 3765TIP3    H132786   1.127   4.249   4.674 -0.1391  1.5483 -0.4918
 3765TIP3    H232787   1.104   4.356   4.778  0.6130  0.5556  0.7009
 3766TIP3   OH232788   1.166   5.427   0.753 -0.0381  0.2720  0.2835
 3766TIP3    H132789   1.178   5.480   0.831 -0.6749 -0.5110  0.9295
 3766TIP3    H232790   1.106   5.358   0.780  1.2390 -1.1291 -0.3583
 3767TIP3   OH232791   1.236   2.569   0.937 -0.2371  0.4337 -0.7872
 3767TIP3    H132792   1.183   2.491   0.922  0.8152 -0.3956 -0.2515
 3767TIP3    H232793   1.173   2.641   0.935 -1.3415 -0.5046 -0.4167
 3768TIP3   OH232794   1.643   6.370   6.580  0.1073  0.2411  0.1750
 3768TIP3    H132795   1.735   6.346   6.591  0.5376  1.3515 -0.9691
 3768TIP3    H232796   1.629   6.442   6.642  0.1910  0.5593 -0.1798
 3769TIP3   OH232797   6.140   3.456   1.352  0.4553  0.1795  0.0154
 3769TIP3    H132798   6.183   3.460   1.267  3.2643 -0.7885  1.3391
 3769TIP3    H232799   6.158   3.368   1.384 -1.1808  0.2884  1.3257
 3770TIP3   OH232800   6.373   4.854  16.693 -0.4018  0.3651 -0.4299
 3770TIP3    H132801   6.357   4.780  16.635 -0.8711 -0.7352  1.0764
 3770TIP3    H232802   6.437   4.822  16.756 -2.2855  0.5146  1.5961
 3771TIP3   OH232803   0.536   1.468  13.902  0.0430  0.1524  0.4162
 3771TIP3    H132804   0.609   1.416  13.934 -0.6978 -0.2455  1.5053
 3771TIP3    H232805   0.492   1.500  13.981 -0.3211  1.2928 -0.2305
 3772TIP3   OH232806   3.770   5.415   1.433  0.3945 -0.4401  0.2221
 3772TIP3    H132807   3.840   5.465   1.475 -0.3159  0.5631  0.2444
 3772TIP3    H232808   3.814   5.359   1.370  1.3386 -0.8105  1.2024
 3773TIP3   OH232809   1.872   0.589   1.487 -0.1241  0.0476 -0.3411
 3773TIP3    H132810   1.802   0.649   1.463  0.8345  1.3946  0.1897
 3773TIP3    H232811   1.860   0.575   1.581 -0.6642 -1.0319 -0.5576
 3774TIP3   OH232812   4.448   3.139   9.051  0.1134  0.1032 -0.1746
 3774TIP3    H132813   4.543   3.136   9.046  0.0797  0.4431 -1.1872
 3774TIP3    H232814   4.429   3.222   9.096  0.3060 -0.3272  0.7122
 3775TIP3   OH232815   4.043   0.841  16.443  0.1729 -0.2590  0.5226
 3775TIP3    H132816   4.093   0.787  16.382 -0.2047  0.7453 -0.6918
 3775TIP3    H232817   3.998   0.778  16.500 -0.3045 -1.2336 -0.9034
 3776TIP3   OH232818   0.236   2.289  13.598 -0.0940  0.0617  0.1394
 3776TIP3    H132819   0.210   2.216  13.654 -0.7678 -0.5657 -0.9779
 3776TIP3    H232820   0.156   2.339  13.585 -0.0499 -0.0597 -0.6390
 3777TIP3   OH232821   4.312   1.048  13.562  1.2208 -0.6691 -0.4004
 3777TIP3    H132822   4.308   1.029  13.656  0.8506  0.0062 -0.2722
 3777TIP3    H232823   4.383   0.993  13.529  0.8966 -1.4248  0.1524
 3778TIP3   OH232824   3.849   3.290   3.305 -0.9517 -0.3876  0.2784
 3778TIP3    H132825   3.880   3.375   3.336 -0.0020 -0.9103  0.7882
 3778TIP3    H232826   3.804   3.309   3.223 -2.2077  0.8168  1.2275
 3779TIP3   OH232827   1.212   3.640   0.264 -0.0953  0.6999  0.0472
 3779TIP3    H132828   1.215   3.614   0.173 -0.8148  0.0254  0.2124
 3779TIP3    H232829   1.147   3.710   0.267 -1.3537 -0.4731  0.3315
 3780TIP3   OH232830   5.419   5.489  13.647  0.5298  0.5370  0.6008
 3780TIP3    H132831   5.403   5.550  13.575 -0.8833  1.0676  1.3479
 3780TIP3    H232832   5.477   5.537  13.706  0.6816  0.5585  0.4379
 3781TIP3   OH232833   2.038   4.973   4.331 -0.5110 -0.2388 -0.1446
 3781TIP3    H132834   2.022   4.887   4.368 -0.6981  0.0277  0.4037
 3781TIP3    H232835   2.124   4.998   4.364 -0.7394  0.0606  0.2375
 3782TIP3   OH232836   6.455   4.322   1.377 -0.3388 -0.2402 -0.3705
 3782TIP3    H132837   6.394   4.272   1.324 -0.8325  0.7152 -0.7214
 3782TIP3    H232838   6.428   4.413   1.365 -0.7447 -0.0462  1.9094
 3783TIP3   OH232839   6.711   1.400   1.347 -0.1469  0.4776 -0.8157
 3783TIP3    H132840   6.638   1.369   1.294 -0.5279  0.2485 -0.1676
 3783TIP3    H232841   6.784   1.341   1.325 -0.9949 -1.2263  0.7654
 3784TIP3   OH232842   1.577   5.941  14.900  0.1336 -0.5786 -0.0772
 3784TIP3    H132843   1.574   5.971  14.991  0.8020  0.3170 -0.3485
 3784TIP3    H232844   1.640   5.869  14.901 -0.5031 -1.1448  0.3259
 3785TIP3   OH232845   6.297   4.373   5.403 -0.2895 -0.5870 -0.3339
 3785TIP3    H132846   6.316   4.458   5.442  0.7187 -1.1747  0.5046
 3785TIP3    H232847   6.383   4.329   5.399 -0.7072 -1.3498 -1.2693
 3786TIP3   OH232848   6.604   6.268  12.864  0.3676  0.4171  0.4991
 3786TIP3    H132849   6.560   6.256  12.948  1.2092 -3.2341  0.5383
 3786TIP3    H232850   6.563   6.346  12.826 -2.0341  0.4853  3.0245
 3787TIP3   OH232851   3.293   1.180   6.057 -0.3274 -0.5482  0.0647
 3787TIP3    H132852   3.280   1.099   6.105 -2.3451 -1.8540 -2.5608
 3787TIP3    H232853   3.212   1.230   6.073  0.1543  0.1765  0.2396
 3788TIP3   OH232854   3.749   3.271   2.081  0.5732 -0.3781 -0.2298
 3788TIP3    H132855   3.668   3.307   2.118  0.7251  0.2671 -0.5279
 3788TIP3    H232856   3.812   3.343   2.086  0.4534 -0.1130 -2.2110
 3789TIP3   OH232857   6.180   5.160   3.157 -0.6783 -0.4562 -0.1040
 3789TIP3    H132858   6.202   5.139   3.067  0.8210  1.9499 -0.3164
 3789TIP3    H232859   6.138   5.246   3.153 -0.6837 -0.3681  1.4715
 3790TIP3   OH232860   2.570   2.650  13.562 -0.2276 -0.0121  0.3407
 3790TIP3    H132861   2.495   2.709  13.552  0.0474  0.4408  0.9211
 3790TIP3    H232862   2.638   2.689  13.506 -0.0498  0.2228  0.7153
 3791TIP3   OH232863   0.848   4.987   1.523  0.0888  0.3558 -0.0679
 3791TIP3    H132864   0.784   4.933   1.477  0.4282 -2.7012  2.8088
 3791TIP3    H232865   0.928   4.978   1.472 -0.2347 -0.8117 -0.3901
 3792TIP3   OH232866   1.049   0.524  11.285  0.6202 -0.1078 -0.2312
 3792TIP3    H132867   1.039   0.534  11.190 -1.8727 -0.5566 -0.0506
 3792TIP3    H232868   0.987   0.455  11.308  1.2310 -0.0212  1.7391
 3793TIP3   OH232869   6.100   0.941   2.366 -0.1166  0.9490 -0.0387
 3793TIP3    H132870   6.182   0.965   2.407  1.4231 -0.5641 -2.0848
 3793TIP3    H232871   6.107   0.975   2.276 -0.6059 -1.3764 -1.0051
 3794TIP3   OH232872   4.272   1.651   3.158  0.1721  0.1970  0.1174
 3794TIP3    H132873   4.300   1.742   3.170 -0.3584  0.3047  0.5572
 3794TIP3    H232874   4.316   1.623   3.078  1.2331  0.4855  0.5872
 3795TIP3   OH232875   4.215   3.128  12.206  0.3252 -0.1539  0.0223
 3795TIP3    H132876   4.243   3.135  12.114 -0.2457 -0.5768 -0.1846
 3795TIP3    H232877   4.263   3.199  12.250  0.0870  0.4935 -0.7304
 3796TIP3   OH232878   4.045   1.166   4.695 -0.5665  0.3721  0.0092
 3796TIP3    H132879   4.005   1.241   4.651  1.2112  2.0899  1.2200
 3796TIP3    H232880   4.138   1.173   4.675  0.1304  0.5439  2.9702
 3797TIP3   OH232881   2.291   4.851  16.155  0.3630 -0.0262  0.2810
 3797TIP3    H132882   2.342   4.810  16.085  0.3697  1.7474 -0.7712
 3797TIP3    H232883   2.201   4.853  16.122  0.3255  0.6131  0.4186
 3798TIP3   OH232884   2.898   5.658   0.927 -0.0638  0.3299 -0.1024
 3798TIP3    H132885   2.965   5.689   0.866  0.2750  0.6166  0.4178
 3798TIP3    H232886   2.932   5.575   0.961 -1.2360 -0.9485 -1.9423
 3799TIP3   OH232887   5.573   6.253   3.876 -0.3099  0.0808  0.3009
 3799TIP3    H132888   5.600   6.174   3.922 -0.9613 -0.5287 -0.3432
 3799TIP3    H232889   5.524   6.304   3.941 -1.4842 -0.9082  0.2162
 3800TIP3   OH232890   3.400   3.905  13.807  0.1303  0.2883  0.1364
 3800TIP3    H132891   3.404   4.001  13.814  0.1446  0.3450 -0.6342
 3800TIP3    H232892   3.426   3.886  13.717 -2.6657 -0.2735 -0.6005
 3801TIP3   OH232893   2.516   0.209   0.503  0.4143 -0.1631 -0.4611
 3801TIP3    H132894   2.612   0.210   0.513  0.3505 -0.5729  0.2707
 3801TIP3    H232895   2.498   0.136   0.444  0.4440 -1.1714  0.7611
 3802TIP3   OH232896   1.407   4.839  12.002  1.0355  0.7989 -0.6567
 3802TIP3    H132897   1.382   4.752  11.972 -0.2057  0.4372  1.3094
 3802TIP3    H232898   1.500   4.831  12.026  0.9513  0.0541 -0.5898
 3803TIP3   OH232899   2.467   6.348  12.223  0.5177  0.2685  0.3811
 3803TIP3    H132900   2.448   6.320  12.134  0.8061 -2.7733  1.2465
 3803TIP3    H232901   2.421   6.286  12.278  2.2155  0.7460  2.3915
 3804TIP3   OH232902   1.904   1.137   3.618  0.0542 -0.7615 -0.1574
 3804TIP3    H132903   1.933   1.137   3.527  1.0141  0.0983  0.1417
 3804TIP3    H232904   1.976   1.096   3.667 -0.3884 -1.0743  0.2448
 3805TIP3   OH232905   2.248   5.065  11.200  0.0695 -0.8409 -0.4340
 3805TIP3    H132906   2.278   5.062  11.109  0.9773 -2.9316 -0.0963
 3805TIP3    H232907   2.215   5.154  11.211  0.9325 -0.2236 -2.4900
 3806TIP3   OH232908   3.670   0.885   4.600  0.1012  0.2272  0.2844
 3806TIP3    H132909   3.710   0.864   4.516 -1.0016 -3.4192  0.5786
 3806TIP3    H232910   3.603   0.950   4.579  0.0736 -0.3808 -1.6301
 3807TIP3   OH232911   2.225   2.268  10.927  0.0782 -0.0734  0.0682
 3807TIP3    H132912   2.162   2.236  10.862  0.3453  0.1107 -0.2773
 3807TIP3    H232913   2.310   2.237  10.897  0.2241  0.1483  0.2457
 3808TIP3   OH232914   3.677   4.405  15.660  0.1436 -0.1156 -0.1672
 3808TIP3    H132915   3.619   4.443  15.595  1.3326  0.6552 -0.7928
 3808TIP3    H232916   3.647   4.441  15.744 -0.6582 -0.2044 -0.4193
 3809TIP3   OH232917   4.653   1.433  12.646  0.1379  0.4967  0.2128
 3809TIP3    H132918   4.703   1.372  12.701  2.1025 -0.0276 -2.0569
 3809TIP3    H232919   4.623   1.379  12.572 -2.3482  1.2077  0.6639
 3810TIP3   OH232920   5.090   2.600  16.493 -0.4858  0.4344  0.1102
 3810TIP3    H132921   5.103   2.587  16.587  2.6023  0.7823 -0.2090
 3810TIP3    H232922   5.115   2.691  16.478 -0.7481  0.3192 -1.0609
 3811TIP3   OH232923   1.255   0.256  11.214 -0.2989  0.4704 -0.1911
 3811TIP3    H132924   1.201   0.210  11.149  0.0645  0.0289 -0.1779
 3811TIP3    H232925   1.288   0.332  11.167  0.5512 -0.2319 -0.7495
 3812TIP3   OH232926   5.127   2.623  13.044 -0.1238 -0.0971  0.2968
 3812TIP3    H132927   5.074   2.637  12.965  0.0854  0.2191  0.2110
 3812TIP3    H232928   5.166   2.536  13.031 -2.0269 -1.1215  1.1757
 3813TIP3   OH232929   5.090   6.458  12.217  0.6757 -0.9919  0.0496
 3813TIP3    H132930   5.134   6.376  12.190 -0.3618 -1.5568  0.0579
 3813TIP3    H232931   5.021   6.471  12.152 -1.1910 -1.8165  1.8148
 3814TIP3   OH232932   1.797   2.599  13.213 -0.1261 -0.3093  0.2606
 3814TIP3    H132933   1.709   2.625  13.239 -0.2315  0.0115 -0.3909
 3814TIP3    H232934   1.783   2.532  13.146  0.1407 -1.3916  1.2704
 3815TIP3   OH232935   4.526   6.043  16.731 -0.1564 -0.1537  0.4150
 3815TIP3    H132936   4.483   5.997  16.803 -0.8155  1.3857  1.0264
 3815TIP3    H232937   4.615   6.009  16.731 -0.0998 -0.0458  2.0828
 3816TIP3   OH232938   0.879   4.731   2.965  0.0028  0.1843  0.7404
 3816TIP3    H132939   0.859   4.650   2.916  1.3388  0.5519 -0.4493
 3816TIP3    H232940   0.874   4.800   2.899 -0.1777  0.9549  1.5620
 3817TIP3   OH232941   5.641   1.586  16.572 -0.5207  0.1055 -0.1520
 3817TIP3    H132942   5.636   1.574  16.477 -1.7970 -1.1291  0.0612
 3817TIP3    H232943   5.718   1.642  16.585 -0.3699  0.3328 -1.9091
 3818TIP3   OH232944   1.309   5.000  14.505 -0.1831 -0.2250  0.1589
 3818TIP3    H132945   1.334   4.926  14.451 -1.4993 -1.0562  0.6534
 3818TIP3    H232946   1.347   4.981  14.591  0.4420  0.2406 -0.0106
 3819TIP3   OH232947   6.194   5.780  15.553 -0.5740  0.0570 -0.2055
 3819TIP3    H132948   6.217   5.690  15.575  0.5439  0.0668 -1.2926
 3819TIP3    H232949   6.210   5.787  15.459  0.6861  1.7750  0.1024
 3820TIP3   OH232950   0.264   0.297  16.836 -0.3355  0.3094 -0.4390
 3820TIP3    H132951   0.290   0.334  16.920  0.6554  1.7708 -1.3597
 3820TIP3    H232952   0.217   0.217  16.858  0.7773  0.1613  1.4590
 3821TIP3   OH232953   3.783   0.245  12.434 -0.2828  0.3034  0.1716
 3821TIP3    H132954   3.824   0.263  12.519  1.1942 -0.9415 -0.2491
 3821TIP3    H232955   3.745   0.328  12.407  1.1537  1.2525  1.0367
 3822TIP3   OH232956   5.535   0.602   5.176  0.2456 -0.4595 -0.4016
 3822TIP3    H132957   5.480   0.529   5.203  0.5931 -0.6288 -0.1474
 3822TIP3    H232958   5.579   0.630   5.257 -1.4139  1.3279 -0.0798
 3823TIP3   OH232959   0.787   5.604   4.261 -0.0790  0.8497  0.0610
 3823TIP3    H132960   0.788   5.682   4.205 -2.6071 -1.1838 -2.9575
 3823TIP3    H232961   0.771   5.531   4.201  0.3353 -1.8103  3.0670
 3824TIP3   OH232962   3.507   4.987  13.961  0.3721  0.3342  0.0344
 3824TIP3    H132963   3.497   5.080  13.983 -0.9297  0.5846 -1.4978
 3824TIP3    H232964   3.424   4.947  13.988  0.3059 -0.0847 -0.7699
 3825TIP3   OH232965   3.235   1.594   3.396 -0.2042  0.4348 -0.1630
 3825TIP3    H132966   3.309   1.541   3.427 -0.0277 -0.9131 -2.7461
 3825TIP3    H232967   3.158   1.553   3.436  0.3102  1.1974  1.6848
 3826TIP3   OH232968   0.089   5.827   0.628  0.1537  0.1758  0.1017
 3826TIP3    H132969   0.111   5.735   0.644 -0.7588 -0.0906 -0.1411
 3826TIP3    H232970   0.154   5.855   0.563  0.9809 -0.0416  0.8183
 3827TIP3   OH232971   3.927   5.709  10.272  0.0268 -0.4109  0.5775
 3827TIP3    H132972   3.990   5.728  10.342  2.0476 -0.9990 -1.0303
 3827TIP3    H232973   3.869   5.643  10.310  2.4224 -2.3511  1.0457
 3828TIP3   OH232974   0.503   2.389  11.090 -0.0920  0.0978  0.1529
 3828TIP3    H132975   0.450   2.432  11.157 -0.0670  2.0286 -1.0395
 3828TIP3    H232976   0.450   2.316  11.060 -1.6988  1.4462 -0.3582
 3829TIP3   OH232977   3.717   1.668   0.249 -0.5258 -0.4673  0.5064
 3829TIP3    H132978   3.697   1.705   0.163  0.0353  0.7920  0.9069
 3829TIP3    H232979   3.654   1.597   0.259 -0.9257 -0.3090 -0.7305
 3830TIP3   OH232980   6.331   6.082  16.593 -0.1797  0.7758 -0.4500
 3830TIP3    H132981   6.309   6.085  16.686  0.5553  0.1835 -0.2470
 3830TIP3    H232982   6.276   6.013  16.557 -0.4011  0.9454 -0.4328
 3831TIP3   OH232983   6.320   3.675   0.208  0.0694  0.2486  0.2078
 3831TIP3    H132984   6.347   3.765   0.229  0.3649  0.0617  0.6339
 3831TIP3    H232985   6.239   3.662   0.258 -0.4061  0.5414 -0.4663
 3832TIP3   OH232986   2.890   0.540   5.628 -0.1788 -1.2985 -0.1984
 3832TIP3    H132987   2.982   0.529   5.652 -0.0664 -0.3792 -0.1816
 3832TIP3    H232988   2.879   0.487   5.549  1.2287  1.2243 -2.1563
 3833TIP3   OH232989   3.245   4.738   4.774 -0.0011  0.0059  0.2321
 3833TIP3    H132990   3.333   4.774   4.766 -0.2281  0.4642 -0.2403
 3833TIP3    H232991   3.255   4.663   4.833  0.0744  2.3015  3.3177
 3834TIP3   OH232992   3.371   3.835   0.664 -0.5290 -0.0333  0.3219
 3834TIP3    H132993   3.305   3.848   0.597 -0.2762  1.2446  0.3076
 3834TIP3    H232994   3.420   3.757   0.636 -2.0329 -1.0145  0.3580
 3835TIP3   OH232995   4.617   4.897   1.648  0.0506  0.8722 -0.0445
 3835TIP3    H132996   4.656   4.819   1.609  2.4753  1.1428  1.6583
 3835TIP3    H232997   4.532   4.868   1.681  0.3637 -0.7176 -0.5935
 3836TIP3   OH232998   6.297   1.026  12.055  0.1699  0.4618 -0.0678
 3836TIP3    H132999   6.237   0.963  12.015  0.8055 -0.1039 -0.1359
 3836TIP3    H233000   6.384   0.988  12.043  0.4853  0.9475  0.6395
 3837TIP3   OH233001   6.485   4.217  13.285 -0.2744  0.3642 -0.2719
 3837TIP3    H133002   6.556   4.179  13.233  0.1464 -1.2783  1.4522
 3837TIP3    H233003   6.528   4.277  13.345 -0.6350  1.3171 -0.9462
 3838TIP3   OH233004   2.904   5.148  12.241  0.3971  0.1708  0.1389
 3838TIP3    H133005   2.937   5.220  12.295  0.5166 -0.1080  0.4406
 3838TIP3    H233006   2.983   5.110  12.202  0.3853 -0.1379  0.4100
 3839TIP3   OH233007   4.683   6.089  13.004 -0.1122  0.2579 -0.1251
 3839TIP3    H133008   4.753   6.091  13.070 -1.3332  1.5249  1.1612
 3839TIP3    H233009   4.642   6.003  13.015  0.8647 -0.2775 -0.5237
 3840TIP3   OH233010   1.018   5.282  16.185  0.0804  0.2816 -0.2306
 3840TIP3    H133011   1.072   5.328  16.120  1.1958 -2.7773 -1.5714
 3840TIP3    H233012   1.079   5.256  16.253 -0.7725  1.8079  1.1722
 3841TIP3   OH233013   4.647   6.501   3.450 -0.5157 -0.4742 -0.7867
 3841TIP3    H133014   4.589   6.472   3.521 -0.1891 -3.5699 -1.6983
 3841TIP3    H233015   4.725   6.532   3.494 -1.5545  0.6293  0.3186
 3842TIP3   OH233016   3.503   0.807   5.469 -0.5306 -0.2715 -0.6626
 3842TIP3    H133017   3.536   0.718   5.474 -0.2349 -0.1501 -0.3983
 3842TIP3    H233018   3.560   0.851   5.406 -0.1914 -0.0683 -0.2241
 3843TIP3   OH233019   6.296   5.827   4.005  0.3047 -0.8634 -0.3897
 3843TIP3    H133020   6.264   5.872   4.083  1.0535 -0.1545 -0.4774
 3843TIP3    H233021   6.336   5.747   4.037  1.0401 -0.3456  0.0195
 3844TIP3   OH233022   0.647   4.828   3.407  0.3856  0.5190 -0.3467
 3844TIP3    H133023   0.709   4.802   3.339  0.3383 -0.0670 -0.1663
 3844TIP3    H233024   0.701   4.851   3.482  0.3660 -0.6502  0.0376
 3845TIP3   OH233025   2.346   6.281   4.624 -0.0836 -1.0784 -0.4894
 3845TIP3    H133026   2.440   6.269   4.615  0.3070  0.5376  1.0883
 3845TIP3    H233027   2.325   6.352   4.564 -0.0404 -0.4466  0.2391
 3846TIP3   OH233028   6.289   4.969  15.074 -0.0489 -0.0629  0.4630
 3846TIP3    H133029   6.319   5.058  15.091  1.5151 -0.9171  2.2110
 3846TIP3    H233030   6.236   4.946  15.150 -0.5975 -0.5906 -0.0645
 3847TIP3   OH233031   5.946   1.482  17.198  0.0338 -0.1468  0.0399
 3847TIP3    H133032   5.913   1.433  17.273  0.3145 -0.5811 -0.1174
 3847TIP3    H233033   5.917   1.432  17.122 -3.5810  2.3135 -0.3198
 3848TIP3   OH233034   4.475   3.579  14.677 -0.5992 -0.4055 -0.0462
 3848TIP3    H133035   4.434   3.632  14.746 -1.1592 -1.1359  0.1898
 3848TIP3    H233036   4.520   3.509  14.724  0.0309 -0.2210 -0.3640
 3849TIP3   OH233037   4.629   0.827  14.864 -0.1661  0.1415  0.2344
 3849TIP3    H133038   4.640   0.920  14.883 -2.5126  0.8375 -1.6226
 3849TIP3    H233039   4.535   0.816  14.853  0.3250 -1.8652 -2.3980
 3850TIP3   OH233040   6.587   3.460  16.339  0.5321  0.1564  0.1023
 3850TIP3    H133041   6.676   3.484  16.316  0.3916 -0.3507 -1.0300
 3850TIP3    H233042   6.572   3.500  16.424  1.3425  1.4784 -0.3549
 3851TIP3   OH233043   2.478   3.850  13.340  0.3956 -0.0267 -0.2769
 3851TIP3    H133044   2.490   3.778  13.277  1.0635  0.8580 -1.1792
 3851TIP3    H233045   2.478   3.929  13.286  2.4748  0.8715  0.9976
 3852TIP3   OH233046   6.701   2.721  14.564  0.5378  0.2397  0.5155
 3852TIP3    H133047   6.699   2.673  14.482 -0.4476 -0.6358  1.0275
 3852TIP3    H233048   6.789   2.707  14.599 -0.1325 -2.3610  1.3053
 3853TIP3   OH233049   5.556   2.933   2.286 -0.2085  0.0046 -0.0348
 3853TIP3    H133050   5.586   2.939   2.195 -1.9194  0.1910 -0.5982
 3853TIP3    H233051   5.526   3.022   2.307 -0.6747 -0.2612  0.4197
 3854TIP3   OH233052   0.581   4.107   4.497 -0.0416 -0.4582 -0.0783
 3854TIP3    H133053   0.539   4.038   4.447  1.2343 -1.5461  0.3248
 3854TIP3    H233054   0.518   4.179   4.496 -1.6212 -1.8085 -0.0268
 3855TIP3   OH233055   6.009   0.100  15.332  0.1875 -0.4793 -0.1519
 3855TIP3    H133056   5.997   0.088  15.238  0.6460 -0.5449 -0.2042
 3855TIP3    H233057   6.052   0.019  15.361  0.5908 -0.2087  0.0070
 3856TIP3   OH233058   0.841   3.963  12.265  0.1363  0.5085 -0.5866
 3856TIP3    H133059   0.885   3.886  12.302  2.0189  1.1688 -1.3707
 3856TIP3    H233060   0.846   4.029  12.334 -0.1580  0.3916 -0.4532
 3857TIP3   OH233061   4.974   4.243  16.813  0.0591  0.8884 -0.0041
 3857TIP3    H133062   4.975   4.201  16.899  1.1673  0.3563 -0.2674
 3857TIP3    H233063   5.064   4.235  16.781 -0.4048  0.8086 -1.3419
 3858TIP3   OH233064   5.892   2.063  13.756 -0.2889 -0.2746  0.4177
 3858TIP3    H133065   5.797   2.053  13.760 -0.5260  1.5722 -0.2779
 3858TIP3    H233066   5.926   1.973  13.761 -2.0484 -0.9256  0.8893
 3859TIP3   OH233067   5.693   1.379  14.088 -0.2372  0.6810  0.3198
 3859TIP3    H133068   5.706   1.298  14.038 -0.7729  1.5147 -1.1916
 3859TIP3    H233069   5.639   1.434  14.031 -1.8322  1.2166  2.3011
 3860TIP3   OH233070   5.093   2.530  14.387  0.2158 -0.1435  0.3668
 3860TIP3    H133071   5.158   2.489  14.444  0.5403  0.3704  0.3723
 3860TIP3    H233072   5.110   2.624  14.396 -1.0525  0.0262  0.9777
 3861TIP3   OH233073   2.714   2.813  14.225  0.1232  0.3920  0.1627
 3861TIP3    H133074   2.639   2.759  14.250  1.2270 -1.8339 -1.1752
 3861TIP3    H233075   2.706   2.825  14.131  2.2402 -1.1727 -0.2508
 3862TIP3   OH233076   0.293   3.919   6.613  0.5057 -0.3030  0.2412
 3862TIP3    H133077   0.234   3.951   6.681  0.5461 -0.5166  0.3760
 3862TIP3    H233078   0.236   3.907   6.537  1.1159  3.5995 -0.9403
 3863TIP3   OH233079   0.350   3.562  12.737  0.2764 -0.3667  0.7139
 3863TIP3    H133080   0.407   3.551  12.813  1.1064  1.0834  0.3319
 3863TIP3    H233081   0.389   3.506  12.670  0.2192 -0.7555  1.0077
 3864TIP3   OH233082   0.755   0.556   6.061 -0.8107 -0.0411 -0.2442
 3864TIP3    H133083   0.719   0.468   6.070 -0.5962  0.0253  1.3305
 3864TIP3    H233084   0.799   0.573   6.144  0.5401  0.9331 -1.1350
 3865TIP3   OH233085   4.862   2.682  14.654 -0.6853 -0.0460  0.6151
 3865TIP3    H133086   4.949   2.683  14.614 -0.5559  0.7433  0.9023
 3865TIP3    H233087   4.849   2.772  14.684 -1.0011 -0.5012  1.8667
 3866TIP3   OH233088   0.858   0.796  11.081  0.2087  0.5951 -1.3121
 3866TIP3    H133089   0.907   0.724  11.041 -1.0841 -0.4371 -1.0703
 3866TIP3    H233090   0.831   0.850  11.007 -0.0674  0.0346 -1.6244
 3867TIP3   OH233091   1.016   6.523  14.278 -0.1169 -0.1029 -1.0363
 3867TIP3    H133092   0.968   6.594  14.235  0.1314 -0.0370 -1.2068
 3867TIP3    H233093   1.046   6.561  14.360  0.3083  0.0930 -1.2825
 3868TIP3   OH233094   1.642   1.252   6.407  0.5250  0.0392 -0.1071
 3868TIP3    H133095   1.616   1.232   6.317 -1.9886 -0.3509  0.6554
 3868TIP3    H233096   1.568   1.303   6.442  1.3675 -0.0159  1.8024
 3869TIP3   OH233097   0.978   3.381  15.901 -0.4733 -0.3173 -0.1874
 3869TIP3    H133098   0.893   3.370  15.944 -0.4507 -1.6942 -0.4611
 3869TIP3    H233099   1.038   3.405  15.972 -1.0778  0.5726  0.0214
 3870TIP3   OH233100   4.418   0.043   3.432  0.1580 -0.2227  0.5259
 3870TIP3    H133101   4.354   0.096   3.478 -0.6109 -0.4734 -0.2483
 3870TIP3    H233102   4.434   0.090   3.350 -0.9380 -1.4542 -0.4138
 3871TIP3   OH233103   1.932   3.226   1.546  0.3485 -0.3280 -0.4156
 3871TIP3    H133104   1.866   3.191   1.486 -0.1654  1.0028 -0.6390
 3871TIP3    H233105   1.907   3.317   1.559  0.6637 -0.5118  1.5582
 3872TIP3   OH233106   0.945   6.360   4.076  0.3068  0.0574  0.7549
 3872TIP3    H133107   0.987   6.276   4.061  0.4286 -0.1636  2.3544
 3872TIP3    H233108   0.853   6.346   4.051  1.1686  0.6827 -3.2478
 3873TIP3   OH233109   3.232   5.873  10.898  0.6322 -0.0259 -0.2876
 3873TIP3    H133110   3.304   5.888  10.958 -0.7296  1.4644  1.0367
 3873TIP3    H233111   3.177   5.808  10.941 -0.4143  1.1388  0.1912
 3874TIP3   OH233112   1.283   1.306   0.430 -0.1219  0.4850 -0.3676
 3874TIP3    H133113   1.296   1.400   0.418 -0.7580  0.6268 -0.0007
 3874TIP3    H233114   1.340   1.265   0.366  0.5144  1.1154 -0.2084
 3875TIP3   OH233115   2.055   4.104  14.365  0.3260  0.3893  0.6729
 3875TIP3    H133116   2.117   4.125  14.295  0.6782 -1.0313  0.5568
 3875TIP3    H233117   2.109   4.062  14.433 -0.4467 -0.4729  0.7491
 3876TIP3   OH233118   0.757   3.742  16.404  0.2841  0.5224  0.1293
 3876TIP3    H133119   0.780   3.649  16.411 -1.7269  0.1334  1.9450
 3876TIP3    H233120   0.738   3.755  16.311 -0.4685 -1.1437  0.0260
 3877TIP3   OH233121   1.002   6.793   4.761  0.4746  0.0710 -0.2356
 3877TIP3    H133122   1.096   6.774   4.759  0.5043  0.3044 -1.6566
 3877TIP3    H233123   0.973   6.778   4.670 -0.7979  0.2958  0.1271
 3878TIP3   OH233124   5.556   3.945  13.211  0.0811  0.0734 -0.0506
 3878TIP3    H133125   5.539   3.998  13.133 -0.0915  0.3912  0.2037
 3878TIP3    H233126   5.469   3.931  13.249  0.0663 -0.8392 -0.4092
 3879TIP3   OH233127   5.486   4.276  15.755  0.3135 -0.5961 -0.1492
 3879TIP3    H133128   5.544   4.245  15.685  0.1036 -0.7080 -0.2738
 3879TIP3    H233129   5.527   4.244  15.836 -0.9508 -2.9067 -0.3883
 3880TIP3   OH233130   6.601   0.443   4.673 -0.4419 -0.4286  0.5444
 3880TIP3    H133131   6.537   0.509   4.649  0.1354 -0.2541 -0.5440
 3880TIP3    H233132   6.640   0.475   4.755  0.2609  0.8973 -0.2899
 3881TIP3   OH233133   1.167   1.564  12.798 -0.0829 -0.2959 -0.2291
 3881TIP3    H133134   1.180   1.473  12.769 -1.4615 -0.5704 -0.0435
 3881TIP3    H233135   1.143   1.555  12.891  2.0610  0.4179  0.4025
 3882TIP3   OH233136   6.101   1.934  16.146  0.4856  0.0168 -0.1694
 3882TIP3    H133137   6.032   1.964  16.206 -0.4178 -0.9077 -0.7473
 3882TIP3    H233138   6.127   2.013  16.099 -0.7432  0.2382 -0.5154
 3883TIP3   OH233139   1.109   1.565  12.014 -0.0332 -0.5096 -0.4091
 3883TIP3    H133140   1.159   1.483  12.010  1.2048  0.2406 -0.8067
 3883TIP3    H233141   1.057   1.565  11.934 -0.1759 -0.9953 -0.3194
 3884TIP3   OH233142   3.829   2.765  11.436  0.1328  0.0209 -0.8120
 3884TIP3    H133143   3.811   2.816  11.515  3.4751 -0.4560  0.3267
 3884TIP3    H233144   3.880   2.824  11.380  0.2069 -0.5899 -1.3991
 3885TIP3   OH233145   4.318   0.544  13.786  0.2793  0.1787 -0.1195
 3885TIP3    H133146   4.258   0.600  13.836 -0.2639  0.8506 -1.5075
 3885TIP3    H233147   4.398   0.595  13.779  0.1806  0.2958 -0.3842
 3886TIP3   OH233148   2.294   1.474  15.657 -0.1584 -0.4650 -0.6023
 3886TIP3    H133149   2.381   1.481  15.617 -0.0699  2.3332 -0.0308
 3886TIP3    H233150   2.312   1.460  15.750 -0.2049  3.3388  0.0622
 3887TIP3   OH233151   1.394   0.129   4.545 -0.0284 -0.1125 -0.5095
 3887TIP3    H133152   1.446   0.063   4.500  1.1949 -0.8050  1.8324
 3887TIP3    H233153   1.408   0.112   4.638 -1.5413  1.9994  0.1602
 3888TIP3   OH233154   2.634   0.371  13.042 -0.3647  0.5739  0.2072
 3888TIP3    H133155   2.726   0.371  13.017 -0.0420  0.1526  1.3733
 3888TIP3    H233156   2.634   0.359  13.137 -1.5569  2.5597  0.4888
 3889TIP3   OH233157   1.776   1.377   6.620  1.0541  0.3638  0.6944
 3889TIP3    H133158   1.722   1.456   6.616 -0.2086 -0.4295  1.8050
 3889TIP3    H233159   1.731   1.315   6.563 -0.7719 -1.2087  3.7296
 3890TIP3   OH233160   3.999   5.853   0.365  0.2328 -0.1601  1.0276
 3890TIP3    H133161   4.047   5.816   0.291  2.0196  0.8848  1.6126
 3890TIP3    H233162   4.011   5.790   0.436 -1.7930 -1.3404  0.3320
 3891TIP3   OH233163   5.208   4.180  10.267  0.1240 -0.0621 -0.5109
 3891TIP3    H133164   5.174   4.170  10.356 -0.8166 -2.3457 -1.0825
 3891TIP3    H233165   5.158   4.254  10.231 -0.8586 -0.3448  0.2418
 3892TIP3   OH233166   2.620   5.613   6.483 -0.2458 -0.7774 -0.1272
 3892TIP3    H133167   2.535   5.633   6.445 -1.5438 -3.6493  1.0838
 3892TIP3    H233168   2.612   5.636   6.576  0.5783 -0.2712 -0.1735
 3893TIP3   OH233169   1.784   1.052   1.672  0.1420 -0.0010  0.0405
 3893TIP3    H133170   1.821   1.132   1.636 -1.5055  0.5731 -0.4577
 3893TIP3    H233171   1.699   1.044   1.629  0.7176 -2.5903 -0.7379
 3894TIP3   OH233172   3.837   1.479  10.936  0.6091  0.4060  0.2025
 3894TIP3    H133173   3.828   1.563  10.981  0.4541  1.3354 -1.5485
 3894TIP3    H233174   3.747   1.450  10.921  0.6621 -0.1827  0.9897
 3895TIP3   OH233175   3.446   0.002   3.995 -0.2200 -0.4435 -0.1559
 3895TIP3    H133176   3.416   0.093   3.993  0.2826 -0.2423  0.9890
 3895TIP3    H233177   3.375  -0.048   3.953 -0.6844  0.4158 -0.4026
 3896TIP3   OH233178   2.462   3.310  13.248  0.0911  0.0949  0.3274
 3896TIP3    H133179   2.419   3.311  13.334 -0.5903 -0.1401 -0.0090
 3896TIP3    H233180   2.397   3.348  13.189 -0.1198 -1.3968 -0.4038
 3897TIP3   OH233181   2.509   2.055  17.134 -0.0558 -0.4757 -0.5122
 3897TIP3    H133182   2.590   2.022  17.174 -0.6590 -0.4481  0.7173
 3897TIP3    H233183   2.448   1.982  17.141 -0.5157 -0.0709 -0.3500
 3898TIP3   OH233184   1.115   0.307  12.626  0.3751 -0.1499 -0.1055
 3898TIP3    H133185   1.194   0.356  12.601  1.7060 -2.8641 -1.3428
 3898TIP3    H233186   1.095   0.339  12.714  0.5565  3.3811 -1.2488
 3899TIP3   OH233187   4.071   1.044   5.288 -0.0618  0.5689 -0.2679
 3899TIP3    H133188   4.114   1.012   5.209 -0.2718  0.9527 -0.5362
 3899TIP3    H233189   4.061   1.138   5.275  0.2307  0.6942  0.3708
 3900TIP3   OH233190   0.889   3.371  13.853 -0.5413 -0.8042  0.6438
 3900TIP3    H133191   0.864   3.433  13.921 -0.6240 -0.9258  0.7235
 3900TIP3    H233192   0.854   3.287  13.883  0.1285 -1.0113  0.8577
 3901TIP3   OH233193   2.476   0.222   0.831  0.4199  0.2282 -0.3918
 3901TIP3    H133194   2.497   0.232   0.738  0.0996 -0.0516 -0.4919
 3901TIP3    H233195   2.472   0.128   0.846  0.6921  0.2694 -0.0435
 3902TIP3   OH233196   2.541   0.110   6.876  0.3411  0.4540 -0.4087
 3902TIP3    H133197   2.541   0.068   6.790  0.0293  0.2776 -0.3231
 3902TIP3    H233198   2.462   0.165   6.875 -1.5563 -2.1808  1.0565
 3903TIP3   OH233199   3.693   5.600  14.661  0.6347 -0.0439  0.2015
 3903TIP3    H133200   3.713   5.690  14.635  2.5750  0.4929  3.3148
 3903TIP3    H233201   3.771   5.551  14.638 -0.3539 -0.9576 -1.3248
 3904TIP3   OH233202   4.382   1.736  15.507 -0.6641  0.2800 -0.4772
 3904TIP3    H133203   4.412   1.735  15.598 -1.0750  1.7144 -0.3090
 3904TIP3    H233204   4.462   1.744  15.456 -0.3281 -1.9632 -0.3091
 3905TIP3   OH233205   1.167   3.793   3.246  0.1538 -0.0067 -0.5550
 3905TIP3    H133206   1.248   3.830   3.212  1.0923 -2.3677 -0.9869
 3905TIP3    H233207   1.180   3.698   3.243 -2.0645 -0.4098  0.7338
 3906TIP3   OH233208   4.311   0.601  12.556 -0.8498 -0.4636  0.1838
 3906TIP3    H133209   4.359   0.568  12.633 -0.8833 -1.9498 -0.4228
 3906TIP3    H233210   4.380   0.628  12.495 -0.8221  0.3505  0.5588
 3907TIP3   OH233211   5.724   6.608   5.436  0.4979  0.2583  0.5269
 3907TIP3    H133212   5.714   6.513   5.432  2.3605  0.0529 -0.0504
 3907TIP3    H233213   5.659   6.642   5.374 -0.2160 -0.6239  0.7797
 3908TIP3   OH233214   0.943   2.274   1.493  0.4289 -0.1265 -0.6397
 3908TIP3    H133215   1.020   2.331   1.485 -0.2257  0.9095  0.4841
 3908TIP3    H233216   0.969   2.194   1.446  2.1293  0.2709 -0.4259
 3909TIP3   OH233217   3.926   5.865  15.627  0.6625 -0.4651 -0.1103
 3909TIP3    H133218   3.861   5.865  15.558  0.6008  1.1758 -0.0665
 3909TIP3    H233219   4.005   5.902  15.586  0.0804  2.2881  1.1663
 3910TIP3   OH233220   0.145   1.777  12.589  0.0423 -0.1112 -0.0965
 3910TIP3    H133221   0.130   1.847  12.652  0.9484 -1.1743  1.3194
 3910TIP3    H233222   0.196   1.712  12.636  1.3640 -0.6182 -2.1433
 3911TIP3   OH233223   1.004   5.528   5.791  0.3688  0.4780 -0.1527
 3911TIP3    H133224   1.001   5.475   5.711  0.7331  1.4379 -0.8090
 3911TIP3    H233225   1.044   5.470   5.856 -2.1417 -1.1613  0.0184
 3912TIP3   OH233226   2.654   6.310   6.069  0.3392 -0.0443  0.0666
 3912TIP3    H133227   2.739   6.333   6.106 -0.0450  0.6160  0.5602
 3912TIP3    H233228   2.597   6.302   6.145 -0.0194 -0.5884 -0.2549
 3913TIP3   OH233229   4.425   6.284   0.734  0.5945 -0.0740  0.1487
 3913TIP3    H133230   4.421   6.322   0.821  1.5352  0.4978 -0.0542
 3913TIP3    H233231   4.341   6.238   0.724  0.6495 -0.4751  1.4916
 3914TIP3   OH233232   6.639   1.714  16.213  0.6760 -0.2038 -0.1537
 3914TIP3    H133233   6.625   1.672  16.298  0.4885  0.5862  0.2039
 3914TIP3    H233234   6.554   1.752  16.191  0.8007 -0.1587 -0.5679
 3915TIP3   OH233235   2.139   0.909  13.138  0.0882 -0.1831 -0.3810
 3915TIP3    H133236   2.075   0.939  13.073 -0.5550  0.6936  0.6341
 3915TIP3    H233237   2.110   0.821  13.162 -1.1079  0.4419  0.5231
 3916TIP3   OH233238   4.799   1.693  16.666 -0.0848 -0.4869 -0.7413
 3916TIP3    H133239   4.795   1.605  16.627  1.0803 -0.8121 -0.1381
 3916TIP3    H233240   4.892   1.711  16.675 -0.2633  1.9566 -3.3820
 3917TIP3   OH233241   3.807   2.654   4.621  0.0549 -0.1806  0.0702
 3917TIP3    H133242   3.750   2.692   4.555 -0.6386  1.3776  1.5401
 3917TIP3    H233243   3.892   2.697   4.607 -0.2995  0.7263  0.6876
 3918TIP3   OH233244   1.638   2.916  16.894  0.5062 -0.5033 -0.2053
 3918TIP3    H133245   1.657   3.010  16.882  2.2875 -0.9227 -0.8809
 3918TIP3    H233246   1.576   2.895  16.825  1.7521 -0.2937 -1.4016
 3919TIP3   OH233247   4.319   1.332  11.474 -0.2444  0.9803  0.6532
 3919TIP3    H133248   4.356   1.244  11.470 -0.1233  1.0357  0.5504
 3919TIP3    H233249   4.238   1.326  11.422 -0.2379  0.9302  0.6484
 3920TIP3   OH233250   3.354   4.724   2.891  0.6184  0.2025 -0.1054
 3920TIP3    H133251   3.430   4.721   2.950  0.2527 -2.1091  0.2692
 3920TIP3    H233252   3.364   4.647   2.835 -0.4759  0.9102 -1.2869
 3921TIP3   OH233253   5.715   6.807   1.997  0.3579 -0.3097 -0.0126
 3921TIP3    H133254   5.673   6.859   1.928  1.1736  0.0018 -0.2824
 3921TIP3    H233255   5.687   6.717   1.980  0.2472 -0.1810 -0.5237
 3922TIP3   OH233256   5.880   1.470   2.919  0.2007  0.8015 -0.1161
 3922TIP3    H133257   5.847   1.399   2.975  0.8268  1.3318  0.9531
 3922TIP3    H233258   5.802   1.516   2.889 -0.1821 -0.0332 -0.3967
 3923TIP3   OH233259   1.763   2.449   2.490  0.2193 -0.3909  0.3775
 3923TIP3    H133260   1.674   2.443   2.525  0.5918  0.2534  1.4578
 3923TIP3    H233261   1.817   2.473   2.565  0.7809  2.8542 -0.9632
 3924TIP3   OH233262   6.069   5.406   2.278  0.1838 -0.3191  0.2177
 3924TIP3    H133263   5.978   5.396   2.249  0.0573  1.2185  0.0056
 3924TIP3    H233264   6.121   5.378   2.203 -0.1124 -1.9584  0.6226
 3925TIP3   OH233265   6.587   0.785   3.895  0.0905 -0.1677 -0.1300
 3925TIP3    H133266   6.533   0.707   3.906 -0.8448  0.3837 -0.7924
 3925TIP3    H233267   6.604   0.789   3.801 -0.6512  0.9443 -0.2206
 3926TIP3   OH233268   3.301   0.899   5.617  0.1382 -0.0017 -0.3324
 3926TIP3    H133269   3.348   0.945   5.686 -0.3613  0.7992 -0.5218
 3926TIP3    H233270   3.370   0.863   5.560  0.5303  0.0810  0.0940
 3927TIP3   OH233271   4.608   3.102  13.926  0.0518 -0.1559 -0.1213
 3927TIP3    H133272   4.598   3.106  14.021  1.1046 -1.4622  0.0605
 3927TIP3    H233273   4.631   3.192  13.900  0.9358 -0.0490  1.0053
 3928TIP3   OH233274   1.188   3.556  15.591  0.1539 -0.2035 -0.2045
 3928TIP3    H133275   1.129   3.615  15.637  0.2319 -1.3478  1.3762
 3928TIP3    H233276   1.269   3.607  15.581  0.1364  0.0544  0.9261
 3929TIP3   OH233277   3.039   2.734   2.018  0.1737  0.5179  0.3164
 3929TIP3    H133278   2.990   2.787   1.955 -0.2399  0.5487  0.6565
 3929TIP3    H233279   3.104   2.688   1.966 -1.5351 -1.0940 -0.4682
 3930TIP3   OH233280   4.970   6.639   3.849  0.1423  0.1150 -0.0674
 3930TIP3    H133281   4.998   6.702   3.783 -0.2466 -0.1001 -0.4403
 3930TIP3    H233282   5.035   6.646   3.919 -0.8525  2.2304  0.7106
 3931TIP3   OH233283   2.965   4.088  10.820 -0.0535  0.2700 -0.0473
 3931TIP3    H133284   2.906   4.044  10.881  1.9716  0.4883  2.1440
 3931TIP3    H233285   2.946   4.181  10.832  0.1254  0.2997  0.0006
 3932TIP3   OH233286   3.066   0.663   2.678  0.0005  0.1773 -0.3205
 3932TIP3    H133287   2.992   0.619   2.720 -0.5458  1.5859  0.2524
 3932TIP3    H233288   3.123   0.593   2.649 -0.5894 -0.8817  1.0252
 3933TIP3   OH233289   5.720   0.227   3.670  0.2496  0.6002 -0.0456
 3933TIP3    H133290   5.678   0.170   3.733  1.0427 -1.1407 -1.0606
 3933TIP3    H233291   5.650   0.284   3.638 -0.3430  0.8527  1.6883
 3934TIP3   OH233292   1.643   1.528  13.323  0.8510  0.4429  0.2765
 3934TIP3    H133293   1.600   1.475  13.256  0.3867 -2.1175  2.5004
 3934TIP3    H233294   1.735   1.527  13.299  0.9379 -1.9061  0.5590
 3935TIP3   OH233295   4.766   3.303   4.288 -0.1147  0.3328  0.4268
 3935TIP3    H133296   4.858   3.331   4.287 -0.3711  1.1854 -0.6536
 3935TIP3    H233297   4.769   3.208   4.281  0.7252  0.2601  1.7516
 3936TIP3   OH233298   5.249   4.656  11.420  0.3750  0.1218  0.2132
 3936TIP3    H133299   5.308   4.696  11.484  0.4229  0.5103 -0.0713
 3936TIP3    H233300   5.179   4.721  11.409  1.2342  0.8080 -1.3825
 3937TIP3   OH233301   3.404   5.448  11.322 -0.2509 -0.5336 -0.6265
 3937TIP3    H133302   3.381   5.401  11.242 -0.8710 -0.7726 -0.3107
 3937TIP3    H233303   3.442   5.531  11.292  0.7380 -1.1860 -1.1826
 3938TIP3   OH233304   4.723   2.974  14.629 -0.1344 -0.0143 -0.0404
 3938TIP3    H133305   4.803   3.024  14.611  1.0643 -1.7956  0.1981
 3938TIP3    H233306   4.700   2.936  14.544  0.6715 -1.4656  0.3700
 3939TIP3   OH233307   6.640   1.610  14.762 -0.3855 -0.1621 -0.3246
 3939TIP3    H133308   6.675   1.637  14.677  0.2364 -1.1014 -0.3665
 3939TIP3    H233309   6.546   1.601  14.748 -0.1588 -1.2573 -1.1622
 3940TIP3   OH233310   3.668   5.205   6.100 -0.3668  0.0198  0.4761
 3940TIP3    H133311   3.639   5.113   6.104  0.2349 -0.1350  1.4797
 3940TIP3    H233312   3.719   5.217   6.180  0.0637  1.0679  0.0465
 3941TIP3   OH233313   2.094   5.420   2.955  0.8106 -0.0773 -0.0891
 3941TIP3    H133314   2.043   5.392   2.880  0.1965  0.4111  0.1486
 3941TIP3    H233315   2.175   5.368   2.950  0.2708 -0.8879 -0.4257
 3942TIP3   OH233316   1.086   0.671  17.034  0.5491 -0.2243 -0.7505
 3942TIP3    H133317   1.092   0.762  17.065 -0.2274 -0.3190 -0.2858
 3942TIP3    H233318   0.993   0.659  17.014  0.4242 -1.2974  0.3948
 3943TIP3   OH233319   2.614   1.615  12.293  0.0507 -0.1814 -0.2968
 3943TIP3    H133320   2.590   1.677  12.224 -2.5497  0.2478  0.9422
 3943TIP3    H233321   2.624   1.670  12.371 -0.8036 -1.1208  0.4871
 3944TIP3   OH233322   4.115   2.718   4.641  0.0362  0.1157  0.6476
 3944TIP3    H133323   4.093   2.811   4.642  0.7649  0.3850 -2.3346
 3944TIP3    H233324   4.209   2.716   4.621 -0.2802 -1.2802 -0.7810
 3945TIP3   OH233325   6.245   1.056   2.125  0.2024 -0.0227 -0.3185
 3945TIP3    H133326   6.276   1.086   2.040 -0.0513 -1.5547 -0.9719
 3945TIP3    H233327   6.275   0.965   2.131  0.1534  0.0462  1.1970
 3946TIP3   OH233328   6.347   5.557  10.737 -1.0092  0.5781 -0.0808
 3946TIP3    H133329   6.420   5.504  10.769 -0.9031  1.0985  0.5636
 3946TIP3    H233330   6.303   5.501  10.674 -1.1859 -0.4643  0.9360
 3947TIP3   OH233331   2.645   3.048  17.053  0.1388  0.0397 -0.4034
 3947TIP3    H133332   2.600   2.990  16.991  0.9559 -0.3444 -0.6381
 3947TIP3    H233333   2.681   3.117  16.999  0.3190  0.0432 -0.2760
 3948TIP3   OH233334   0.673   1.335   4.297  0.3701 -0.2877  0.4354
 3948TIP3    H133335   0.735   1.323   4.369  0.2656  2.0071  0.9360
 3948TIP3    H233336   0.626   1.416   4.318 -0.7172 -0.3875 -1.4558
 3949TIP3   OH233337   0.852   4.709  13.610 -0.6385 -0.0163 -0.2541
 3949TIP3    H133338   0.768   4.716  13.655  0.2146 -0.2830  1.4567
 3949TIP3    H233339   0.880   4.618  13.625  0.6678  0.5044  0.5519
 3950TIP3   OH233340   1.770   5.745  14.872 -0.5134  0.0118 -0.3873
 3950TIP3    H133341   1.773   5.681  14.801  2.6587 -0.0395 -0.3041
 3950TIP3    H233342   1.859   5.746  14.907 -1.4577  1.6652  2.1467
 3951TIP3   OH233343   2.916   2.975  14.724 -0.2695 -0.4154 -0.0330
 3951TIP3    H133344   2.940   3.051  14.670 -0.4524 -0.1438  0.2665
 3951TIP3    H233345   2.977   2.907  14.697 -0.0446 -0.1362 -0.2422
 3952TIP3   OH233346   4.241   0.326  14.696  0.0691  0.1005 -0.0828
 3952TIP3    H133347   4.250   0.357  14.606  0.7987  3.3041  1.0371
 3952TIP3    H233348   4.319   0.359  14.741 -1.1885  0.1411  2.1389
 3953TIP3   OH233349   4.403   3.431  11.486  0.4843  0.2912 -0.1846
 3953TIP3    H133350   4.336   3.366  11.463  1.3494 -0.5268 -0.4430
 3953TIP3    H233351   4.358   3.494  11.541 -0.1652 -1.0221  0.8006
 3954TIP3   OH233352   5.894   4.756   0.596 -0.5533 -0.0141 -0.1288
 3954TIP3    H133353   5.929   4.792   0.515 -2.1079 -0.4162 -0.9990
 3954TIP3    H233354   5.901   4.661   0.586  0.5796 -0.0464  0.8257
 3955TIP3   OH233355   2.240   5.040   1.973 -0.1511  0.1928 -0.4130
 3955TIP3    H133356   2.309   4.979   1.948  1.2689  1.8827 -0.6678
 3955TIP3    H233357   2.264   5.122   1.931 -1.9368  0.9988  0.0950
 3956TIP3   OH233358   1.086   6.345   1.608  0.1577 -0.6758  0.3662
 3956TIP3    H133359   1.154   6.278   1.604 -0.0990 -0.9187  0.0866
 3956TIP3    H233360   1.085   6.373   1.700 -1.2444 -2.6386  0.9842
 3957TIP3   OH233361   5.404   6.164  16.208  0.2201 -0.1806  0.1966
 3957TIP3    H133362   5.446   6.122  16.132  0.0265  0.2902 -0.1737
 3957TIP3    H233363   5.431   6.255  16.203  0.9454 -0.3354  1.2218
 3958TIP3   OH233364   6.350   3.357   0.633 -1.0813  0.0628 -0.0122
 3958TIP3    H133365   6.425   3.298   0.623  0.4098  1.7386  0.8164
 3958TIP3    H233366   6.307   3.355   0.548  0.6395 -0.0032 -0.9157
 3959TIP3   OH233367   1.331   0.759   3.489  0.3371 -0.4765 -0.2790
 3959TIP3    H133368   1.306   0.736   3.400 -0.1786 -0.5551 -0.1147
 3959TIP3    H233369   1.310   0.681   3.541  0.2434 -0.2816 -0.0218
 3960TIP3   OH233370   1.138   5.670   2.175 -0.3022 -0.3596  0.2797
 3960TIP3    H133371   1.054   5.642   2.212  0.1467  0.8500  2.2879
 3960TIP3    H233372   1.198   5.670   2.250  1.0281  0.6360 -0.7674
 3961TIP3   OH233373   3.754   5.470  14.195  0.2477  0.6247 -0.5192
 3961TIP3    H133374   3.727   5.382  14.219  0.7515  0.8864  1.0403
 3961TIP3    H233375   3.820   5.457  14.127  1.0211 -0.2432  0.3800
 3962TIP3   OH233376   4.421   6.808   4.711  0.3412 -0.1662 -0.1449
 3962TIP3    H133377   4.490   6.779   4.653 -0.1587  0.3260 -0.9899
 3962TIP3    H233378   4.464   6.819   4.796  1.0375 -1.0166 -0.3826
 3963TIP3   OH233379   5.144   2.562  11.411  0.4414 -0.3729 -0.5655
 3963TIP3    H133380   5.232   2.554  11.446  0.7558 -0.3055 -1.3336
 3963TIP3    H233381   5.123   2.655  11.421 -0.1680 -0.6684  1.0883
 3964TIP3   OH233382   0.928   3.525   3.320  0.2481  0.5245 -0.0201
 3964TIP3    H133383   0.833   3.536   3.324 -0.0410 -1.6153 -0.5430
 3964TIP3    H233384   0.951   3.478   3.400  0.7003 -0.0271 -0.4681
 3965TIP3   OH233385   4.446   3.868   4.906  0.5931 -0.0985 -0.1967
 3965TIP3    H133386   4.391   3.916   4.968 -0.6578 -1.8125  0.0689
 3965TIP3    H233387   4.509   3.821   4.961  1.9558  1.3561 -0.4664
 3966TIP3   OH233388   3.967   2.075   3.190  0.0651 -0.2384 -0.3629
 3966TIP3    H133389   3.970   2.152   3.246  0.5891 -0.5442  0.0400
 3966TIP3    H233390   4.002   2.004   3.245 -0.2746 -0.7324 -0.7702
 3967TIP3   OH233391   4.210   2.152  12.479  0.0226 -0.1307 -0.1361
 3967TIP3    H133392   4.247   2.213  12.542 -0.0173  0.5957 -0.8144
 3967TIP3    H233393   4.121   2.182  12.465  0.0263 -0.3005 -0.5292
 3968TIP3   OH233394   4.827   2.926   4.775  0.4279 -0.7560 -0.4456
 3968TIP3    H133395   4.815   2.833   4.755  1.4080 -1.1052  0.5735
 3968TIP3    H233396   4.828   2.969   4.689 -0.6122 -1.6048 -0.8923
 3969TIP3   OH233397   0.128   5.117   4.530 -0.4386 -0.4163 -0.1587
 3969TIP3    H133398   0.087   5.203   4.526  0.4784  0.1517  2.1921
 3969TIP3    H233399   0.154   5.099   4.439  0.4052  2.2895 -0.5096
 3970TIP3   OH233400   3.084   3.875  15.618 -0.3349  0.5508 -0.0856
 3970TIP3    H133401   3.120   3.887  15.706 -0.4916  2.8260 -0.3097
 3970TIP3    H233402   3.036   3.793  15.624  3.1014 -1.5317  0.8004
 3971TIP3   OH233403   3.247   2.710   4.269 -0.7653 -0.1634  0.1838
 3971TIP3    H133404   3.249   2.745   4.358 -1.2731 -1.1105  0.5737
 3971TIP3    H233405   3.155   2.720   4.242 -1.1129 -1.9252  0.6102
 3972TIP3   OH233406   0.460   2.296  13.754 -0.2046  1.0529 -0.5412
 3972TIP3    H133407   0.386   2.240  13.728 -1.2030  2.1830 -0.2025
 3972TIP3    H233408   0.448   2.308  13.848  0.7310  0.8048 -0.3902
 3973TIP3   OH233409   6.351   4.920  17.240  0.2241 -0.4517  1.3312
 3973TIP3    H133410   6.330   4.951  17.328  1.9631 -0.4218  1.7628
 3973TIP3    H233411   6.341   4.825  17.245 -0.5330 -0.3727  1.3170
 3974TIP3   OH233412   5.159   2.206  15.998  0.0067  0.1210 -0.0740
 3974TIP3    H133413   5.128   2.124  15.959  0.3911  0.7150 -1.6867
 3974TIP3    H233414   5.145   2.272  15.930  1.0661  1.1271  0.6455
 3975TIP3   OH233415   2.386   1.572  12.755  0.0972  0.0650 -0.2062
 3975TIP3    H133416   2.374   1.503  12.820 -2.0817  1.2439  0.6880
 3975TIP3    H233417   2.481   1.579  12.744  0.3981 -1.7662  1.0843
 3976TIP3   OH233418   2.852   0.631  16.655 -0.2425 -0.2114  0.1781
 3976TIP3    H133419   2.902   0.648  16.575  2.1831 -1.1926  1.4689
 3976TIP3    H233420   2.829   0.718  16.687  2.0015  0.3319  0.4070
 3977TIP3   OH233421   3.608   5.329   2.608  0.0102  0.8307 -0.1252
 3977TIP3    H133422   3.535   5.357   2.553 -0.4905 -1.5991 -0.7943
 3977TIP3    H233423   3.682   5.322   2.548  0.0268  0.3819 -0.0567
 3978TIP3   OH233424   4.565   0.842   3.235 -0.2793  0.0202 -0.1283
 3978TIP3    H133425   4.628   0.912   3.253  0.3777 -0.6265  0.1006
 3978TIP3    H233426   4.601   0.796   3.159 -0.3618 -0.4852  0.1352
 3979TIP3   OH233427   1.924   5.404  14.269 -0.1364 -0.4285 -0.2918
 3979TIP3    H133428   1.843   5.389  14.221  0.1028 -1.5167 -0.3801
 3979TIP3    H233429   1.908   5.485  14.318 -0.2512  0.8785 -2.4254
 3980TIP3   OH233430   5.230   3.427  17.106 -0.0424 -0.0943 -0.0749
 3980TIP3    H133431   5.295   3.484  17.147 -1.5516  0.9197  1.0088
 3980TIP3    H233432   5.209   3.362  17.173 -1.8682  1.0358  0.5128
 3981TIP3   OH233433   4.159   0.983   0.112 -0.7151 -0.3593 -0.6733
 3981TIP3    H133434   4.093   0.924   0.074 -0.3707 -0.8544 -0.5047
 3981TIP3    H233435   4.110   1.062   0.133 -1.4211 -1.0046  0.1452
 3982TIP3   OH233436   3.642   0.981  12.209  0.0616 -0.2479 -0.3841
 3982TIP3    H133437   3.602   1.066  12.226 -0.6228 -0.2444 -1.9761
 3982TIP3    H233438   3.657   0.944  12.297 -1.1141  0.8229  0.2865
 3983TIP3   OH233439   5.644   4.002   0.426  0.9173 -0.2665 -0.3796
 3983TIP3    H133440   5.625   4.007   0.333  2.4930  1.0680 -0.6579
 3983TIP3    H233441   5.684   3.916   0.439 -0.2085 -0.8478 -0.7507
 3984TIP3   OH233442   1.334   4.381   3.786  0.4775  0.2867 -0.2851
 3984TIP3    H133443   1.304   4.469   3.811 -0.8442  0.0665 -1.0426
 3984TIP3    H233444   1.428   4.382   3.805  0.0927  1.1314  1.8039
 3985TIP3   OH233445   5.636   1.479   4.574 -0.2182  0.2275  0.3563
 3985TIP3    H133446   5.720   1.433   4.577  0.2049  0.8539 -1.5785
 3985TIP3    H233447   5.583   1.436   4.641  1.4314 -0.5792  1.1754
 3986TIP3   OH233448   2.664   5.330   4.210 -0.3898 -0.4713  0.2630
 3986TIP3    H133449   2.675   5.378   4.128  1.8587  1.3295  1.5411
 3986TIP3    H233450   2.584   5.366   4.248  0.5792  1.4213  0.5908
 3987TIP3   OH233451   5.097   2.296   0.610  0.2367 -0.1879  0.0714
 3987TIP3    H133452   5.177   2.330   0.570  1.5779 -0.4649  2.4383
 3987TIP3    H233453   5.086   2.348   0.690 -1.3229 -0.9149  0.3369
 3988TIP3   OH233454   5.341   6.531   4.918  0.2471 -0.0073 -0.1131
 3988TIP3    H133455   5.384   6.486   4.845  0.7085 -0.2334  0.2961
 3988TIP3    H233456   5.406   6.594   4.949 -0.1544  0.4792 -0.2571
 3989TIP3   OH233457   4.126   1.351  11.756 -0.3180 -0.2751  0.2950
 3989TIP3    H133458   4.043   1.306  11.772 -0.4663 -0.3321 -0.5567
 3989TIP3    H233459   4.138   1.344  11.661  0.2295  0.4918  0.3040
 3990TIP3   OH233460   4.274   5.759  11.173 -0.2218  0.2027 -0.1192
 3990TIP3    H133461   4.259   5.826  11.239  1.0776  2.2101 -1.8175
 3990TIP3    H233462   4.355   5.717  11.200 -0.1466  0.4344  0.0184
 3991TIP3   OH233463   5.562   3.521   2.046 -0.2169 -0.2667  0.4596
 3991TIP3    H133464   5.550   3.435   2.086 -1.4075 -0.7044 -0.7652
 3991TIP3    H233465   5.587   3.578   2.118 -1.3142 -1.2383  1.6421
 3992TIP3   OH233466   1.478   2.353   1.697  0.1458  0.3224  0.3239
 3992TIP3    H133467   1.571   2.354   1.674  0.4017  1.6662  1.3629
 3992TIP3    H233468   1.432   2.342   1.614  1.2923 -2.9541  0.0280
 3993TIP3   OH233469   3.470   1.239  13.116  0.0504 -0.0307  0.0319
 3993TIP3    H133470   3.469   1.231  13.211  0.8738 -1.5326 -0.0679
 3993TIP3    H233471   3.384   1.274  13.093 -1.9527 -4.0300  0.9661
 3994TIP3   OH233472   0.260   4.558  10.971 -0.5026  0.1030  0.2617
 3994TIP3    H133473   0.218   4.548  11.057 -0.2554  1.7640  0.5940
 3994TIP3    H233474   0.345   4.516  10.981  0.4015  2.1321  1.5210
 3995TIP3   OH233475   1.484   4.342   1.715  0.0067 -0.0717  0.0284
 3995TIP3    H133476   1.448   4.429   1.697  0.6394  0.2507  0.2651
 3995TIP3    H233477   1.475   4.294   1.633  1.7369  0.9725 -0.7969
 3996TIP3   OH233478   2.086   4.533  10.581 -0.0955  0.1372 -0.4038
 3996TIP3    H133479   2.043   4.447  10.587  0.0221  0.0097 -1.2924
 3996TIP3    H233480   2.064   4.564  10.493 -0.0529  0.9766 -0.1197
 3997TIP3   OH233481   4.032   0.066   2.022  0.5574  1.2114  0.1696
 3997TIP3    H133482   4.018   0.017   2.103  1.7788  1.8597  0.7761
 3997TIP3    H233483   3.949   0.057   1.975  1.0457 -2.2986 -0.2198
 3998TIP3   OH233484   5.918   6.073  14.850 -0.0766  0.2111 -0.3289
 3998TIP3    H133485   5.830   6.040  14.830 -0.7202  1.6391  0.1441
 3998TIP3    H233486   5.930   6.053  14.943  0.9502 -1.8887 -0.8762
 3999TIP3   OH233487   0.921   6.195   1.033 -0.5548 -0.0072  0.4915
 3999TIP3    H133488   0.939   6.105   1.061 -2.2465 -0.1261  1.2522
 3999TIP3    H233489   0.991   6.247   1.072  1.1143 -1.1430 -0.9275
 4000TIP3   OH233490   3.910   4.130  14.999  0.1305  0.1830  0.4571
 4000TIP3    H133491   3.984   4.190  14.991  1.0671 -0.4623  3.3593
 4000TIP3    H233492   3.919   4.071  14.924  2.9481 -0.2447  1.0667
 4001TIP3   OH233493   6.820   3.708  13.524  0.3796 -0.1515 -0.2099
 4001TIP3    H133494   6.883   3.661  13.470 -0.7981 -3.7432  1.3728
 4001TIP3    H233495   6.749   3.732  13.463  0.6147 -1.1483 -0.8821
 4002TIP3   OH233496   1.577   1.874   5.247 -0.0180  0.2742 -0.3575
 4002TIP3    H133497   1.497   1.853   5.294  0.3896 -0.7593 -0.1212
 4002TIP3    H233498   1.550   1.940   5.183 -1.1481 -0.3860 -0.5741
 4003TIP3   OH233499   6.001   3.159  15.348  0.3881 -0.4212  0.3406
 4003TIP3    H133500   6.027   3.084  15.295 -0.3028 -0.4859  0.0892
 4003TIP3    H233501   5.934   3.125  15.406  1.6476 -0.5240  1.7722
 4004TIP3   OH233502   4.415   3.005  17.023 -0.1446  0.4471 -0.1086
 4004TIP3    H133503   4.417   2.909  17.027 -0.2174  0.5166  2.4741
 4004TIP3    H233504   4.333   3.026  16.979 -0.7321 -0.6760  0.4324
 4005TIP3   OH233505   5.873   5.396   3.936  0.4346  0.1331  0.1055
 4005TIP3    H133506   5.917   5.312   3.952  0.0885  0.3379  2.2661
 4005TIP3    H233507   5.788   5.371   3.900  1.3929 -0.3388 -1.8841
 4006TIP3   OH233508   2.001   4.473  13.369  0.4303 -0.4234  0.6149
 4006TIP3    H133509   2.050   4.418  13.308 -0.3046  0.4119 -0.7491
 4006TIP3    H233510   2.066   4.536  13.403  0.4966  0.1324 -0.5302
 4007TIP3   OH233511   0.435   0.905   5.951  0.5949 -0.6055  0.2725
 4007TIP3    H133512   0.430   0.873   6.041  0.1713  2.8695  1.5647
 4007TIP3    H233513   0.348   0.886   5.915  0.2210 -0.5637  1.1235
 4008TIP3   OH233514   5.852   2.880   6.459  0.4101 -0.0049 -0.8047
 4008TIP3    H133515   5.807   2.960   6.429 -0.0800  0.5064  1.2531
 4008TIP3    H233516   5.905   2.909   6.533 -0.8988 -1.8684  0.8861
 4009TIP3   OH233517   6.703   1.493  17.081  0.2683 -0.3230  0.0712
 4009TIP3    H133518   6.611   1.517  17.081 -0.0890 -1.6225 -0.0917
 4009TIP3    H233519   6.717   1.453  16.995  0.3982 -2.1917  0.9225
 4010TIP3   OH233520   3.372   6.474   6.319 -0.5065 -0.2197  0.3805
 4010TIP3    H133521   3.283   6.443   6.335 -0.7660  0.2948 -0.0887
 4010TIP3    H233522   3.380   6.554   6.370  0.7137 -1.8929  2.9638
 4011TIP3   OH233523   0.450   6.058  15.567 -0.2786  0.1035  0.2927
 4011TIP3    H133524   0.379   6.053  15.631  0.1945  0.0270  0.8269
 4011TIP3    H233525   0.471   6.151  15.562  0.7094 -0.0328  1.4247
 4012TIP3   OH233526   0.839   3.631  11.442  0.2043 -0.0015 -0.0750
 4012TIP3    H133527   0.847   3.621  11.537  2.8928 -2.6912 -0.5462
 4012TIP3    H233528   0.792   3.552  11.413  2.7743 -1.0984 -1.3872
 4013TIP3   OH233529   3.148   1.735   1.785 -0.0199 -0.2508 -0.0493
 4013TIP3    H133530   3.109   1.822   1.780 -1.4114 -0.6889  2.2873
 4013TIP3    H233531   3.241   1.750   1.798 -0.2840  0.9004  0.5349
 4014TIP3   OH233532   1.281   4.550   4.552  0.0674 -0.3626  0.2177
 4014TIP3    H133533   1.353   4.588   4.502  0.9321 -1.2705  0.7375
 4014TIP3    H233534   1.311   4.554   4.643 -0.2741 -1.2974  0.3833
 4015TIP3   OH233535   6.244   3.267  12.548 -0.2130  0.3890  0.1196
 4015TIP3    H133536   6.159   3.251  12.591 -1.1263  0.4124 -1.6361
 4015TIP3    H233537   6.227   3.342  12.490  0.6160 -0.5137 -1.3116
 4016TIP3   OH233538   1.736   4.279   1.895  0.3773 -0.2577 -0.1948
 4016TIP3    H133539   1.825   4.310   1.914  0.7706 -0.9837 -0.8279
 4016TIP3    H233540   1.712   4.325   1.815 -0.6598  1.5779  1.1442
 4017TIP3   OH233541   2.108   2.546   2.286 -0.0981  0.2346  0.7393
 4017TIP3    H133542   2.127   2.532   2.379 -0.1861  0.3300  0.7721
 4017TIP3    H233543   2.179   2.602   2.256  0.1124 -0.0698  0.6692
 4018TIP3   OH233544   3.486   4.094   5.161  0.1571 -0.3180 -0.8183
 4018TIP3    H133545   3.579   4.107   5.178  0.0687  0.7743 -1.0907
 4018TIP3    H233546   3.445   4.100   5.247  0.6706 -4.2119 -0.2405
 4019TIP3   OH233547   2.319   0.559  13.052  0.1615  0.3472 -0.6576
 4019TIP3    H133548   2.402   0.601  13.074  0.0088  1.2511 -1.7663
 4019TIP3    H233549   2.280   0.615  12.986 -2.5319  1.2780  1.6300
 4020TIP3   OH233550   3.838   1.033  12.011  0.4195  0.2991 -0.2031
 4020TIP3    H133551   3.751   1.020  12.049  0.0290  0.0083 -1.1805
 4020TIP3    H233552   3.897   0.982  12.066 -0.5468 -2.6043 -1.7402
 4021TIP3   OH233553   2.244   1.334   3.443  0.3580 -0.5786 -0.2441
 4021TIP3    H133554   2.202   1.402   3.389  0.7509  0.2085  0.4271
 4021TIP3    H233555   2.302   1.383   3.501  1.0785 -1.5494 -0.1435
 4022TIP3   OH233556   1.221   6.060   5.041 -0.0245  0.3518  0.4172
 4022TIP3    H133557   1.279   6.021   5.105  1.4464  1.3528 -0.2816
 4022TIP3    H233558   1.227   6.003   4.964 -1.2079 -0.4274  0.8821
 4023TIP3   OH233559   5.557   0.997  13.019  0.0665  0.2233 -0.2077
 4023TIP3    H133560   5.524   1.029  12.935 -2.4272 -0.5364  0.4293
 4023TIP3    H233561   5.560   0.902  13.009 -0.7004  0.0901  0.6903
 4024TIP3   OH233562   5.684   2.334   6.114  0.3294  0.2748  0.1804
 4024TIP3    H133563   5.630   2.270   6.068 -0.9396  1.8436 -0.5585
 4024TIP3    H233564   5.642   2.344   6.199  1.3967 -0.9686  0.8728
 4025TIP3   OH233565   1.927   0.105   2.823 -0.0732  0.4557  0.0326
 4025TIP3    H133566   2.012   0.133   2.858 -0.8609  2.1427  0.6776
 4025TIP3    H233567   1.948   0.054   2.746  1.5236  1.3971 -0.1791
 4026TIP3   OH233568   2.096   6.537   4.173  0.1839 -0.6127  0.1978
 4026TIP3    H133569   2.190   6.553   4.185 -0.1437  1.8113 -0.3919
 4026TIP3    H233570   2.075   6.578   4.090 -1.4239 -1.1595  0.3200
 4027TIP3   OH233571   6.774   4.920   0.012  0.7877  0.4393 -0.1189
 4027TIP3    H133572   6.803   4.847   0.067  1.3323  1.3274  0.7827
 4027TIP3    H233573   6.766   4.994   0.072 -1.6707  0.6574 -0.6670
 4028TIP3   OH233574   6.071   3.903  17.257  0.1864  0.4257  0.2552
 4028TIP3    H133575   6.113   3.817  17.258  2.6361  1.5814 -0.3431
 4028TIP3    H233576   6.070   3.928  17.165 -2.5784  0.0966  0.1597
 4029TIP3   OH233577   1.295   4.389  13.639  0.1033 -0.0466  0.0132
 4029TIP3    H133578   1.360   4.360  13.575  0.8152 -0.5725  0.9728
 4029TIP3    H233579   1.214   4.346  13.611  0.6667 -1.2148  0.1254
 4030TIP3   OH233580   0.827   2.982   2.762  0.4822  0.1403 -0.1031
 4030TIP3    H133581   0.866   2.939   2.686 -1.7212 -0.8164 -0.7417
 4030TIP3    H233582   0.861   3.071   2.760  0.2949  0.1892 -2.3403
 4031TIP3   OH233583   2.214   0.796   0.278  0.1720  0.2841  0.4275
 4031TIP3    H133584   2.264   0.751   0.346 -0.8586  0.8636  1.5888
 4031TIP3    H233585   2.277   0.809   0.207  1.2054 -0.5325  1.1742
 4032TIP3   OH233586   4.667   6.259  17.052 -0.0346  0.0475 -0.0358
 4032TIP3    H133587   4.736   6.249  16.987  0.6941  0.0240  0.7374
 4032TIP3    H233588   4.595   6.299  17.004  0.4422 -0.1096 -0.8940
 4033TIP3   OH233589   2.648   4.721   5.521  0.4719 -0.0158 -0.4536
 4033TIP3    H133590   2.619   4.695   5.434 -0.7272  0.2738 -0.1421
 4033TIP3    H233591   2.595   4.797   5.543 -1.2103 -1.7414  1.6610
 4034TIP3   OH233592   4.087   5.143   2.344 -0.0811 -0.7104 -0.4037
 4034TIP3    H133593   4.011   5.086   2.332 -1.5382  1.5338 -2.4464
 4034TIP3    H233594   4.122   5.155   2.256  2.5560 -1.5239  0.4938
 4035TIP3   OH233595   1.556   6.051  16.436 -0.0176  0.3033 -0.1977
 4035TIP3    H133596   1.553   5.957  16.457  0.4455  0.1744 -0.6979
 4035TIP3    H233597   1.467   6.081  16.450 -0.1627 -0.2047  0.0050
 4036TIP3   OH233598   2.307   1.040  16.532  0.8204  1.0391 -0.2045
 4036TIP3    H133599   2.281   1.103  16.464  2.1860 -0.0674 -1.7814
 4036TIP3    H233600   2.235   0.977  16.535  0.6386  1.2361 -0.4430
 4037TIP3   OH233601   3.621   0.969   5.259 -0.0542  0.3417  0.1891
 4037TIP3    H133602   3.698   0.971   5.201  0.3812 -0.4688  0.7160
 4037TIP3    H233603   3.599   1.061   5.274  0.5244  0.5725 -0.3500
 4038TIP3   OH233604   2.048   5.601   0.910 -0.0448  0.9795  0.0677
 4038TIP3    H133605   2.002   5.589   0.993  0.2026  1.2359  0.2408
 4038TIP3    H233606   2.108   5.674   0.925  1.4143 -0.2281  0.2592
 4039TIP3   OH233607   1.037   0.910   2.000 -0.1837 -0.3816 -0.2950
 4039TIP3    H133608   1.077   0.825   1.979 -2.0043 -1.3437 -0.0387
 4039TIP3    H233609   1.010   0.902   2.092  0.5163  0.8552  0.0328
 4040TIP3   OH233610   3.797   5.044  12.306 -1.1482 -0.3007 -0.1186
 4040TIP3    H133611   3.801   4.955  12.339  1.4032 -0.6003 -1.1728
 4040TIP3    H233612   3.728   5.043  12.241 -1.1766 -1.4810 -0.0691
 4041TIP3   OH233613   5.169   2.177   6.317  0.0496  0.2831 -0.7860
 4041TIP3    H133614   5.213   2.261   6.331  0.6250  0.2792 -2.4345
 4041TIP3    H233615   5.227   2.113   6.358  2.1628  0.1686 -3.7647
 4042TIP3   OH233616   4.288   3.590   2.138  0.4783  0.4387 -0.3878
 4042TIP3    H133617   4.283   3.586   2.042  0.6949 -0.7695 -0.3450
 4042TIP3    H233618   4.381   3.596   2.157  0.6338 -2.4841 -0.1279
 4043TIP3   OH233619   5.280   5.711   0.987 -0.4245  0.5974  0.1552
 4043TIP3    H133620   5.274   5.638   1.048  0.4423  0.7360  0.4136
 4043TIP3    H233621   5.212   5.694   0.922 -0.5328 -0.1919  0.4702
 4044TIP3   OH233622   3.049   1.936   4.742 -0.5020 -0.2629  0.3906
 4044TIP3    H133623   3.095   2.011   4.705 -2.0072  0.0697 -0.8528
 4044TIP3    H233624   3.112   1.896   4.802  2.1942 -1.0079 -2.7729
 4045TIP3   OH233625   3.809   4.607   1.347  0.2569  0.5482 -0.5602
 4045TIP3    H133626   3.777   4.585   1.259 -0.7520  1.5278 -0.4636
 4045TIP3    H233627   3.780   4.535   1.402 -0.6296  0.7633 -0.7316
 4046TIP3   OH233628   5.323   1.912  12.228  0.3986  0.1423  0.4133
 4046TIP3    H133629   5.367   1.829  12.208 -0.5856 -0.4796  0.8503
 4046TIP3    H233630   5.289   1.942  12.143  2.8991  1.3694 -0.2188
 4047TIP3   OH233631   1.439   6.323  15.058 -0.1562  0.4132  0.3634
 4047TIP3    H133632   1.482   6.247  15.096  0.5900  0.3539 -0.5824
 4047TIP3    H233633   1.493   6.397  15.086 -0.7679  0.5844  1.1150
 4048TIP3   OH233634   1.854   0.549   3.023  0.1545  0.0401  0.6168
 4048TIP3    H133635   1.778   0.514   3.070  0.2809 -1.3162 -0.1620
 4048TIP3    H233636   1.848   0.511   2.935  2.8279 -1.7514  1.1342
 4049TIP3   OH233637   6.769   6.560  12.607  0.3559 -0.2038 -0.2207
 4049TIP3    H133638   6.783   6.514  12.690  1.0237  0.7922  0.2308
 4049TIP3    H233639   6.854   6.599  12.587 -0.3301  1.2623 -0.3254
 4050TIP3   OH233640   5.225   2.809  11.823 -0.6803  0.3778  0.7617
 4050TIP3    H133641   5.133   2.819  11.799 -0.0928 -0.6115 -2.1176
 4050TIP3    H233642   5.236   2.716  11.840 -0.5246  0.7140  2.5788
 4051TIP3   OH233643   4.970   4.114  12.360  0.5591 -0.5912 -0.3109
 4051TIP3    H133644   4.932   4.168  12.291  0.9554 -1.3024 -1.1021
 4051TIP3    H233645   5.060   4.097  12.329  1.3292  0.5641  1.2239
 4052TIP3   OH233646   1.260   2.875   5.664  0.3142 -0.5265 -0.4577
 4052TIP3    H133647   1.238   2.855   5.573  0.9759 -0.3542 -0.6583
 4052TIP3    H233648   1.223   2.803   5.714 -2.0782  0.5233 -0.6139
 4053TIP3   OH233649   5.040   5.282  15.720 -0.0617  0.0424  0.4120
 4053TIP3    H133650   5.038   5.186  15.721 -0.4349  0.0481  1.9818
 4053TIP3    H233651   5.129   5.304  15.745  0.4322  0.1033 -1.3806
 4054TIP3   OH233652   6.263   1.668  12.749 -0.7879  0.5337  0.0116
 4054TIP3    H133653   6.167   1.670  12.742 -0.9812 -2.5607  0.9690
 4054TIP3    H233654   6.280   1.647  12.841  0.6831 -2.6611 -0.9320
 4055TIP3   OH233655   2.972   5.393   1.024 -0.3970  0.3848  0.0827
 4055TIP3    H133656   3.004   5.303   1.032  0.8057  0.7569 -0.2978
 4055TIP3    H233657   2.878   5.384   1.008 -0.4792 -0.7643  1.1021
 4056TIP3   OH233658   2.591   5.127  11.317 -0.5596  0.4424  0.1087
 4056TIP3    H133659   2.525   5.099  11.253 -1.5770 -0.2943  1.4590
 4056TIP3    H233660   2.673   5.091  11.283 -0.8827  1.1110 -1.4332
 4057TIP3   OH233661   3.199   1.031  11.748  0.1669  0.1717 -0.4340
 4057TIP3    H133662   3.223   1.121  11.724  0.8578  0.1598  0.1997
 4057TIP3    H233663   3.145   1.042  11.827  0.5039  0.0143 -0.1813
 4058TIP3   OH233664   1.583   6.336  12.081  0.1534 -0.0937 -0.7951
 4058TIP3    H133665   1.542   6.249  12.080  0.5946 -0.3143 -0.0626
 4058TIP3    H233666   1.515   6.395  12.048 -0.6265 -0.5152  0.0496
 4059TIP3   OH233667   1.637   4.732  14.990 -0.3325  0.7779  0.0307
 4059TIP3    H133668   1.634   4.742  14.894  0.1527 -0.4525 -0.1282
 4059TIP3    H233669   1.615   4.818  15.024  2.0509  1.9468 -1.2153
 4060TIP3   OH233670   1.817   3.716   3.400  0.6060 -0.4448  0.2024
 4060TIP3    H133671   1.821   3.688   3.308 -0.7388  0.7078 -0.2378
 4060TIP3    H233672   1.811   3.812   3.395  0.2426 -0.3917  1.4767
 4061TIP3   OH233673   6.477   0.195   3.188 -1.0176 -0.1894  0.0582
 4061TIP3    H133674   6.513   0.152   3.110 -1.9596 -0.3511 -0.2970
 4061TIP3    H233675   6.543   0.258   3.213 -0.1742 -0.9693 -0.1713
 4062TIP3   OH233676   4.807   4.952  14.414 -0.2997 -0.3470  0.2231
 4062TIP3    H133677   4.877   4.983  14.471 -1.3625  0.9692  0.8402
 4062TIP3    H233678   4.754   5.030  14.396 -1.5023 -1.2801 -0.3624
 4063TIP3   OH233679   2.183   4.476   2.020 -0.2639 -0.5117  0.6402
 4063TIP3    H133680   2.190   4.540   2.091  3.2903 -0.7201  0.5934
 4063TIP3    H233681   2.149   4.526   1.945 -0.6635  0.5244  1.5111
 4064TIP3   OH233682   1.092   1.931  13.724 -0.3782  0.3870  0.4164
 4064TIP3    H133683   0.999   1.938  13.701 -0.6907 -0.9724  1.2361
 4064TIP3    H233684   1.129   1.873  13.657 -0.1018  0.9724  0.0578
 4065TIP3   OH233685   5.271   0.818   1.324  0.3901 -0.8779  0.1741
 4065TIP3    H133686   5.255   0.751   1.257  0.1320 -3.1030  2.3610
 4065TIP3    H233687   5.211   0.795   1.395  1.5719  0.6445  1.6922
 4066TIP3   OH233688   1.003   5.306   1.672  0.2291 -0.1525  0.2476
 4066TIP3    H133689   0.928   5.272   1.720  0.3822  0.1115  0.6762
 4066TIP3    H233690   0.996   5.401   1.680 -1.3505  0.0175 -2.7112
 4067TIP3   OH233691   5.898   6.593  12.239 -0.4259 -0.0181  0.2534
 4067TIP3    H133692   5.975   6.560  12.194  0.6578  1.9256  0.6129
 4067TIP3    H233693   5.928   6.611  12.329 -1.5779 -0.2918  0.7069
 4068TIP3   OH233694   6.269   6.022  13.899  0.1765 -0.2187  0.1023
 4068TIP3    H133695   6.296   5.931  13.914  0.4915 -0.1452  0.0018
 4068TIP3    H233696   6.196   6.015  13.838  0.5430 -0.3793 -0.3248
 4069TIP3   OH233697   4.978   6.252  13.018 -0.5019 -0.2660 -0.2216
 4069TIP3    H133698   5.061   6.297  13.035 -1.9104  1.8945  1.1832
 4069TIP3    H233699   4.927   6.314  12.966 -1.6357 -1.1409 -0.1738
 4070TIP3   OH233700   4.160   3.893   4.663 -0.6430 -0.0277  0.7667
 4070TIP3    H133701   4.140   3.894   4.757  0.9900 -0.8972  1.1458
 4070TIP3    H233702   4.245   3.937   4.657 -0.5569 -0.3356 -0.2572
 4071TIP3   OH233703   5.645   2.918   1.100  0.2203  0.2886  0.1555
 4071TIP3    H133704   5.556   2.952   1.101 -0.5268 -1.6300 -0.2575
 4071TIP3    H233705   5.641   2.837   1.150  2.0288  0.8496  1.2646
 4072TIP3   OH233706   0.075   2.016  12.170 -0.0373  0.4763  0.1374
 4072TIP3    H133707   0.149   1.996  12.227 -0.0844 -1.2029 -0.3599
 4072TIP3    H233708   0.017   2.070  12.223  0.1469 -0.6567  1.5184
 4073TIP3   OH233709   5.996   3.672   5.303  0.1087 -0.0317 -0.0233
 4073TIP3    H133710   6.087   3.702   5.300  0.0701  0.3923  2.4821
 4073TIP3    H233711   5.980   3.637   5.215  2.9473 -0.9021 -0.2397
 4074TIP3   OH233712   4.294   5.844  11.579 -0.0946 -0.2810  0.2345
 4074TIP3    H133713   4.352   5.915  11.608 -1.0606 -0.2134  2.0610
 4074TIP3    H233714   4.217   5.890  11.543 -0.8423 -0.3899  1.6723
 4075TIP3   OH233715   2.906   5.658  11.911  0.0448 -0.1255 -0.4065
 4075TIP3    H133716   2.931   5.670  11.819 -0.7901  0.7591 -0.5245
 4075TIP3    H233717   2.887   5.564  11.918  3.6347 -0.9083 -0.2283
 4076TIP3   OH233718   3.963   1.304   5.275 -0.0794 -0.0415  0.1737
 4076TIP3    H133719   3.882   1.342   5.310  0.4980  1.0756  0.3142
 4076TIP3    H233720   3.968   1.339   5.185  0.0871 -0.3509  0.0631
 4077TIP3   OH233721   2.348   1.371   6.212 -0.1478  0.2790 -0.4877
 4077TIP3    H133722   2.301   1.454   6.214 -1.4687 -0.4445 -0.7069
 4077TIP3    H233723   2.320   1.329   6.131  1.1141 -0.0359 -0.7651
 4078TIP3   OH233724   0.606   5.356   4.927 -0.3972 -0.2297 -0.1984
 4078TIP3    H133725   0.574   5.320   4.844 -2.3501 -0.7425  0.7544
 4078TIP3    H233726   0.697   5.326   4.933 -0.9355 -2.0975 -1.0791
 4079TIP3   OH233727   1.048   2.552   1.557  0.0571  0.2511 -0.3314
 4079TIP3    H133728   1.106   2.516   1.490  0.5836 -0.0911  0.2979
 4079TIP3    H233729   1.107   2.587   1.624 -0.4316 -1.1797  0.9008
 4080TIP3   OH233730   0.427   4.114  12.718 -0.1583  0.0430  0.2244
 4080TIP3    H133731   0.432   4.059  12.796  1.2114 -1.5005 -0.9109
 4080TIP3    H233732   0.508   4.095  12.670 -1.5742 -0.0415 -2.2198
 4081TIP3   OH233733   3.099   4.190  12.772  0.5672  0.5041 -0.7219
 4081TIP3    H133734   3.072   4.139  12.696  1.8203 -0.8924 -0.2563
 4081TIP3    H233735   3.036   4.167  12.841  0.7775  0.0185 -0.6861
 4082TIP3   OH233736   3.152   5.500  15.404  0.0163 -0.2239 -0.1842
 4082TIP3    H133737   3.095   5.532  15.473  0.1842 -0.7616  0.2096
 4082TIP3    H233738   3.221   5.566  15.398 -0.4958  0.2874 -0.4747
 4083TIP3   OH233739   1.969   1.754   2.068  0.4324  0.2426 -0.2540
 4083TIP3    H133740   1.968   1.847   2.093 -1.8833  0.3473 -0.6163
 4083TIP3    H233741   2.017   1.752   1.985  1.3938  0.9576  0.2661
 4084TIP3   OH233742   0.355   5.875  13.219 -0.1044  0.2770 -0.3692
 4084TIP3    H133743   0.392   5.956  13.253  0.0769 -0.7642  1.9940
 4084TIP3    H233744   0.261   5.881  13.237 -0.3293  0.6232 -1.6023
 4085TIP3   OH233745   4.581   2.622   0.775 -0.1916 -0.5365 -0.1032
 4085TIP3    H133746   4.588   2.561   0.848 -1.7150 -2.6381 -1.6407
 4085TIP3    H233747   4.489   2.648   0.774  0.1262  0.6154 -0.4053
 4086TIP3   OH233748   2.106   6.710   3.205  0.0715  0.3031  0.2480
 4086TIP3    H133749   2.070   6.794   3.178  0.1898 -0.5405 -2.7357
 4086TIP3    H233750   2.029   6.652   3.211 -0.0804  0.7134  2.8441
 4087TIP3   OH233751   0.467   0.544   1.373  0.2002 -0.2445  0.0742
 4087TIP3    H133752   0.476   0.593   1.291 -2.1008 -0.9068 -0.6114
 4087TIP3    H233753   0.554   0.548   1.413  0.8214  1.8419 -1.3990
 4088TIP3   OH233754   6.157   1.149  11.841  0.3794 -0.5323  0.0030
 4088TIP3    H133755   6.106   1.192  11.910 -1.7018 -1.8148 -0.6811
 4088TIP3    H233756   6.213   1.087  11.888 -0.3119 -0.6890  0.6420
 4089TIP3   OH233757   2.174   4.943  11.448 -0.0394  0.5527  0.2145
 4089TIP3    H133758   2.115   5.014  11.475 -1.1369  0.1864 -1.1786
 4089TIP3    H233759   2.207   4.970  11.362  0.6199  0.0241  0.2952
 4090TIP3   OH233760   0.245   1.101   1.566  0.0434 -0.4878 -0.5158
 4090TIP3    H133761   0.288   1.171   1.517 -0.6288  0.6700  0.5091
 4090TIP3    H233762   0.270   1.117   1.657 -0.6519 -1.1866 -0.1937
 4091TIP3   OH233763   3.311   3.016  13.419  0.2429  0.3175 -0.1977
 4091TIP3    H133764   3.389   3.033  13.365  0.0064  2.2731  0.0719
 4091TIP3    H233765   3.295   3.098  13.465 -0.9690 -0.6173  1.0745
 4092TIP3   OH233766   3.036   3.299   0.582 -0.1123  0.7367 -0.2127
 4092TIP3    H133767   2.951   3.256   0.596  1.0777 -1.6018  0.1060
 4092TIP3    H233768   3.052   3.291   0.488 -0.0817  0.8257 -0.2148
 4093TIP3   OH233769   1.201   2.046  14.465  0.8730  0.0543  0.2982
 4093TIP3    H133770   1.292   2.018  14.457  0.4756 -0.7001 -2.2904
 4093TIP3    H233771   1.199   2.132  14.423  0.4059  0.0722  0.3562
 4094TIP3   OH233772   5.704   4.367   5.648 -0.7344 -0.1778  0.0516
 4094TIP3    H133773   5.656   4.285   5.658 -0.6490 -0.1522  0.7065
 4094TIP3    H233774   5.636   4.435   5.645 -0.8142 -0.2816 -0.6659
 4095TIP3   OH233775   5.152   4.966  15.738  0.0888 -0.4600  0.3169
 4095TIP3    H133776   5.209   4.981  15.662 -0.2511 -1.0238 -0.0472
 4095TIP3    H233777   5.208   4.985  15.814  0.2291  0.7837 -0.0850
 4096TIP3   OH233778   2.446   1.090  12.087 -0.3521  1.1205 -0.3794
 4096TIP3    H133779   2.422   1.182  12.091  0.1793  1.2374  0.2169
 4096TIP3    H233780   2.518   1.081  12.150  0.5585  0.5986 -1.4750
 4097TIP3   OH233781   2.008   3.618   2.922  0.1392 -0.3313  0.0053
 4097TIP3    H133782   2.025   3.570   2.841  1.4813 -0.9835  0.6562
 4097TIP3    H233783   1.987   3.707   2.894 -2.5272 -1.3015 -1.2352
 4098TIP3   OH233784   5.238   1.195   5.316 -0.0640  1.1593  0.1248
 4098TIP3    H133785   5.215   1.105   5.293 -3.6013  2.2438 -0.9238
 4098TIP3    H233786   5.327   1.189   5.351  0.3912 -2.4877 -1.4335
 4099TIP3   OH233787   4.278   2.228   1.716 -0.1706 -0.1205  0.3977
 4099TIP3    H133788   4.362   2.250   1.675 -0.8430  2.8247  0.4947
 4099TIP3    H233789   4.220   2.205   1.643  0.2159 -0.4940  0.2045
 4100TIP3   OH233790   2.130   0.046  12.721  0.2358  0.0217 -0.3613
 4100TIP3    H133791   2.080   0.124  12.746  1.0706  0.3261  0.3551
 4100TIP3    H233792   2.187   0.029  12.795 -0.9213 -2.1118  0.0707
 4101TIP3   OH233793   1.214   5.996  13.813 -0.4387  0.0294  0.2958
 4101TIP3    H133794   1.129   5.998  13.858 -0.4540  0.3003  0.2522
 4101TIP3    H233795   1.250   6.084  13.823 -0.0711 -0.1424  0.4863
 4102TIP3   OH233796   6.365   5.604   3.047  0.0316 -0.3620  0.3656
 4102TIP3    H133797   6.287   5.651   3.075  0.8850 -0.2337  2.6251
 4102TIP3    H233798   6.431   5.671   3.036  0.5205 -0.7365  0.9812
 4103TIP3   OH233799   4.219   4.747  12.129 -0.5765  0.5497  0.0352
 4103TIP3    H133800   4.199   4.692  12.205 -0.0267 -2.2945 -1.7812
 4103TIP3    H233801   4.133   4.772  12.094 -0.8283  1.6774  1.4369
 4104TIP3   OH233802   4.283   1.227   3.227  0.6492 -0.3110  1.0718
 4104TIP3    H133803   4.226   1.241   3.152  0.6550 -3.8771  0.3487
 4104TIP3    H233804   4.224   1.215   3.301  0.4114 -3.0783  0.4842
 4105TIP3   OH233805   6.334   5.725   0.129 -0.5165  0.4149 -0.6212
 4105TIP3    H133806   6.280   5.761   0.058 -1.9129  0.5726  0.4845
 4105TIP3    H233807   6.397   5.794   0.148 -0.1389  0.3755 -1.7051
 4106TIP3   OH233808   4.407   2.145   1.068  0.1481  0.7348  0.1275
 4106TIP3    H133809   4.407   2.208   0.996  0.4673  2.6198  1.7146
 4106TIP3    H233810   4.316   2.114   1.073  0.2505  0.1632 -1.4221
 4107TIP3   OH233811   4.729   4.948  10.508 -0.1159  0.4498  0.3639
 4107TIP3    H133812   4.697   5.033  10.539 -0.0346  0.0748  1.5154
 4107TIP3    H233813   4.661   4.885  10.535  0.7485 -0.1104  1.2531
 4108TIP3   OH233814   2.391   5.010  12.229  0.0291 -0.3735 -0.4040
 4108TIP3    H133815   2.392   5.096  12.186 -2.3070 -1.0816 -2.0064
 4108TIP3    H233816   2.349   5.027  12.313  1.2111  0.3742  0.0409
 4109TIP3   OH233817   2.188   1.096   5.208 -0.3232 -0.9303 -0.0787
 4109TIP3    H133818   2.111   1.123   5.156  0.1466 -1.8872 -1.2849
 4109TIP3    H233819   2.249   1.060   5.144  1.5223  0.6269  0.7501
 4110TIP3   OH233820   4.620   6.675   3.078 -0.3427  0.0812  0.0416
 4110TIP3    H133821   4.556   6.640   3.141 -1.6387  0.9805 -0.7593
 4110TIP3    H233822   4.672   6.737   3.129 -0.4459 -0.2563  0.5677
 4111TIP3   OH233823   5.452   5.565   5.668 -0.2218  0.2687  0.0221
 4111TIP3    H133824   5.467   5.576   5.762 -0.5543  1.3728 -0.0427
 4111TIP3    H233825   5.538   5.541   5.633 -0.0525  0.0423  0.5788
 4112TIP3   OH233826   4.729   1.347   2.370  0.4070 -0.2506  0.0051
 4112TIP3    H133827   4.806   1.391   2.407 -0.1718 -0.1807  1.1290
 4112TIP3    H233828   4.757   1.322   2.281  2.3218 -1.7426  0.9855
 4113TIP3   OH233829   5.968   6.288   2.689  0.6205 -0.2316  0.0955
 4113TIP3    H133830   6.059   6.295   2.660  0.5010 -0.2193 -0.2879
 4113TIP3    H233831   5.917   6.323   2.616  0.2311 -1.4662 -0.2427
 4114TIP3   OH233832   3.081   5.970  14.221 -0.0833 -0.3186 -0.3244
 4114TIP3    H133833   3.123   5.940  14.141 -2.1152 -0.0760 -1.5110
 4114TIP3    H233834   3.119   5.917  14.291  1.7752 -0.4534 -1.4288
 4115TIP3   OH233835   1.361   5.349   0.516 -0.5728 -0.3798 -0.0292
 4115TIP3    H133836   1.332   5.345   0.607 -1.3470  0.4965 -0.2238
 4115TIP3    H233837   1.310   5.281   0.472 -0.2635 -0.7439  0.1767
 4116TIP3   OH233838   0.217   5.927   5.534 -0.0233 -0.5158 -0.1480
 4116TIP3    H133839   0.164   5.878   5.596  0.9334 -0.7275  0.5207
 4116TIP3    H233840   0.154   5.970   5.476 -0.8842 -2.0324 -0.3578
 4117TIP3   OH233841   2.213   1.623   3.780  0.4480  0.1892 -0.0876
 4117TIP3    H133842   2.277   1.665   3.838  1.6921 -0.0978 -1.2419
 4117TIP3    H233843   2.130   1.629   3.828  1.4379  0.0636  1.6702
 4118TIP3   OH233844   3.289   2.378   1.538 -0.2592 -0.5388 -0.1210
 4118TIP3    H133845   3.248   2.334   1.464 -0.5695 -0.1031 -0.2085
 4118TIP3    H233846   3.247   2.464   1.541 -0.4341 -0.6565  0.7255
 4119TIP3   OH233847   5.162   3.997   0.934  0.3997  0.0593  0.3639
 4119TIP3    H133848   5.212   4.079   0.941  1.4304 -0.3360 -1.7261
 4119TIP3    H233849   5.077   4.024   0.899 -0.2529  0.5356  2.2749
 4120TIP3   OH233850   2.660   4.239  15.394 -0.0710 -0.0650 -0.0344
 4120TIP3    H133851   2.738   4.261  15.446 -1.2816  2.5223  0.7763
 4120TIP3    H233852   2.685   4.264  15.304 -1.0027  3.8983  0.6950
 4121TIP3   OH233853   4.281   6.505   6.104 -0.8529  0.5661 -0.3751
 4121TIP3    H133854   4.345   6.476   6.169 -0.9601  0.8222 -0.1591
 4121TIP3    H233855   4.204   6.451   6.121 -0.3265 -0.5033 -1.3304
 4122TIP3   OH233856   4.649   1.705   6.618  0.7344  0.0865  0.0856
 4122TIP3    H133857   4.668   1.616   6.588  0.1336  0.1177 -0.3995
 4122TIP3    H233858   4.561   1.723   6.586  0.9431  0.9479 -0.0248
 4123TIP3   OH233859   3.413   6.445  12.209 -0.5390 -0.3952 -0.4887
 4123TIP3    H133860   3.494   6.401  12.234 -0.5979 -0.5981 -0.6506
 4123TIP3    H233861   3.421   6.457  12.114 -0.0501  0.9106 -0.2868
 4124TIP3   OH233862   6.397   4.168  15.655 -0.7104 -0.2399  0.2748
 4124TIP3    H133863   6.360   4.185  15.741 -1.4307 -1.2217  0.1634
 4124TIP3    H233864   6.439   4.251  15.630 -1.5604  0.4228  1.0271
 4125TIP3   OH233865   2.865   4.755   2.527 -0.1073  0.5255  0.5631
 4125TIP3    H133866   2.943   4.715   2.490  0.9462  0.2083  3.0318
 4125TIP3    H233867   2.794   4.693   2.508  0.6424 -0.2395  0.2673
 4126TIP3   OH233868   3.386   6.605  13.369  0.4890 -0.2873 -0.4200
 4126TIP3    H133869   3.340   6.528  13.334  1.2960 -0.3055 -1.4664
 4126TIP3    H233870   3.326   6.641  13.434 -0.1797 -1.4277 -0.3818
 4127TIP3   OH233871   3.096   2.658   0.523  0.7876 -0.1366 -0.3285
 4127TIP3    H133872   3.116   2.609   0.602  0.5726  0.2044 -0.0599
 4127TIP3    H233873   3.059   2.594   0.463  0.1165 -0.2203  0.1715
 4128TIP3   OH233874   2.811   2.489   0.904 -0.0096  0.2488 -0.2504
 4128TIP3    H133875   2.795   2.409   0.955  0.8682 -0.2042 -0.6674
 4128TIP3    H233876   2.864   2.544   0.961 -1.6190  1.0531  0.4985
 4129TIP3   OH233877   0.905   1.500   5.878  0.5772 -0.5153 -0.6507
 4129TIP3    H133878   0.881   1.500   5.785  1.4121  3.7098 -0.9620
 4129TIP3    H233879   0.995   1.468   5.879  0.7309 -0.1303 -1.3702
 4130TIP3   OH233880   3.777   5.576   4.558 -0.6917 -0.1124 -0.3350
 4130TIP3    H133881   3.780   5.648   4.621 -0.2415 -0.8137  0.4656
 4130TIP3    H233882   3.787   5.497   4.612  3.0621 -0.5843 -1.5867
 4131TIP3   OH233883   3.187   0.572  15.458 -0.1434 -0.1543 -0.4220
 4131TIP3    H133884   3.153   0.641  15.401  1.3600  1.2910  0.3980
 4131TIP3    H233885   3.278   0.561  15.430 -0.0645 -1.0553  0.1868
 4132TIP3   OH233886   2.611   6.212  16.804  0.3635 -0.5348  0.1678
 4132TIP3    H133887   2.615   6.135  16.861  0.3911 -0.3556  0.4092
 4132TIP3    H233888   2.532   6.259  16.832  0.4636 -0.3642  0.1651
 4133TIP3   OH233889   0.209   5.165  16.442  0.2379 -0.4138  0.4305
 4133TIP3    H133890   0.196   5.241  16.498  0.5388  0.0225 -0.0965
 4133TIP3    H233891   0.290   5.125  16.475  1.9895  1.4445 -1.5067
 4134TIP3   OH233892   0.048   1.829  16.711  0.1488 -0.4575  0.3175
 4134TIP3    H133893  -0.004   1.869  16.641  0.3930  1.8663  1.4179
 4134TIP3    H233894   0.084   1.750  16.672 -2.3129 -0.9036 -1.2002
 4135TIP3   OH233895   6.726   0.456  15.890 -0.3339  0.0971 -0.4065
 4135TIP3    H133896   6.639   0.495  15.897 -0.9900 -1.2389 -0.9479
 4135TIP3    H233897   6.786   0.529  15.904 -1.5352  1.1958 -0.9133
 4136TIP3   OH233898   0.097   5.167  14.358 -0.1494 -0.3589  0.5659
 4136TIP3    H133899   0.165   5.190  14.421  0.4965 -0.3631 -0.1260
 4136TIP3    H233900   0.015   5.181  14.406  0.3410 -0.8984  1.5931
 4137TIP3   OH233901   1.775   6.319   3.280 -0.1327  0.1252 -0.8007
 4137TIP3    H133902   1.728   6.287   3.357  1.9649  0.1103  0.5074
 4137TIP3    H233903   1.771   6.245   3.218 -0.1505 -0.5868  0.0330
 4138TIP3   OH233904   4.154   6.497  15.284 -0.2220  0.0895 -0.2461
 4138TIP3    H133905   4.228   6.440  15.266 -0.4539 -0.1423 -0.4761
 4138TIP3    H233906   4.077   6.442  15.266 -0.4454  0.7588 -1.3826
 4139TIP3   OH233907   4.493   1.322   2.755 -0.6464  0.1838  0.0265
 4139TIP3    H133908   4.435   1.344   2.682 -0.8517 -0.6771 -0.0739
 4139TIP3    H233909   4.567   1.278   2.714 -0.3883  0.3930  0.2630
 4140TIP3   OH233910   0.570   3.338  15.512 -1.0297  0.0942  0.2029
 4140TIP3    H133911   0.563   3.282  15.589 -0.6644  0.1163  0.2524
 4140TIP3    H233912   0.486   3.384  15.508 -0.7375  0.7231  1.0733
 4141TIP3   OH233913   2.829   2.041   3.143  0.2922  1.0850  0.4088
 4141TIP3    H133914   2.805   2.125   3.104 -0.4952  0.7289  0.1090
 4141TIP3    H233915   2.791   1.976   3.084  0.3536  0.5220  0.9847
 4142TIP3   OH233916   3.528   6.686  15.837  0.5067 -0.2569 -0.1425
 4142TIP3    H133917   3.472   6.762  15.819 -1.7358 -1.7665  0.2073
 4142TIP3    H233918   3.553   6.696  15.928 -1.5129 -0.9736  0.5270
 4143TIP3   OH233919   1.338   1.687  16.978 -0.0676 -0.4644 -0.5363
 4143TIP3    H133920   1.263   1.652  17.025 -1.0381 -0.5941 -2.1706
 4143TIP3    H233921   1.313   1.685  16.886  0.9875  1.7682 -0.9194
 4144TIP3   OH233922   5.429   1.421  13.800 -0.1278 -0.3146 -0.7930
 4144TIP3    H133923   5.431   1.335  13.758  1.0031  0.3898 -2.1976
 4144TIP3    H233924   5.379   1.406  13.881 -0.3460 -2.1827 -1.2384
 4145TIP3   OH233925   6.062   1.119   3.030  0.7230 -1.0444 -0.1449
 4145TIP3    H133926   5.996   1.081   3.088  0.8659 -3.6747 -1.6068
 4145TIP3    H233927   6.111   1.179   3.085 -2.3628  0.3776  1.1951
 4146TIP3   OH233928   6.564   5.150  13.470 -0.0029  0.1487 -0.7298
 4146TIP3    H133929   6.550   5.156  13.565  1.4054 -0.3336 -0.4920
 4146TIP3    H233930   6.493   5.202  13.432  0.2755  1.5380  0.6329
 4147TIP3   OH233931   2.665   1.389  13.335  0.5457  0.7425  0.0475
 4147TIP3    H133932   2.754   1.411  13.308 -0.2780  1.3891 -2.2709
 4147TIP3    H233933   2.674   1.362  13.427  3.1504  0.5408 -0.2171
 4148TIP3   OH233934   0.200   4.897   2.279  0.2803 -0.2064 -0.1491
 4148TIP3    H133935   0.151   4.953   2.339  0.2109 -0.3740 -0.0504
 4148TIP3    H233936   0.135   4.865   2.217  0.3360 -0.1060 -0.2595
 4149TIP3   OH233937   1.178   3.893  16.730 -0.2417  0.0307 -0.3380
 4149TIP3    H133938   1.103   3.908  16.787  0.8239  1.4997  0.6919
 4149TIP3    H233939   1.254   3.895  16.788  0.8995  1.8913 -1.8401
 4150TIP3   OH233940   2.708   5.875  16.988 -0.1752 -0.1748  0.1964
 4150TIP3    H133941   2.790   5.879  17.038 -0.0196  0.2806 -0.0915
 4150TIP3    H233942   2.722   5.807  16.923 -0.4488 -0.9043  0.9029
 4151TIP3   OH233943   4.485   4.673  13.771  0.1346  0.2290 -0.1652
 4151TIP3    H133944   4.574   4.692  13.803  0.4646 -0.5303 -0.6391
 4151TIP3    H233945   4.464   4.747  13.715  0.9920 -0.2299 -1.1143
 4152TIP3   OH233946   5.106   2.397   1.654  0.3036 -0.0534  0.4852
 4152TIP3    H133947   5.158   2.461   1.605  0.0552  0.1535  0.4922
 4152TIP3    H233948   5.075   2.336   1.587 -0.4627  0.5218  0.3067
 4153TIP3   OH233949   4.992   3.436  15.603 -0.3032  0.0500  0.3047
 4153TIP3    H133950   4.958   3.347  15.612  0.0721 -0.0697  0.5302
 4153TIP3    H233951   4.985   3.455  15.510  1.2235 -0.8520 -0.0003
 4154TIP3   OH233952   0.094   5.974  12.149  0.1322 -0.3995 -0.1892
 4154TIP3    H133953   0.125   5.967  12.239 -1.3907 -0.0935  0.3555
 4154TIP3    H233954   0.079   5.883  12.122 -1.2055 -0.3842  0.4916
 4155TIP3   OH233955   4.286   0.363  15.342 -0.1743 -0.1204  0.5784
 4155TIP3    H133956   4.203   0.406  15.320  0.1897 -0.4551 -1.4946
 4155TIP3    H233957   4.353   0.420  15.307  0.3800 -1.3702 -0.4305
 4156TIP3   OH233958   0.191   3.176  14.413  0.0835  0.1391 -0.3175
 4156TIP3    H133959   0.195   3.271  14.416  0.0063  0.1068  0.7606
 4156TIP3    H233960   0.141   3.157  14.333  0.0048  0.9978 -0.4758
 4157TIP3   OH233961   0.533   3.677  11.252  0.2696  0.2770 -0.4428
 4157TIP3    H133962   0.533   3.606  11.187 -0.8990  1.0274 -1.2669
 4157TIP3    H233963   0.623   3.709  11.251  0.6443 -0.7443 -0.5599
 4158TIP3   OH233964   4.278   1.311   0.598 -0.6076 -0.5562  0.4934
 4158TIP3    H133965   4.229   1.229   0.590 -0.7518 -0.3427 -0.9145
 4158TIP3    H233966   4.211   1.377   0.616 -0.5304 -0.6877  1.2743
 4159TIP3   OH233967   6.524   3.442  13.601 -0.7315  0.1797 -0.2013
 4159TIP3    H133968   6.435   3.466  13.575  0.2528  1.5933 -2.3815
 4159TIP3    H233969   6.562   3.524  13.632 -0.3174 -0.5160  1.1628
 4160TIP3   OH233970   4.236   1.547   5.363 -0.2586  0.3075 -0.1640
 4160TIP3    H133971   4.305   1.481   5.370  0.0637  0.5861 -0.7490
 4160TIP3    H233972   4.211   1.546   5.271  0.4900  1.7689 -0.3898
 4161TIP3   OH233973   3.617   4.439   4.480 -0.7352  0.1343 -0.9300
 4161TIP3    H133974   3.531   4.402   4.457 -0.5236 -0.9017 -0.1240
 4161TIP3    H233975   3.602   4.482   4.564 -0.3583 -0.5073 -0.5273
 4162TIP3   OH233976   1.355   1.514   2.814 -0.1610 -0.2225  0.2563
 4162TIP3    H133977   1.332   1.484   2.902 -1.6355 -0.4084 -0.1848
 4162TIP3    H233978   1.344   1.436   2.759 -0.9760  0.3356 -0.3779
 4163TIP3   OH233979   6.683   0.704  15.300 -0.2136  0.6566 -0.6452
 4163TIP3    H133980   6.720   0.615  15.300  0.8810  1.0937 -1.9792
 4163TIP3    H233981   6.759   0.761  15.300 -0.9180  1.6067 -0.2888
 4164TIP3   OH233982   1.053   4.788   6.424 -0.2245 -0.1990 -0.0921
 4164TIP3    H133983   1.056   4.706   6.473  1.5795  0.3828  0.7993
 4164TIP3    H233984   1.144   4.817   6.418 -0.8343  1.7712 -0.3433
 4165TIP3   OH233985   5.844   2.470  12.887  0.0852  0.4410 -0.1826
 4165TIP3    H133986   5.800   2.458  12.971 -1.0610 -2.4292 -1.1391
 4165TIP3    H233987   5.774   2.469  12.823  1.0551  1.6343 -1.2957
 4166TIP3   OH233988   1.965   3.851  12.509  0.4807  0.4017 -0.5707
 4166TIP3    H133989   1.978   3.784  12.576 -2.7760  1.0985  0.8389
 4166TIP3    H233990   1.944   3.802  12.430 -0.9545 -0.2869  0.2242
 4167TIP3   OH233991   0.640   0.596   0.726 -0.1828  0.7834  0.7782
 4167TIP3    H133992   0.676   0.680   0.698  1.2025  0.3768  1.2807
 4167TIP3    H233993   0.688   0.575   0.807  0.1911 -0.9443  0.1367
 4168TIP3   OH233994   1.007   0.284   6.720  0.2200  0.4080  0.5454
 4168TIP3    H133995   1.049   0.363   6.685 -2.1407  1.3756 -0.1559
 4168TIP3    H233996   1.077   0.241   6.770  2.0984  1.8773 -0.7351
 4169TIP3   OH233997   1.966   5.154  11.406  0.2463 -0.1010 -0.8548
 4169TIP3    H133998   1.940   5.105  11.328 -0.9576  1.1954 -1.2904
 4169TIP3    H233999   1.889   5.206  11.429 -0.4525 -2.5805  2.9166
 4170TIP3   OH234000   0.686   6.493  14.667  0.0377  0.6002 -0.1212
 4170TIP3    H134001   0.701   6.433  14.740 -1.4015 -0.0684 -0.3519
 4170TIP3    H234002   0.708   6.442  14.589  0.6527  1.0022 -0.2129
 4171TIP3   OH234003   1.791   1.481  16.477  0.0788  0.2625  0.0278
 4171TIP3    H134004   1.881   1.455  16.498  0.3706  0.4904 -0.9204
 4171TIP3    H234005   1.743   1.468  16.559  0.9499  0.0340  0.5132
 4172TIP3   OH234006   0.085   3.625  14.936 -0.3219 -0.5358 -0.3101
 4172TIP3    H134007   0.128   3.572  14.868 -0.9258 -1.6108  0.1361
 4172TIP3    H234008   0.151   3.636  15.004  0.0143 -0.1632 -0.6928
 4173TIP3   OH234009   0.058   0.890  15.324 -0.7426  0.2452  0.1780
 4173TIP3    H134010   0.151   0.899  15.304 -0.7495 -0.3131 -0.1250
 4173TIP3    H234011   0.024   0.980  15.323 -0.0175  0.5352  1.2537
 4174TIP3   OH234012   6.448   0.828  11.354 -0.3624  0.3097 -0.7121
 4174TIP3    H134013   6.506   0.882  11.408  0.3622 -0.2996 -0.8765
 4174TIP3    H234014   6.499   0.810  11.275 -0.3721 -1.1223 -0.4007
 4175TIP3   OH234015   6.641   1.781   5.344 -0.2476  0.1254 -0.4798
 4175TIP3    H134016   6.693   1.768   5.265  0.7024  0.5922  0.0567
 4175TIP3    H234017   6.693   1.842   5.397 -0.0918 -1.4099  1.1982
 4176TIP3   OH234018   5.823   5.145   5.913  0.4634 -0.0933 -0.2090
 4176TIP3    H134019   5.763   5.070   5.920  0.3003  0.1221  0.7432
 4176TIP3    H234020   5.907   5.111   5.945 -0.0696  0.6490  2.0559
 4177TIP3   OH234021   5.146   5.080   2.086  0.0892  0.8260  0.2452
 4177TIP3    H134022   5.054   5.064   2.106  0.6458 -1.4312  1.0663
 4177TIP3    H234023   5.145   5.158   2.030 -2.2904  0.9623  0.4458
 4178TIP3   OH234024   1.578   3.352  14.322  0.0628 -0.1914 -0.3850
 4178TIP3    H134025   1.634   3.286  14.281  0.1410 -0.6047  0.3634
 4178TIP3    H234026   1.589   3.337  14.416  1.1407  1.7889 -0.1732
 4179TIP3   OH234027   3.839   1.996   0.455 -0.3325  0.0293  0.3444
 4179TIP3    H134028   3.931   2.022   0.455 -0.9313  2.2162 -1.4783
 4179TIP3    H234029   3.790   2.078   0.457 -2.2529 -1.0522 -0.4986
 4180TIP3   OH234030   2.108   3.247   3.926 -0.4006  0.1900 -0.1674
 4180TIP3    H134031   2.124   3.194   4.004 -1.0014  1.0953  0.5811
 4180TIP3    H234032   2.189   3.296   3.912 -0.5823  0.6409  0.3693
 4181TIP3   OH234033   0.629   1.661  13.480 -0.4924 -0.0888 -0.7148
 4181TIP3    H134034   0.629   1.755  13.457  0.9152  0.0869 -0.0188
 4181TIP3    H234035   0.722   1.637  13.480 -0.6654 -0.8213  1.8529
 4182TIP3   OH234036   6.156   2.070  13.239  0.3446 -0.2996 -0.4275
 4182TIP3    H134037   6.174   2.151  13.192  0.7558 -0.6608 -0.8986
 4182TIP3    H234038   6.062   2.073  13.257 -0.1340 -0.8898 -2.7007
 4183TIP3   OH234039   0.911   1.917   3.210 -0.3884  0.2381 -0.7321
 4183TIP3    H134040   0.892   1.927   3.117 -1.3325 -1.3340 -0.7356
 4183TIP3    H234041   0.839   1.963   3.254  0.9456  2.4078 -0.7624
 4184TIP3   OH234042   6.675   6.741   0.632 -0.1451  0.3599  0.0930
 4184TIP3    H134043   6.623   6.814   0.599 -0.7190 -0.3562 -0.6272
 4184TIP3    H234044   6.763   6.756   0.598  0.1492  1.6074  1.3622
 4185TIP3   OH234045   1.573   3.227  16.856 -0.0956 -0.0131  0.0402
 4185TIP3    H134046   1.575   3.298  16.792  0.1711 -1.5169 -1.7013
 4185TIP3    H234047   1.485   3.190  16.847 -0.4482  0.4936  1.3861
 4186TIP3   OH234048   4.600   4.143  16.484 -0.1715  0.0266 -0.2057
 4186TIP3    H134049   4.622   4.075  16.421  0.6591  0.3059 -0.2205
 4186TIP3    H234050   4.529   4.106  16.537 -0.8395 -0.2269 -1.2745
 4187TIP3   OH234051   1.007   4.379   0.864  0.1153 -0.4183  0.8174
 4187TIP3    H134052   0.972   4.446   0.805  0.1467 -0.3123  0.9205
 4187TIP3    H234053   0.934   4.318   0.875 -0.2729  0.1788  1.6038
 4188TIP3   OH234054   3.640   4.716  10.359  0.3374  0.2614  0.4002
 4188TIP3    H134055   3.724   4.676  10.339  0.2535 -0.2679  1.0810
 4188TIP3    H234056   3.576   4.646  10.350 -0.3607  1.2192 -2.4625
 4189TIP3   OH234057   6.632   5.850  12.164 -0.2293 -0.1101 -0.5869
 4189TIP3    H134058   6.661   5.759  12.176  0.3452  0.1992  0.4415
 4189TIP3    H234059   6.537   5.847  12.178  0.1021 -0.1672  1.7885
 4190TIP3   OH234060   0.211   2.337  14.210  0.1406 -0.4453  0.1801
 4190TIP3    H134061   0.167   2.260  14.173 -0.6517 -0.2573  0.7326
 4190TIP3    H234062   0.245   2.307  14.295 -1.2232  0.1537  0.9415
 4191TIP3   OH234063   0.181   0.031  15.246 -0.3335 -0.0898  0.3929
 4191TIP3    H134064   0.130   0.010  15.324 -0.4380  2.6542  1.1174
 4191TIP3    H234065   0.120   0.077  15.188  0.6053  0.9096  0.1657
 4192TIP3   OH234066   2.426   1.063  11.358  0.1662 -0.1923 -0.0910
 4192TIP3    H134067   2.446   1.128  11.291 -1.5098 -0.7225 -1.1322
 4192TIP3    H234068   2.361   1.105  11.414  0.9701 -0.0478  0.7529
 4193TIP3   OH234069   3.169   4.792   3.153  0.5487  0.8083  0.4366
 4193TIP3    H134070   3.241   4.794   3.215  0.7792  1.5811  0.1428
 4193TIP3    H234071   3.172   4.703   3.116  2.0389  1.1889 -0.3805
 4194TIP3   OH234072   2.273   2.954  13.374  0.1907  0.2816  0.5375
 4194TIP3    H134073   2.234   2.876  13.413  1.7534 -0.4455  0.7066
 4194TIP3    H234074   2.349   2.973  13.429 -0.0730  1.8349  0.3951
 4195TIP3   OH234075   2.212   5.877  13.313  0.3224  0.3958  0.1562
 4195TIP3    H134076   2.124   5.845  13.293 -0.5984  2.9852 -0.1045
 4195TIP3    H234077   2.257   5.877  13.228  0.9487 -1.8866  0.4466
 4196TIP3   OH234078   2.601   0.224   2.511  0.4559 -0.0451 -0.1600
 4196TIP3    H134079   2.658   0.169   2.457  0.1897 -0.8926  0.4172
 4196TIP3    H234080   2.626   0.314   2.489  0.2489 -0.3749 -1.8092
 4197TIP3   OH234081   5.371   0.997   5.920  0.0722  0.4961 -0.0787
 4197TIP3    H134082   5.428   0.965   5.850 -0.3706  0.1308 -0.2772
 4197TIP3    H234083   5.384   0.936   5.992 -1.3553 -0.6208 -0.7272
 4198TIP3   OH234084   0.188   4.081   2.864 -0.3345  0.0980  0.2016
 4198TIP3    H134085   0.224   3.997   2.834  2.1987  0.9128  0.8269
 4198TIP3    H234086   0.247   4.108   2.935 -1.1003  2.4325 -0.0259
 4199TIP3   OH234087   3.999   5.157  12.656 -0.3800  0.1424  0.2854
 4199TIP3    H134088   3.970   5.159  12.564 -1.8685  1.2406  0.7508
 4199TIP3    H234089   3.940   5.094  12.698  1.4526 -1.7138  0.1452
 4200TIP3   OH234090   4.045   6.473   5.357  0.1388 -0.1000  0.2522
 4200TIP3    H134091   4.087   6.491   5.441 -0.2566  0.8003  0.2643
 4200TIP3    H234092   4.087   6.535   5.296  0.8895 -1.1925 -0.3555
 4201TIP3   OH234093   5.393   5.803  16.191 -0.3334  0.1415 -0.8631
 4201TIP3    H134094   5.397   5.740  16.120 -1.9156  0.5074 -1.3046
 4201TIP3    H234095   5.481   5.841  16.195  0.5562 -1.8888 -0.7500
 4202TIP3   OH234096   1.831   2.547   6.745 -0.3490  0.0521  0.0574
 4202TIP3    H134097   1.753   2.583   6.787 -0.9763  0.6885 -1.5791
 4202TIP3    H234098   1.893   2.533   6.816 -1.5028  0.7529  1.2216
 4203TIP3   OH234099   1.831   3.500   5.958  0.4742  0.2985 -0.2175
 4203TIP3    H134100   1.748   3.535   5.925 -1.2797 -3.0860  0.3052
 4203TIP3    H234101   1.816   3.489   6.052  2.0767  1.0492  0.1434
 4204TIP3   OH234102   4.244   1.283   1.373  0.2015  0.4812 -0.0603
 4204TIP3    H134103   4.245   1.298   1.467 -2.4192 -0.1319  0.1174
 4204TIP3    H234104   4.258   1.369   1.334  0.6413  0.8386  0.8893
 4205TIP3   OH234105   3.918   6.553  15.861 -0.2738 -0.4458 -0.6062
 4205TIP3    H134106   3.954   6.470  15.891  0.8333  0.0637 -0.4965
 4205TIP3    H234107   3.849   6.529  15.799  0.0056 -1.4388 -0.5323
 4206TIP3   OH234108   3.624   4.966   0.135  0.7197 -0.3656  0.2207
 4206TIP3    H134109   3.679   5.039   0.105  1.4255 -1.0533 -0.1826
 4206TIP3    H234110   3.574   4.941   0.057  2.6052 -2.2014 -0.4451
 4207TIP3   OH234111   1.445   3.062  13.403 -0.8381 -0.2096  0.6231
 4207TIP3    H134112   1.358   3.079  13.367  0.5642  1.4506 -2.1732
 4207TIP3    H234113   1.471   3.146  13.441  0.4557  0.0157 -0.7014
 4208TIP3   OH234114   1.248   4.541   5.383 -0.5135  0.4291  0.3995
 4208TIP3    H134115   1.301   4.592   5.444  1.3873  1.1790 -1.8030
 4208TIP3    H234116   1.263   4.582   5.298 -0.1844 -2.8055 -1.1766
 4209TIP3   OH234117   3.496   0.337   2.919  0.0865 -0.2193 -0.0159
 4209TIP3    H134118   3.516   0.248   2.948  2.1656  0.2396  0.0262
 4209TIP3    H234119   3.537   0.344   2.833 -2.2223 -0.0952 -1.1631
 4210TIP3   OH234120   6.764   1.502  14.084 -0.1504 -0.2711  0.1194
 4210TIP3    H134121   6.842   1.447  14.082 -0.6027 -0.9257  0.2089
 4210TIP3    H234122   6.784   1.571  14.146 -0.2069 -1.2930  1.2962
 4211TIP3   OH234123   6.638   3.469   6.481  0.2605  0.4841 -0.3395
 4211TIP3    H134124   6.732   3.459   6.472  0.0231 -1.9285 -0.6363
 4211TIP3    H234125   6.611   3.393   6.533 -1.3907  1.7102  0.6665
 4212TIP3   OH234126   4.354   0.797  14.742 -0.1535 -0.1303 -0.6628
 4212TIP3    H134127   4.279   0.808  14.800  0.6105 -1.0417  0.5244
 4212TIP3    H234128   4.321   0.747  14.668 -0.7719 -0.3073 -0.2653
 4213TIP3   OH234129   0.179   5.812  17.065 -0.0364 -0.2241  0.4782
 4213TIP3    H134130   0.136   5.856  16.991 -0.4498  0.0750  0.8984
 4213TIP3    H234131   0.117   5.746  17.094  0.2099 -0.4786  0.4330
 4214TIP3   OH234132   5.341   4.327  14.749 -0.5047 -0.1634 -0.0131
 4214TIP3    H134133   5.422   4.339  14.798 -0.6276  0.1151  0.1212
 4214TIP3    H234134   5.359   4.365  14.663 -0.5303 -0.0125  0.0499
 4215TIP3   OH234135   6.418   3.580  14.641  1.0916 -0.4406  0.3901
 4215TIP3    H134136   6.484   3.600  14.708  1.2795  0.7243 -0.1412
 4215TIP3    H234137   6.453   3.618  14.561 -0.7397  1.1417  0.3157
 4216TIP3   OH234138   1.334   2.035   4.438  0.5609 -0.2437  0.1971
 4216TIP3    H134139   1.261   1.991   4.395 -0.2692  0.5734  0.7484
 4216TIP3    H234140   1.412   1.993   4.403 -0.2192 -3.0485  1.6689
 4217TIP3   OH234141   1.786   3.878   2.002  0.3162  0.3828 -0.3271
 4217TIP3    H134142   1.777   3.956   2.057 -0.7350  0.1619 -0.1671
 4217TIP3    H234143   1.864   3.834   2.035  0.6074  1.0896 -0.0638
 4218TIP3   OH234144   1.837   2.252  16.192  0.1753  0.0553 -0.0836
 4218TIP3    H134145   1.792   2.228  16.112 -0.8519  0.0560  0.4868
 4218TIP3    H234146   1.873   2.340  16.175  0.0427  0.0159 -0.5649
 4219TIP3   OH234147   6.443   1.513   4.916  0.4997 -0.2238  0.3387
 4219TIP3    H134148   6.398   1.576   4.859 -1.3931 -2.1107 -0.2872
 4219TIP3    H234149   6.475   1.566   4.989 -1.1094  1.4594 -0.1459
 4220TIP3   OH234150   2.272   2.155  11.746  0.6564 -0.1702 -0.5825
 4220TIP3    H134151   2.180   2.155  11.718  0.2003  0.6059  0.8874
 4220TIP3    H234152   2.299   2.063  11.736 -0.3701 -0.4683 -0.7250
 4221TIP3   OH234153   4.886   3.436   3.591  0.2369 -0.3522 -0.1589
 4221TIP3    H134154   4.891   3.443   3.687 -0.0966 -1.5502 -0.0447
 4221TIP3    H234155   4.852   3.347   3.576  0.7324 -0.3275 -1.4004
 4222TIP3   OH234156   2.457   3.105   1.568  0.0075  0.4503 -0.1815
 4222TIP3    H134157   2.494   3.177   1.619  1.0852 -1.0987  1.3032
 4222TIP3    H234158   2.487   3.026   1.613 -3.1859 -0.9127 -0.3024
 4223TIP3   OH234159   6.269   1.499   1.540  0.1531 -0.5590 -0.0952
 4223TIP3    H134160   6.220   1.487   1.459 -2.2880  0.4095  1.1771
 4223TIP3    H234161   6.287   1.411   1.572 -0.5259 -0.9336 -0.7447
 4224TIP3   OH234162   5.421   1.932  15.212  0.4207  0.2981 -0.2781
 4224TIP3    H134163   5.337   1.952  15.169  0.2033  2.3148  1.0284
 4224TIP3    H234164   5.486   1.980  15.161  0.5101  0.4328 -0.0390
 4225TIP3   OH234165   5.655   4.522   4.268  0.5536 -0.1760 -0.1626
 4225TIP3    H134166   5.749   4.504   4.262  0.8090  0.4293  1.7665
 4225TIP3    H234167   5.614   4.435   4.276  0.7889 -0.5381 -2.3686
 4226TIP3   OH234168   2.078   0.858   6.495 -0.7026  0.2739 -0.1304
 4226TIP3    H134169   2.167   0.823   6.492 -1.1134 -0.7319 -0.8116
 4226TIP3    H234170   2.077   0.916   6.571  0.2546 -0.4623  0.4386
 4227TIP3   OH234171   5.965   0.380  17.267  0.4355 -0.2835  0.6711
 4227TIP3    H134172   6.044   0.359  17.317  0.3669  0.1418  0.9515
 4227TIP3    H234173   5.971   0.474  17.250  1.5833 -0.8066 -2.0648
 4228TIP3   OH234174   1.688   5.213  15.300 -0.2583  0.3686 -0.1691
 4228TIP3    H134175   1.732   5.177  15.223 -0.3002  1.2204 -0.5912
 4228TIP3    H234176   1.753   5.205  15.370  1.1742  2.9568 -1.1050
 4229TIP3   OH234177   6.452   6.489   1.512  0.3530 -0.0112 -0.0257
 4229TIP3    H134178   6.372   6.453   1.473 -0.7615  0.3375  1.8670
 4229TIP3    H234179   6.438   6.584   1.510  1.0011  0.0763 -0.2896
 4230TIP3   OH234180   1.779   4.888  16.337  0.1612 -0.7251 -0.2025
 4230TIP3    H134181   1.819   4.964  16.295 -1.4619  0.9256  1.1331
 4230TIP3    H234182   1.840   4.816  16.321  1.6701  0.8382 -1.5973
 4231TIP3   OH234183   2.307   3.297   5.194 -0.6680  0.0546  0.2742
 4231TIP3    H134184   2.249   3.372   5.176 -0.3423  0.6339  1.5811
 4231TIP3    H234185   2.258   3.244   5.256  0.8692  1.4199  2.7229
 4232TIP3   OH234186   0.066   4.825  16.144  0.3431  0.2618 -0.5262
 4232TIP3    H134187   0.017   4.850  16.223  0.0403  0.4421 -0.7697
 4232TIP3    H234188   0.075   4.906  16.094  0.8428  0.2156 -0.5113
 4233TIP3   OH234189   3.916   3.069   5.826 -0.1088  0.1992 -0.6503
 4233TIP3    H134190   3.955   3.138   5.773  3.8915 -0.8854  0.6864
 4233TIP3    H234191   3.911   3.107   5.914  1.8286 -1.0351  0.0276
 4234TIP3   OH234192   0.141   0.313   4.795  0.2649 -0.0653 -0.1965
 4234TIP3    H134193   0.151   0.408   4.789  0.6562 -0.1770 -1.7081
 4234TIP3    H234194   0.178   0.281   4.712 -0.1125 -1.5091  0.1923
 4235TIP3   OH234195   1.242   0.145  15.066  0.0464  0.5280 -0.0003
 4235TIP3    H134196   1.297   0.171  14.992  1.1740  2.7180  1.5607
 4235TIP3    H234197   1.162   0.196  15.055  1.0628  2.4735  1.4210
 4236TIP3   OH234198   0.226   3.018   4.640 -0.0979 -0.4777 -0.5632
 4236TIP3    H134199   0.194   3.039   4.552 -0.6558 -1.0664 -0.5090
 4236TIP3    H234200   0.148   3.022   4.695  0.2285 -0.2422 -0.1182
 4237TIP3   OH234201   3.554   2.113   0.035 -0.2154 -0.3129 -0.5714
 4237TIP3    H134202   3.640   2.080   0.008  0.6759  3.0040 -1.9802
 4237TIP3    H234203   3.496   2.090  -0.037 -0.2394 -1.2066 -0.2861
 4238TIP3   OH234204   4.918   0.610  14.423 -0.0157  0.2306  0.2173
 4238TIP3    H134205   4.925   0.650  14.510  0.4439  2.0223 -0.6032
 4238TIP3    H234206   5.007   0.612  14.389 -0.1416 -0.7525 -0.1772
 4239TIP3   OH234207   4.238   0.127  12.284 -0.5487  0.4922 -0.3316
 4239TIP3    H134208   4.249   0.186  12.209 -0.0108  0.6573 -0.1279
 4239TIP3    H234209   4.314   0.144  12.339 -2.0279  1.9189  1.3135
 4240TIP3   OH234210   1.314   6.302  14.727  0.2236  0.3434  0.3600
 4240TIP3    H134211   1.276   6.293  14.640 -0.7880 -0.5970  0.8882
 4240TIP3    H234212   1.393   6.355  14.714 -0.5276  1.1533 -0.9544
 4241TIP3   OH234213   0.253   1.104  12.385 -0.4763  0.4899 -0.0453
 4241TIP3    H134214   0.229   1.087  12.293 -0.5560  0.1722  0.0336
 4241TIP3    H234215   0.196   1.176  12.412 -1.6000 -0.4872  0.2491
 4242TIP3   OH234216   4.641   4.801  12.150 -0.3833 -0.1432  0.5045
 4242TIP3    H134217   4.732   4.785  12.125  0.1645  4.2344 -0.6310
 4242TIP3    H234218   4.646   4.833  12.240 -0.5331  2.2631 -0.3139
 4243TIP3   OH234219   1.212   0.367   3.922  0.4605 -0.2369  0.4399
 4243TIP3    H134220   1.267   0.445   3.932 -0.4147  0.3929  0.4228
 4243TIP3    H234221   1.221   0.343   3.830 -0.3582  0.6765  0.1122
 4244TIP3   OH234222   6.328   6.211   1.430 -0.0678 -0.4802 -0.9951
 4244TIP3    H134223   6.327   6.284   1.368 -1.6445  1.1302  0.8654
 4244TIP3    H234224   6.421   6.199   1.451  0.1786  1.4085 -0.8819
 4245TIP3   OH234225   5.215   5.730  14.024 -0.4331 -0.4256  0.6890
 4245TIP3    H134226   5.226   5.811  14.075  0.2094  0.0520 -0.1904
 4245TIP3    H234227   5.120   5.722  14.013 -0.5062  0.1734  0.8489
 4246TIP3   OH234228   5.795   1.783   3.818  0.1981 -0.1945  0.6016
 4246TIP3    H134229   5.820   1.851   3.880  1.2886 -0.7018  0.7265
 4246TIP3    H234230   5.814   1.820   3.732  1.7853 -0.7271  0.7111
 4247TIP3   OH234231   2.242   0.585   0.646  0.2721 -0.2736  0.4305
 4247TIP3    H134232   2.287   0.661   0.610  1.5549 -0.5945  1.3236
 4247TIP3    H234233   2.264   0.513   0.587 -2.5324  0.3805 -1.5547
 4248TIP3   OH234234   0.129   6.155   3.256  0.3089 -0.1444 -0.1401
 4248TIP3    H134235   0.217   6.120   3.269 -0.3044 -1.8185 -0.3299
 4248TIP3    H234236   0.084   6.139   3.339 -0.3813 -1.0281 -0.6837
 4249TIP3   OH234237   4.589   0.545   6.473  0.1009 -0.0526 -0.1754
 4249TIP3    H134238   4.547   0.462   6.453 -1.8775  1.4267 -2.3984
 4249TIP3    H234239   4.681   0.532   6.448 -0.2031 -1.5290 -0.5792
 4250TIP3   OH234240   4.460   5.401   5.335  0.3789  0.1529 -0.0453
 4250TIP3    H134241   4.453   5.310   5.305  2.9947  0.4828 -1.7793
 4250TIP3    H234242   4.390   5.447   5.289  0.5083 -0.5497 -0.9517
 4251TIP3   OH234243   0.528   4.144   6.428 -0.4930  0.3353 -0.2674
 4251TIP3    H134244   0.597   4.099   6.379  0.0665  1.6674 -0.7272
 4251TIP3    H234245   0.458   4.079   6.435  0.5766 -0.8388 -0.2940
 4252TIP3   OH234246   0.682   3.442  12.013  0.5091 -0.4083 -0.5740
 4252TIP3    H134247   0.665   3.404  12.099  1.5733 -0.8391 -0.5548
 4252TIP3    H234248   0.696   3.535  12.030 -0.0318 -0.3637 -0.3724
 4253TIP3   OH234249   4.100   0.415  16.730  0.1263 -0.7459  0.5727
 4253TIP3    H134250   4.154   0.488  16.700 -0.5473 -0.6109 -0.3177
 4253TIP3    H234251   4.158   0.339  16.730  0.3570 -0.5703 -0.2245
 4254TIP3   OH234252   4.796   0.509  15.369 -0.1230 -0.5239 -0.1565
 4254TIP3    H134253   4.776   0.515  15.275 -0.9469  0.7510  0.0826
 4254TIP3    H234254   4.808   0.600  15.396 -2.7933 -0.6438  1.5758
 4255TIP3   OH234255   3.980   6.352  13.036 -0.3197  0.3933 -0.2237
 4255TIP3    H134256   4.036   6.427  13.016  1.2192 -0.8302 -0.5653
 4255TIP3    H234257   3.964   6.358  13.130  1.0245  0.3290  0.0149
 4256TIP3   OH234258   3.241   2.390  16.389 -0.0724 -0.0900 -0.3039
 4256TIP3    H134259   3.295   2.420  16.315  0.6126  1.1531  0.6731
 4256TIP3    H234260   3.290   2.418  16.466 -0.3929 -2.0990  0.6311
 4257TIP3   OH234261   6.742   0.843   6.702 -0.2613 -0.4389  0.5051
 4257TIP3    H134262   6.792   0.909   6.654  0.9650 -1.4817  0.3294
 4257TIP3    H234263   6.653   0.849   6.666  0.6025 -1.1402 -1.8512
 4258TIP3   OH234264   0.148   6.572   4.073 -0.0465  0.0952 -0.0341
 4258TIP3    H134265   0.152   6.506   4.142  1.2436 -0.3892 -0.5594
 4258TIP3    H234266   0.066   6.554   4.027  1.0035 -2.0945 -1.1104
 4259TIP3   OH234267   1.430   5.194  13.349 -0.7747  0.1198 -0.0125
 4259TIP3    H134268   1.386   5.207  13.265 -0.9566 -3.1453 -0.4692
 4259TIP3    H234269   1.515   5.156  13.327 -0.9796 -1.1426  1.2812
 4260TIP3   OH234270   0.210   6.095   0.409 -0.3026  0.3795  0.0915
 4260TIP3    H134271   0.192   6.186   0.386  0.8649  0.5192 -0.3094
 4260TIP3    H234272   0.273   6.066   0.343 -0.1331 -0.5015  0.6393
 4261TIP3   OH234273   2.707   3.072   5.903  0.1679  0.3751 -0.2234
 4261TIP3    H134274   2.661   2.990   5.883 -1.7257  1.3707 -0.0870
 4261TIP3    H234275   2.728   3.065   5.996  0.4642 -0.1650 -0.3276
 4262TIP3   OH234276   2.286   3.039  12.858  0.1685  0.1510 -0.7566
 4262TIP3    H134277   2.308   2.991  12.938 -0.4727 -1.9490 -1.8095
 4262TIP3    H234278   2.194   3.064  12.870  0.5404  1.3161 -0.1487
 4263TIP3   OH234279   3.078   3.419   4.162  0.3997 -0.0550 -0.5091
 4263TIP3    H134280   3.030   3.362   4.102 -0.4736  0.4896 -0.3380
 4263TIP3    H234281   3.025   3.421   4.242  0.4343  0.9491 -0.4978
 4264TIP3   OH234282   4.870   0.649   4.343  0.2889  0.0812  0.3275
 4264TIP3    H134283   4.936   0.628   4.409 -0.7690 -1.9356  0.7958
 4264TIP3    H234284   4.916   0.643   4.260  1.4217  1.7724  0.7967
 4265TIP3   OH234285   6.184   3.096  11.522 -0.3031  0.2983  0.2025
 4265TIP3    H134286   6.151   3.184  11.505  0.3021  0.5538  0.3037
 4265TIP3    H234287   6.269   3.094  11.477  0.9484  0.7089  2.4406
 4266TIP3   OH234288   0.382   0.662  16.675  0.1102  0.2526  0.7603
 4266TIP3    H134289   0.307   0.606  16.656  0.3198 -0.1232  1.0334
 4266TIP3    H234290   0.386   0.724  16.602  1.0553 -1.3104 -0.5373
 4267TIP3   OH234291   0.781   4.951  12.502  0.6157 -0.1508  0.1943
 4267TIP3    H134292   0.877   4.951  12.508  0.6015  0.8743  0.4198
 4267TIP3    H234293   0.761   5.011  12.431  0.1347 -0.3690  0.1415
 4268TIP3   OH234294   1.614   2.868  15.616  0.3736  0.2298  0.0658
 4268TIP3    H134295   1.523   2.865  15.587  0.6219 -1.9427 -0.5954
 4268TIP3    H234296   1.616   2.813  15.695  1.0031  0.7270  0.4006
 4269TIP3   OH234297   1.545   2.741   5.811  0.1590  0.4099 -0.1132
 4269TIP3    H134298   1.505   2.772   5.892 -0.8323  0.4108 -0.5904
 4269TIP3    H234299   1.529   2.811   5.748 -0.7618 -0.4132 -0.8024
 4270TIP3   OH234300   6.112   4.164   1.490  0.3938  0.4222 -0.5224
 4270TIP3    H134301   6.158   4.201   1.414  5.4538 -0.4403  1.9021
 4270TIP3    H234302   6.138   4.071   1.490 -1.2332 -0.0515  1.0756
 4271TIP3   OH234303   2.729   1.034  14.834 -0.7202  0.2635 -0.2406
 4271TIP3    H134304   2.742   1.015  14.927  0.0637 -1.6903 -0.7222
 4271TIP3    H234305   2.664   0.970  14.805 -0.1632  0.1591 -1.2768
 4272TIP3   OH234306   6.544   3.454   4.638 -0.6563  0.5290 -0.3264
 4272TIP3    H134307   6.605   3.395   4.594  1.8795  0.3556  3.2155
 4272TIP3    H234308   6.482   3.395   4.682 -1.9117  0.6688 -1.8642
 4273TIP3   OH234309   2.894   1.749  13.415  0.2821  0.4556 -0.2571
 4273TIP3    H134310   2.833   1.773  13.345  0.1142 -0.5124 -0.4523
 4273TIP3    H234311   2.860   1.793  13.493  0.9386  2.2257 -0.9402
 4274TIP3   OH234312   0.017   6.299   3.723 -1.0304  0.3023  0.4838
 4274TIP3    H134313  -0.058   6.253   3.760 -1.2728  0.5334  0.2899
 4274TIP3    H234314  -0.002   6.302   3.629  0.3668 -1.7145  0.1201
 4275TIP3   OH234315   4.515   4.747   2.130  0.4975 -0.0157  0.0836
 4275TIP3    H134316   4.544   4.714   2.215 -2.7968 -0.1493  1.2426
 4275TIP3    H234317   4.523   4.672   2.071  2.1457 -0.1192  0.4298
 4276TIP3   OH234318   3.501   2.740  13.660 -0.1065 -0.3713 -0.2685
 4276TIP3    H134319   3.435   2.807  13.642  1.4750  1.0463 -0.8660
 4276TIP3    H234320   3.557   2.779  13.728 -0.1932 -1.7735  0.6251
 4277TIP3   OH234321   3.264   3.679  12.928  0.0499 -0.1728 -0.1956
 4277TIP3    H134322   3.246   3.770  12.902  0.2722  0.1990  0.8944
 4277TIP3    H234323   3.203   3.627  12.878 -1.3581  0.7461  0.5191
 4278TIP3   OH234324   0.624   2.673  12.287 -0.0468 -0.1199  0.1446
 4278TIP3    H134325   0.580   2.593  12.316  0.1255 -0.3953 -0.3552
 4278TIP3    H234326   0.668   2.704  12.366 -0.8669 -0.0147  0.5681
 4279TIP3   OH234327   2.183   4.824  15.828  0.3631 -0.4582  0.3881
 4279TIP3    H134328   2.121   4.849  15.897 -0.4123 -2.6661  0.5198
 4279TIP3    H234329   2.134   4.837  15.746 -0.1450 -1.8490  0.4734
 4280TIP3   OH234330   2.757   4.939  11.163  0.4142  0.1946  0.5110
 4280TIP3    H134331   2.759   4.848  11.135 -2.3012  0.0660  0.6321
 4280TIP3    H234332   2.771   4.989  11.083 -0.9882 -0.2976 -0.0648
 4281TIP3   OH234333   5.775   3.526   6.421 -0.0017  0.3137  0.3907
 4281TIP3    H134334   5.705   3.518   6.486  1.1527 -2.7370  1.3259
 4281TIP3    H234335   5.835   3.590   6.460 -0.4366  0.1930  1.2804
 4282TIP3   OH234336   2.836   2.364  11.841 -0.2874 -0.1204  0.2926
 4282TIP3    H134337   2.871   2.453  11.853 -2.8410  1.2002 -1.5699
 4282TIP3    H234338   2.790   2.346  11.923 -0.8840  0.8150  0.1741
 4283TIP3   OH234339   6.308   2.246   4.835 -0.3931 -0.4798  0.5027
 4283TIP3    H134340   6.399   2.267   4.816 -0.7558  0.7772  0.1079
 4283TIP3    H234341   6.265   2.331   4.844 -1.8040 -1.0615 -0.6573
 4284TIP3   OH234342   3.507   5.551   3.636  0.1137  0.1750 -0.0006
 4284TIP3    H134343   3.492   5.535   3.730 -1.7657 -2.2280 -0.6428
 4284TIP3    H234344   3.567   5.481   3.610 -0.0208  0.3425 -0.7595
 4285TIP3   OH234345   3.194   5.624   2.746  0.1847  0.0266  0.1077
 4285TIP3    H134346   3.233   5.539   2.767 -1.4917 -0.7323  0.2024
 4285TIP3    H234347   3.257   5.666   2.687  0.5708 -1.6862 -0.7142
 4286TIP3   OH234348   6.654   5.916   4.997 -0.0519 -0.5775 -0.9372
 4286TIP3    H134349   6.727   5.969   5.029 -1.7138  0.9158  0.4620
 4286TIP3    H234350   6.643   5.944   4.906 -0.2786  0.7811 -0.5018
 4287TIP3   OH234351   5.199   4.140   3.482 -0.2504  0.2948  0.0787
 4287TIP3    H134352   5.229   4.079   3.550 -2.7826 -0.6465  0.4066
 4287TIP3    H234353   5.213   4.093   3.400  2.6588  1.3702 -0.1349
 4288TIP3   OH234354   3.323   3.913   3.985  0.0700  0.2971 -0.3444
 4288TIP3    H134355   3.289   3.940   4.070  0.1112  1.9986 -0.8561
 4288TIP3    H234356   3.295   3.822   3.976 -0.7931  0.4149  1.0408
 4289TIP3   OH234357   6.438   4.500   4.277 -0.5802 -0.0735 -0.2111
 4289TIP3    H134358   6.466   4.589   4.255 -0.6813  0.0455  0.1310
 4289TIP3    H234359   6.517   4.447   4.265  0.3421  0.5563  2.5159
 4290TIP3   OH234360   5.952   6.741   5.457 -0.2812 -0.3830  0.7465
 4290TIP3    H134361   5.943   6.764   5.550 -2.0729  1.8439  0.0482
 4290TIP3    H234362   5.876   6.687   5.438  0.4454 -1.4229  0.6927
 4291TIP3   OH234363   3.481   5.674   0.416 -0.2579  0.1633  0.2892
 4291TIP3    H134364   3.530   5.599   0.448 -0.4593 -0.5129 -0.9722
 4291TIP3    H234365   3.547   5.729   0.373 -0.1524  0.6218  1.0066
 4292TIP3   OH234366   5.192   0.814  14.348 -0.4285  0.5808 -0.4468
 4292TIP3    H134367   5.205   0.726  14.312 -1.6135  0.1497  0.1730
 4292TIP3    H234368   5.187   0.801  14.442 -2.0154  1.1355 -0.4440
 4293TIP3   OH234369   1.472   0.677   2.019 -0.2974 -0.5294  0.0476
 4293TIP3    H134370   1.550   0.731   2.026 -0.1104 -0.7986  0.0707
 4293TIP3    H234371   1.403   0.727   2.061  0.0277 -0.6071  0.6742
 4294TIP3   OH234372   6.623   0.898  16.561 -0.0583  0.9498  0.6742
 4294TIP3    H134373   6.675   0.880  16.640  0.0260 -1.7138  0.0653
 4294TIP3    H234374   6.536   0.920  16.595  0.0521  0.1164  1.5233
 4295TIP3   OH234375   5.775   2.471   3.929  0.1874  0.1242 -0.5657
 4295TIP3    H134376   5.810   2.551   3.890 -0.1215  1.1082  1.1512
 4295TIP3    H234377   5.843   2.443   3.990  0.1083 -0.7050 -0.8533
 4296TIP3   OH234378   1.396   5.210  15.221  0.1378  0.3475 -0.1364
 4296TIP3    H134379   1.334   5.137  15.219  0.3827 -0.0066  2.8367
 4296TIP3    H234380   1.479   5.170  15.195 -0.4183  0.3811 -2.0723
 4297TIP3   OH234381   6.581   1.519  13.559 -0.0208 -0.1754  0.3847
 4297TIP3    H134382   6.524   1.523  13.482  0.6427 -1.0665 -0.1638
 4297TIP3    H234383   6.539   1.576  13.623  0.0203  1.5023 -1.0411
 4298TIP3   OH234384   0.511   3.781   5.100  0.2504 -0.1124  0.2585
 4298TIP3    H134385   0.582   3.763   5.038 -0.1326  0.3055 -0.3097
 4298TIP3    H234386   0.542   3.745   5.183  1.7195  1.2494  0.3271
 4299TIP3   OH234387   4.378   6.387  14.641  0.3185  0.2282 -0.5476
 4299TIP3    H134388   4.470   6.386  14.615  0.9547  0.1681  1.5948
 4299TIP3    H234389   4.379   6.427  14.728 -1.3310 -2.5008  0.7891
 4300TIP3   OH234390   5.381   3.852   5.067 -0.4029  0.0880  0.3309
 4300TIP3    H134391   5.392   3.826   4.975 -1.0682  1.9765 -0.3174
 4300TIP3    H234392   5.288   3.875   5.074  0.0170  1.6539  1.0010
 4301TIP3   OH234393   3.568   4.850   0.370  0.0577  0.7901 -0.5928
 4301TIP3    H134394   3.596   4.901   0.294 -0.7041 -0.6682 -1.8745
 4301TIP3    H234395   3.519   4.777   0.333 -0.3538  0.0772  1.3137
 4302TIP3   OH234396   5.306   2.561   6.657  0.0204  0.2319 -0.6374
 4302TIP3    H134397   5.324   2.502   6.730  0.1574  0.2861 -0.6255
 4302TIP3    H234398   5.226   2.606   6.681 -0.3876 -0.3506 -0.9023
 4303TIP3   OH234399   0.745   3.265  10.515  0.0431  0.1647  0.0197
 4303TIP3    H134400   0.767   3.236  10.426 -1.5174 -1.3791  0.1090
 4303TIP3    H234401   0.800   3.211  10.572 -0.5348 -0.3674  0.0724
 4304TIP3   OH234402   0.083   6.132   2.843  0.1203  0.1305 -0.6336
 4304TIP3    H134403   0.115   6.080   2.916 -0.8322 -0.3082 -0.5186
 4304TIP3    H234404   0.134   6.102   2.768  2.6517  2.1298  0.2214
 4305TIP3   OH234405   3.942   5.238   2.003  0.0934  0.0881 -0.4948
 4305TIP3    H134406   3.853   5.273   1.994 -0.0865 -0.2121  0.0782
 4305TIP3    H234407   3.966   5.258   2.093  1.7377  2.7849 -1.4457
 4306TIP3   OH234408   1.880   0.014   5.736  0.2592 -0.3211  0.1374
 4306TIP3    H134409   1.961   0.028   5.786  0.2421  0.5630 -0.0714
 4306TIP3    H234410   1.812   0.054   5.789  0.4490  1.9858 -1.2621
 4307TIP3   OH234411   3.075   5.251   3.461 -0.1988 -0.6262  0.0602
 4307TIP3    H134412   3.075   5.307   3.384  1.0334 -3.9586 -2.4866
 4307TIP3    H234413   3.167   5.233   3.478 -0.4999 -0.6092  1.7901
 4308TIP3   OH234414   0.207   2.562  15.948 -0.2931  0.2837 -0.2148
 4308TIP3    H134415   0.153   2.626  15.995  1.7477  0.1668  2.3662
 4308TIP3    H234416   0.288   2.609  15.928 -0.4264 -0.2317 -2.1066
 4309TIP3   OH234417   2.471   5.663  15.211  0.0531  0.2806 -0.2565
 4309TIP3    H134418   2.498   5.738  15.265  0.9356 -0.6356  0.6035
 4309TIP3    H234419   2.384   5.640  15.244  0.4004  0.0072  0.4680
 4310TIP3   OH234420   0.883   2.627  16.625 -0.0222  0.1545 -0.1093
 4310TIP3    H134421   0.920   2.592  16.706 -2.0992  1.4257  1.4532
 4310TIP3    H234422   0.924   2.576  16.555  3.3866  0.4453  1.6065
 4311TIP3   OH234423   4.551   0.297  13.059 -0.4578 -0.4889 -0.5284
 4311TIP3    H134424   4.556   0.233  13.130  0.7979  0.1051 -0.0707
 4311TIP3    H234425   4.577   0.379  13.099 -0.5831  0.0210 -1.4814
 4312TIP3   OH234426   4.248   3.753   6.043  0.3675  0.1759 -0.6672
 4312TIP3    H134427   4.189   3.726   6.114  0.7069  0.6799 -0.1885
 4312TIP3    H234428   4.216   3.839   6.017 -0.8827 -0.7888 -2.3859
 4313TIP3   OH234429   5.044   2.386   1.016 -0.7363  0.7113 -0.3034
 4313TIP3    H134430   5.000   2.303   1.037 -0.8124  0.7045 -0.4895
 4313TIP3    H234431   5.106   2.363   0.947 -1.0161  0.8815 -0.6116
 4314TIP3   OH234432   3.800   4.008  14.348  0.0921 -0.3925 -0.0947
 4314TIP3    H134433   3.869   4.075  14.354  1.1220 -1.2715 -1.6319
 4314TIP3    H234434   3.719   4.057  14.356  0.8753  0.4919  3.2678
 4315TIP3   OH234435   1.138   3.351   5.101 -0.3363 -0.0275  0.2733
 4315TIP3    H134436   1.224   3.386   5.121  0.1203 -0.9382 -0.0668
 4315TIP3    H234437   1.078   3.400   5.158  0.2912  1.1923 -0.1008
 4316TIP3   OH234438   4.365   1.359  15.663 -0.1279  0.3835  0.1314
 4316TIP3    H134439   4.377   1.381  15.571 -0.5399 -0.5002 -0.1345
 4316TIP3    H234440   4.271   1.367  15.678 -0.3205 -1.4404 -0.0367
 4317TIP3   OH234441   1.260   3.445  11.726 -0.6030  0.7878  0.2672
 4317TIP3    H134442   1.172   3.430  11.761 -1.4605  1.7979 -1.4240
 4317TIP3    H234443   1.246   3.479  11.638  1.4910  0.9361 -0.0365
 4318TIP3   OH234444   2.975   2.239  15.947  0.1520  0.3629  0.1881
 4318TIP3    H134445   2.995   2.162  16.001 -0.6090  0.3664  0.4913
 4318TIP3    H234446   2.918   2.205  15.878  2.5497  0.0270 -1.6721
 4319TIP3   OH234447   4.676   5.113  11.435  0.7938  0.2455 -0.3341
 4319TIP3    H134448   4.602   5.133  11.378 -0.7611 -1.5435  0.9705
 4319TIP3    H234449   4.721   5.040  11.391  0.4782 -0.1360 -0.0283
 4320TIP3   OH234450   1.137   0.241   1.191 -0.3075 -0.1015  0.3432
 4320TIP3    H134451   1.179   0.231   1.276  0.3951  0.7414  0.1105
 4320TIP3    H234452   1.108   0.332   1.189 -2.0596 -0.6514  0.4505
 4321TIP3   OH234453   3.735   2.028  17.130 -0.1803  0.1809  0.1195
 4321TIP3    H134454   3.724   2.084  17.053  1.0654 -0.1334 -0.2916
 4321TIP3    H234455   3.824   2.047  17.161 -0.1376 -0.8009  0.5933
 4322TIP3   OH234456   1.770   2.517  14.369 -0.4133  0.3573  0.2978
 4322TIP3    H134457   1.778   2.579  14.441  0.1219 -1.4649  1.8570
 4322TIP3    H234458   1.852   2.526  14.320  0.5539 -0.5119  1.6960
 4323TIP3   OH234459   5.130   1.093  13.735 -0.3736  0.1339 -0.5650
 4323TIP3    H134460   5.081   1.164  13.775  1.1225  0.5187  0.6365
 4323TIP3    H234461   5.196   1.069  13.800  1.0220 -0.3720 -2.1199
 4324TIP3   OH234462   2.433   0.797  11.295 -0.3058 -0.7099  0.9632
 4324TIP3    H134463   2.339   0.783  11.305 -0.9527  1.3655 -1.4337
 4324TIP3    H234464   2.452   0.873  11.350  0.0952 -1.4809  1.8974
 4325TIP3   OH234465   2.426   2.081  12.476  0.1616  0.2365 -0.0227
 4325TIP3    H134466   2.346   2.132  12.466  1.5855  2.3936 -0.9846
 4325TIP3    H234467   2.467   2.115  12.555  0.4485 -0.3978  0.1062
 4326TIP3   OH234468   6.371   5.745   0.999 -1.0172  0.2423 -0.0693
 4326TIP3    H134469   6.286   5.703   0.985 -1.0586  0.4819 -0.5407
 4326TIP3    H234470   6.378   5.753   1.094 -0.6750 -1.5021  0.0703
 4327TIP3   OH234471   0.268   6.721  13.198  0.2875  0.4249  0.0996
 4327TIP3    H134472   0.210   6.744  13.125 -0.6155  2.0864  1.3032
 4327TIP3    H234473   0.212   6.673  13.259  1.0363 -0.9439 -0.2728
 4328TIP3   OH234474   0.241   3.013   0.459  0.0453  0.5642 -0.0631
 4328TIP3    H134475   0.227   2.934   0.510  0.0869 -0.3654 -1.4761
 4328TIP3    H234476   0.178   3.007   0.387  1.4313  0.8200 -1.3211
 4329TIP3   OH234477   2.599   6.171   5.686 -0.0019  0.4400  0.1961
 4329TIP3    H134478   2.506   6.155   5.701  0.3029 -1.5770  0.1445
 4329TIP3    H234479   2.611   6.158   5.592  0.2737  1.0460  0.1451
 4330TIP3   OH234480   3.923   5.821  13.041 -0.0378 -0.0153  0.6919
 4330TIP3    H134481   3.900   5.789  12.954  0.7080 -0.7163  0.7398
 4330TIP3    H234482   3.984   5.893  13.025 -0.1716  0.0842  0.6277
 4331TIP3   OH234483   0.179   0.620   0.856  0.2345  0.2983 -0.3902
 4331TIP3    H134484   0.098   0.624   0.804  0.8494 -0.6175 -1.4466
 4331TIP3    H234485   0.241   0.574   0.799  1.2261  0.1760  0.7842
 4332TIP3   OH234486   0.327   6.379  11.223 -0.1688  0.2666  0.2231
 4332TIP3    H134487   0.295   6.317  11.158 -0.2396  0.2528  0.2713
 4332TIP3    H234488   0.292   6.347  11.306 -0.5302  0.5929  0.1973
 4333TIP3   OH234489   1.340   2.535  13.089 -0.0934  0.0130 -0.1010
 4333TIP3    H134490   1.330   2.453  13.137  0.5122 -1.6529 -2.6973
 4333TIP3    H234491   1.257   2.547  13.043  0.9714 -0.9376 -2.3423
 4334TIP3   OH234492   1.299   3.811  11.844  0.4165 -0.7208 -0.0313
 4334TIP3    H134493   1.389   3.817  11.812  0.2345  3.0655  0.0405
 4334TIP3    H234494   1.247   3.857  11.779 -1.1215 -0.5708  1.2737
 4335TIP3   OH234495   4.040   4.865  15.855  0.0130  0.5409 -0.0465
 4335TIP3    H134496   4.062   4.858  15.948  0.3636  1.0222 -0.0930
 4335TIP3    H234497   3.969   4.802  15.843 -1.9263  2.4219  1.1146
 4336TIP3   OH234498   3.409   5.403  12.235 -0.0680  0.0034  0.4582
 4336TIP3    H134499   3.431   5.400  12.142 -0.4439  0.2013  0.3588
 4336TIP3    H234500   3.406   5.312  12.262 -1.0644 -0.1043  0.0049
 4337TIP3   OH234501   2.383   3.833   1.502 -0.5248 -0.2709 -0.3262
 4337TIP3    H134502   2.300   3.824   1.548 -0.5885 -1.8783 -0.7214
 4337TIP3    H234503   2.448   3.847   1.571 -1.1786  1.4492 -0.0514
 4338TIP3   OH234504   3.767   0.819   2.272  0.1918  0.1783  0.1658
 4338TIP3    H134505   3.680   0.840   2.304 -0.2869  0.2567 -1.1361
 4338TIP3    H234506   3.822   0.892   2.301 -0.4505  0.7869 -0.1387
 4339TIP3   OH234507   5.982   0.593   1.042 -0.2472 -0.2759 -0.0354
 4339TIP3    H134508   6.023   0.665   1.090  1.4823 -1.1124 -0.2552
 4339TIP3    H234509   5.926   0.550   1.107 -0.0461  0.2734  0.5057
 4340TIP3   OH234510   5.683   6.543   3.236  0.0688  0.8922 -0.1777
 4340TIP3    H134511   5.589   6.556   3.250  0.4287  1.9166  1.5112
 4340TIP3    H234512   5.689   6.465   3.181 -1.7115 -0.5429  1.5764
 4341TIP3   OH234513   5.088   2.473   4.901 -0.0293 -0.2595 -0.2067
 4341TIP3    H134514   5.001   2.437   4.916 -0.6627  0.4230 -2.1290
 4341TIP3    H234515   5.141   2.398   4.875 -0.2336 -0.5352  0.1666
 4342TIP3   OH234516   5.834   1.278   4.566  0.1071  0.0592  0.9470
 4342TIP3    H134517   5.875   1.292   4.481 -2.0595  0.2163 -0.0982
 4342TIP3    H234518   5.881   1.204   4.604 -0.5158 -1.6057 -1.4487
 4343TIP3   OH234519   2.246   5.068  17.171  0.1826  0.5393  0.1574
 4343TIP3    H134520   2.192   5.040  17.245 -1.2307  1.0951 -0.6623
 4343TIP3    H234521   2.195   5.046  17.093  0.8316  1.6685 -0.6023
 4344TIP3   OH234522   2.922   2.945   4.810  0.6183 -0.5112 -0.3055
 4344TIP3    H134523   2.894   2.938   4.901  0.0582  0.0423 -0.4367
 4344TIP3    H234524   2.920   2.854   4.778 -1.7354 -0.4125 -0.5274
 4345TIP3   OH234525   0.310   0.748  15.917  0.3941  0.8132  0.0974
 4345TIP3    H134526   0.385   0.797  15.884  0.3195 -0.5095 -2.1296
 4345TIP3    H234527   0.344   0.661  15.937 -0.7876 -0.2698 -2.3692
 4346TIP3   OH234528   0.997   4.853  14.789 -0.0008 -0.4354  0.0671
 4346TIP3    H134529   0.914   4.841  14.743  1.8626 -0.4555 -3.4449
 4346TIP3    H234530   1.005   4.947  14.801 -1.6260 -0.5874  2.6136
 4347TIP3   OH234531   2.063   5.167  14.333 -0.0050 -0.3121  0.0547
 4347TIP3    H134532   2.034   5.112  14.260 -0.0924  0.4508 -0.4835
 4347TIP3    H234533   2.008   5.244  14.329  0.6592  0.1824  0.3283
 4348TIP3   OH234534   2.519   3.559   4.099  0.2110 -0.1176  0.6667
 4348TIP3    H134535   2.428   3.532   4.109  0.1725  0.1021  0.9311
 4348TIP3    H234536   2.528   3.634   4.157  1.4394 -2.1998  3.3233
 4349TIP3   OH234537   5.547   3.749  15.112  0.2231  0.7824 -0.7861
 4349TIP3    H134538   5.519   3.793  15.192 -1.0765  0.4745 -1.0605
 4349TIP3    H234539   5.474   3.693  15.088  0.5797  0.8835 -2.2063
 4350TIP3   OH234540   0.219   0.589   6.274 -0.2148 -0.0931 -0.1026
 4350TIP3    H134541   0.202   0.507   6.227  1.5656 -0.8062  0.4760
 4350TIP3    H234542   0.143   0.599   6.331 -1.6762  0.0016 -2.0059
 4351TIP3   OH234543   0.066   6.656   3.784  0.4438 -0.2475  0.2383
 4351TIP3    H134544  -0.004   6.619   3.838 -0.1041 -1.0349 -0.9845
 4351TIP3    H234545   0.053   6.751   3.789 -1.5006 -0.4230 -0.9978
 4352TIP3   OH234546   0.532   2.853   3.631  0.0904 -0.0941  0.1673
 4352TIP3    H134547   0.521   2.814   3.718 -2.1923 -0.7797 -0.3948
 4352TIP3    H234548   0.560   2.780   3.576  0.7362  0.1645  0.1519
 4353TIP3   OH234549   0.287   6.564   2.562  0.3004  0.5144  0.0079
 4353TIP3    H134550   0.293   6.575   2.467  2.8063  0.4327  0.1377
 4353TIP3    H234551   0.220   6.497   2.574 -0.3748  0.8599 -1.6833
 4354TIP3   OH234552   5.917   3.959  13.617  0.4641  0.3037  0.3486
 4354TIP3    H134553   5.903   3.967  13.711 -1.8236  0.4990  0.0126
 4354TIP3    H234554   5.851   4.016  13.578  1.2679  0.0785 -1.3857
 4355TIP3   OH234555   1.603   6.062   4.915 -0.4016 -0.7142  0.8396
 4355TIP3    H134556   1.560   6.082   4.832 -1.3301 -0.4959  1.3587
 4355TIP3    H234557   1.569   5.976   4.940 -0.1064 -0.7907  0.9799
 4356TIP3   OH234558   2.961   6.036   5.333  0.0094  0.2205  0.0493
 4356TIP3    H134559   2.972   6.118   5.382  0.0782  0.8423 -0.9966
 4356TIP3    H234560   2.869   6.034   5.309  0.0208  0.0257  0.0214
 4357TIP3   OH234561   4.751   5.952   2.878 -0.5971 -0.6121 -0.2530
 4357TIP3    H134562   4.813   5.887   2.911 -0.3015  0.1475  0.6887
 4357TIP3    H234563   4.806   6.027   2.855 -0.7691 -1.1425 -2.5830
 4358TIP3   OH234564   0.090   0.079   5.053 -0.6756  0.4261 -0.3025
 4358TIP3    H134565   0.178   0.115   5.045  0.0877 -1.4095 -0.3272
 4358TIP3    H234566   0.036   0.136   4.998  1.0186 -0.1186 -2.5978
 4359TIP3   OH234567   6.009   1.400   0.919  0.4697 -0.3421  0.2474
 4359TIP3    H134568   5.976   1.485   0.947  0.3923 -0.2520 -0.1172
 4359TIP3    H234569   5.945   1.337   0.951  1.6345 -0.4825  2.4738
 4360TIP3   OH234570   6.176   0.461   1.557  0.3940  0.3981 -0.3627
 4360TIP3    H134571   6.255   0.426   1.598  0.8552  1.6638 -0.1481
 4360TIP3    H234572   6.140   0.522   1.621 -0.9345 -0.3762 -0.3355
 4361TIP3   OH234573   5.367   2.876  12.850  0.3219 -0.8076  0.2094
 4361TIP3    H134574   5.400   2.963  12.828  0.3790 -0.5534  1.2508
 4361TIP3    H234575   5.423   2.847  12.923 -0.6015 -1.1171  0.8035
 4362TIP3   OH234576   6.564   3.993   2.728 -0.2081 -0.0178  0.8061
 4362TIP3    H134577   6.644   3.978   2.678 -0.5932  1.4606 -0.2975
 4362TIP3    H234578   6.593   4.039   2.807  0.1024 -0.0216  0.6939
 4363TIP3   OH234579   4.932   4.286   3.247 -0.9629  0.4771 -0.2972
 4363TIP3    H134580   5.006   4.319   3.297 -0.6913 -1.7997  0.8580
 4363TIP3    H234581   4.966   4.276   3.158 -0.5159  1.4388 -0.2407
 4364TIP3   OH234582   0.004   2.037  11.428  0.0204  0.4032 -0.6032
 4364TIP3    H134583   0.022   2.084  11.509  1.5479 -1.3859  0.1392
 4364TIP3    H234584  -0.071   1.981  11.449 -0.6656  1.1814 -0.9513
 4365TIP3   OH234585   6.810   2.097   4.002 -0.4745  0.3020  0.6428
 4365TIP3    H134586   6.836   2.152   4.076 -0.7883  0.1302  0.8828
 4365TIP3    H234587   6.810   2.008   4.037  0.4447  0.0962  0.1443
 4366TIP3   OH234588   1.430   4.282   4.126  0.5263  0.1490  0.2514
 4366TIP3    H134589   1.344   4.317   4.103  0.3528 -0.4079  0.0238
 4366TIP3    H234590   1.492   4.346   4.092  0.2479 -0.3582 -1.2713
 4367TIP3   OH234591   0.597   1.098   3.254 -0.4030  0.3389 -0.3028
 4367TIP3    H134592   0.552   1.126   3.335 -1.2152 -1.0895 -0.2348
 4367TIP3    H234593   0.675   1.052   3.285 -0.9112 -0.5447 -0.2924
 4368TIP3   OH234594   5.585   2.936   1.790  0.3124  0.1867 -0.4465
 4368TIP3    H134595   5.645   2.883   1.843  0.3779  1.4233  0.7530
 4368TIP3    H234596   5.529   2.873   1.746  0.4335 -0.8865  0.9061
 4369TIP3   OH234597   4.340   2.914   2.227 -0.1153  0.6186  0.0673
 4369TIP3    H134598   4.396   2.991   2.240  0.2637  0.4313 -0.4240
 4369TIP3    H234599   4.253   2.943   2.254 -0.2673  1.6851 -1.5073
 4370TIP3   OH234600   1.780   2.812   3.187  0.2121 -0.4838 -0.2168
 4370TIP3    H134601   1.871   2.839   3.171  0.2372  0.3170  1.2159
 4370TIP3    H234602   1.735   2.892   3.214 -0.4032 -1.2877  1.2066
 4371TIP3   OH234603   2.585   0.275   4.683  0.2788  0.2271  0.4945
 4371TIP3    H134604   2.649   0.236   4.742  0.2776  0.4703  0.6578
 4371TIP3    H234605   2.617   0.364   4.668 -0.7033  0.7949  1.6144
 4372TIP3   OH234606   6.653   5.290  15.961 -0.2770  0.4414  0.1542
 4372TIP3    H134607   6.610   5.351  15.901 -0.4806  0.1840  0.0392
 4372TIP3    H234608   6.720   5.247  15.908 -1.0117 -0.3909 -0.1114
 4373TIP3   OH234609   3.351   2.149   2.160  0.2170  0.3511 -0.0949
 4373TIP3    H134610   3.396   2.104   2.088  0.9346  0.8786  0.0220
 4373TIP3    H234611   3.259   2.149   2.134  0.2430 -0.8910 -0.2599
 4374TIP3   OH234612   5.931   4.005  10.756 -0.1764  0.3503 -0.1575
 4374TIP3    H134613   6.020   4.024  10.785  0.9667 -0.7765 -2.7357
 4374TIP3    H234614   5.911   3.920  10.795 -0.0351  0.4915  0.2260
 4375TIP3   OH234615   5.245   0.082   1.799 -0.7352  0.3420 -0.3913
 4375TIP3    H134616   5.235   0.147   1.729  1.8572  0.4693 -0.7260
 4375TIP3    H234617   5.305   0.017   1.762 -0.1098 -0.1024  1.3675
 4376TIP3   OH234618   5.629   3.748   2.781 -0.0393 -0.1962 -0.2272
 4376TIP3    H134619   5.678   3.672   2.812 -1.5254 -0.8287  0.6314
 4376TIP3    H234620   5.564   3.764   2.849  0.3586  1.9500 -0.3248
 4377TIP3   OH234621   2.477   3.072   6.696  0.0929  0.7406  0.2180
 4377TIP3    H134622   2.432   3.154   6.675 -0.6979  0.0481 -0.8253
 4377TIP3    H234623   2.408   3.016   6.732  0.4092  0.1733 -0.0548
 4378TIP3   OH234624   5.836   3.204   2.559 -0.0366 -0.0901  0.0528
 4378TIP3    H134625   5.890   3.238   2.631 -1.3639  2.2392  0.0082
 4378TIP3    H234626   5.752   3.185   2.600  0.5830 -3.1245 -0.0044
 4379TIP3   OH234627   3.690   5.557   2.334  0.0463  0.0534 -0.1932
 4379TIP3    H134628   3.770   5.506   2.323 -0.0669 -0.6846  1.9873
 4379TIP3    H234629   3.708   5.612   2.410 -2.3109 -1.8762  1.8695
 4380TIP3   OH234630   6.407   2.698   2.844 -0.0320 -0.2992  0.2854
 4380TIP3    H134631   6.465   2.693   2.768 -0.1308  1.8932  0.0454
 4380TIP3    H234632   6.323   2.725   2.808  0.0513  1.2593  1.2167
 4381TIP3   OH234633   0.016   4.692   5.489  0.9939 -0.3360 -0.3280
 4381TIP3    H134634   0.013   4.625   5.557 -1.2360  1.3219  1.2891
 4381TIP3    H234635   0.108   4.695   5.463  1.6259 -2.0588  1.5744
 4382TIP3   OH234636   6.035   1.856  11.873  0.0951  0.8217 -0.3735
 4382TIP3    H134637   6.113   1.851  11.928 -0.4023 -2.5909  0.1195
 4382TIP3    H234638   6.064   1.903  11.795  1.9989  1.7069  0.8404
 4383TIP3   OH234639   0.537   4.870  14.654  0.4615 -0.1789  0.2461
 4383TIP3    H134640   0.572   4.960  14.653 -0.5054  0.2150  1.0687
 4383TIP3    H234641   0.455   4.876  14.604 -0.7539 -0.1085  2.1952
 4384TIP3   OH234642   6.359   5.083  17.012 -0.1225 -0.7533  0.1043
 4384TIP3    H134643   6.313   5.021  16.955 -2.1509  0.2831  0.5559
 4384TIP3    H234644   6.347   5.047  17.100 -1.1757  0.1727  0.3497
 4385TIP3   OH234645   2.737   1.686  14.083  0.1015 -0.2444 -0.1783
 4385TIP3    H134646   2.760   1.773  14.116 -0.0186 -0.3353  0.1402
 4385TIP3    H234647   2.749   1.694  13.988 -0.1100  0.1808 -0.1744
 4386TIP3   OH234648   4.068   0.314   0.631 -0.3301 -0.2701  0.3259
 4386TIP3    H134649   3.994   0.278   0.582  1.3055 -0.9747 -1.6953
 4386TIP3    H234650   4.117   0.237   0.659  1.4802  0.2602 -1.3080
 4387TIP3   OH234651   1.963   5.383   1.309  0.1070  0.3880  0.1026
 4387TIP3    H134652   1.931   5.373   1.399 -1.0102 -1.0704 -0.4393
 4387TIP3    H234653   1.940   5.301   1.266  1.2172  0.8153 -1.3516
 4388TIP3   OH234654   2.061   3.343   5.522  0.0567  0.1145 -0.0792
 4388TIP3    H134655   2.127   3.411   5.517 -0.3274  0.6172  1.4247
 4388TIP3    H234656   1.999   3.373   5.589 -1.7125 -0.3344 -1.4566
 4389TIP3   OH234657   0.337   1.365   5.463  0.0549 -0.0632 -0.4767
 4389TIP3    H134658   0.410   1.318   5.422  0.8342  1.3283 -0.7023
 4389TIP3    H234659   0.357   1.363   5.556 -0.4668 -1.0912 -0.3737
 4390TIP3   OH234660   4.367   5.222  12.348  0.0870  0.3379  0.5940
 4390TIP3    H134661   4.394   5.131  12.352 -1.9353 -0.3146 -0.2623
 4390TIP3    H234662   4.442   5.271  12.384  1.5807 -1.5547  0.1249
 4391TIP3   OH234663   0.572   2.843  11.320 -0.2172  0.5644 -0.0706
 4391TIP3    H134664   0.513   2.775  11.289  0.3217  0.4364 -0.8397
 4391TIP3    H234665   0.573   2.908  11.250  1.4415  0.0025 -0.6104
 4392TIP3   OH234666   3.838   0.684   5.619 -0.0490 -0.1552 -0.4774
 4392TIP3    H134667   3.757   0.720   5.654 -0.7727 -0.5190 -1.7647
 4392TIP3    H234668   3.904   0.751   5.640 -0.5348 -0.1922  1.2040
 4393TIP3   OH234669   4.214   5.446   4.336  0.3503  0.2435  0.2838
 4393TIP3    H134670   4.209   5.425   4.429 -0.1751  0.6452  0.3511
 4393TIP3    H234671   4.130   5.489   4.317 -0.2982 -1.4473 -0.7888
 4394TIP3   OH234672   5.667   2.666  14.944  0.2197 -0.1250 -0.2771
 4394TIP3    H134673   5.759   2.645  14.958 -0.1505 -0.9450  1.0476
 4394TIP3    H234674   5.657   2.754  14.980  0.9007  0.7648 -2.2095
 4395TIP3   OH234675   2.194   1.902   3.092 -0.7421  0.1453  0.4109
 4395TIP3    H134676   2.134   1.950   3.035 -0.5106  0.2289  0.2340
 4395TIP3    H234677   2.142   1.831   3.129 -1.0573  0.4675  0.5844
 4396TIP3   OH234678   1.618   6.768   3.173 -0.2393  0.4296 -0.3911
 4396TIP3    H134679   1.678   6.831   3.212  0.8158 -1.7694  1.7082
 4396TIP3    H234680   1.670   6.723   3.106  0.4324 -1.2780  1.2317
 4397TIP3   OH234681   5.746   1.944  12.284  0.2200  0.4406  1.1732
 4397TIP3    H134682   5.664   1.909  12.318  0.3250  0.4806  1.4701
 4397TIP3    H234683   5.720   2.018  12.230  0.0780  0.6053  1.4661
 4398TIP3   OH234684   1.046   6.329  11.759  0.0690  0.3379 -0.2366
 4398TIP3    H134685   0.963   6.359  11.795 -0.3225 -0.5153 -0.4144
 4398TIP3    H234686   1.040   6.233  11.760  1.8619  0.1942  1.7110
 4399TIP3   OH234687   0.340   2.166  11.609  0.5461 -0.2395  0.0164
 4399TIP3    H134688   0.308   2.160  11.699 -1.1504  0.0041 -0.5610
 4399TIP3    H234689   0.297   2.243  11.572  1.0438 -0.4723 -1.0823
 4400TIP3   OH234690   5.497   1.499   5.368  0.1446 -1.0118 -0.6018
 4400TIP3    H134691   5.406   1.526   5.367  0.8161  1.7525  2.1369
 4400TIP3    H234692   5.520   1.484   5.276 -1.9138  2.4672 -1.7606
 4401TIP3   OH234693   6.402   1.944   4.218  0.0110 -0.3943  0.2760
 4401TIP3    H134694   6.462   1.978   4.152  0.3099 -0.1290  0.6749
 4401TIP3    H234695   6.436   1.857   4.238 -0.2940 -0.6178 -0.1828
 4402TIP3   OH234696   0.434   5.296  17.194 -0.2227 -0.4178 -0.2946
 4402TIP3    H134697   0.354   5.279  17.146 -0.4292  2.3671 -1.0420
 4402TIP3    H234698   0.408   5.292  17.286 -0.9387 -0.7646 -0.5073
 4403TIP3   OH234699   1.996   0.471   6.628 -0.0404  0.3576 -0.2394
 4403TIP3    H134700   2.019   0.461   6.535 -0.2200  0.3646 -0.2850
 4403TIP3    H234701   2.077   0.497   6.670 -0.0578  0.7827 -0.4693
 4404TIP3   OH234702   3.056   5.792  14.908 -0.3180 -0.0064  0.0577
 4404TIP3    H134703   2.970   5.805  14.868 -0.5768 -0.1693  0.5644
 4404TIP3    H234704   3.062   5.697  14.921  0.4152 -0.1260 -1.0496
 4405TIP3   OH234705   1.362   5.160   5.208  0.0986  0.2497 -0.1475
 4405TIP3    H134706   1.325   5.246   5.228  3.0474  1.8222 -1.0991
 4405TIP3    H234707   1.426   5.144   5.277 -1.1810 -1.6909  0.6101
 4406TIP3   OH234708   5.860   3.350  12.262 -0.3084 -0.0163 -0.6110
 4406TIP3    H134709   5.953   3.353  12.238  0.0069  1.5650  0.7605
 4406TIP3    H234710   5.858   3.375  12.354 -1.8805 -2.3851  0.0383
 4407TIP3   OH234711   1.172   3.242  12.140  0.0948 -0.3020  0.0887
 4407TIP3    H134712   1.185   3.265  12.048  2.9568 -2.2254 -0.0595
 4407TIP3    H234713   1.163   3.326  12.185 -0.9472  0.6759 -1.8636
 4408TIP3   OH234714   5.919   5.650   0.426 -0.0405  0.0303  0.7219
 4408TIP3    H134715   5.941   5.618   0.514 -1.9209  0.3810  1.3382
 4408TIP3    H234716   5.860   5.584   0.391 -0.8838  0.8844  0.5103
 4409TIP3   OH234717   0.689   1.704   2.997  0.2208 -0.3335 -0.2460
 4409TIP3    H134718   0.705   1.798   2.988  1.6757 -0.5099  0.3464
 4409TIP3    H234719   0.748   1.663   2.934  2.3691 -1.0093  2.1149
 4410TIP3   OH234720   6.774   2.719  16.993  0.0163  0.5409 -0.0718
 4410TIP3    H134721   6.859   2.711  17.036  0.3828  0.6903 -0.7761
 4410TIP3    H234722   6.789   2.777  16.918 -0.3627 -0.6804 -1.1078
 4411TIP3   OH234723   0.068   5.507  14.037 -0.0352 -0.4803  0.6447
 4411TIP3    H134724   0.007   5.444  14.000 -0.9389  0.0349  1.2377
 4411TIP3    H234725   0.096   5.561  13.963 -1.8145  0.5372  0.7059
 4412TIP3   OH234726   5.937   0.291   1.715  0.5724  0.0170  0.7221
 4412TIP3    H134727   5.889   0.209   1.702  1.5801 -0.7460  1.6651
 4412TIP3    H234728   6.019   0.279   1.668 -0.0808  1.2719 -0.7883
 4413TIP3   OH234729   6.395   2.143   1.957 -0.1559  0.1121  0.1388
 4413TIP3    H134730   6.461   2.116   1.892 -0.1406  0.8383 -0.1521
 4413TIP3    H234731   6.321   2.173   1.905  0.3201  1.8446  0.4383
 4414TIP3   OH234732   3.007   1.482   3.489  0.3942 -0.0872 -1.2155
 4414TIP3    H134733   2.924   1.435   3.494  0.6167 -0.6980 -2.9401
 4414TIP3    H234734   3.071   1.414   3.466  1.1931  0.5661 -0.9450
 4415TIP3   OH234735   2.017   0.061  11.899  0.2475  0.5036  0.8048
 4415TIP3    H134736   2.086   0.031  11.841  0.8221 -1.6452  2.5369
 4415TIP3    H234737   1.963   0.119  11.845  1.3164 -0.6774 -1.5789
 4416TIP3   OH234738   1.268   4.462   5.787 -0.4949  0.2367 -0.7955
 4416TIP3    H134739   1.356   4.425   5.777  0.2292  1.0449  1.8959
 4416TIP3    H234740   1.209   4.387   5.778  0.6391 -0.7550 -0.1682
 4417TIP3   OH234741   5.364   4.366   2.908  0.3018  0.0721  0.6883
 4417TIP3    H134742   5.411   4.396   2.831 -2.8927  0.6962 -1.1149
 4417TIP3    H234743   5.381   4.272   2.913  1.6636  0.2895  0.0603
 4418TIP3   OH234744   1.821   6.599  16.658 -0.1887 -0.4820  0.3002
 4418TIP3    H134745   1.746   6.541  16.655  0.8152 -1.8931  2.0215
 4418TIP3    H234746   1.885   6.559  16.599  0.1025 -0.5639  0.6681
 4419TIP3   OH234747   4.098   2.639   2.399 -0.1893  0.6233  0.1543
 4419TIP3    H134748   4.106   2.723   2.444  1.3625  1.7532 -2.1152
 4419TIP3    H234749   4.044   2.585   2.457 -1.3495  3.2324  1.5690
 4420TIP3   OH234750   5.313   5.295   0.293  0.2686 -0.3417 -0.1777
 4420TIP3    H134751   5.320   5.390   0.288  1.0217 -0.3885  0.0352
 4420TIP3    H234752   5.317   5.266   0.202 -1.1902 -0.0888 -0.3403
 4421TIP3   OH234753   5.648   3.741   5.871  0.3301 -0.4365  0.5697
 4421TIP3    H134754   5.705   3.670   5.900 -0.2033 -0.5200  1.4251
 4421TIP3    H234755   5.670   3.815   5.928 -0.1973 -0.3756  0.6995
 4422TIP3   OH234756   1.970   6.366  14.370  0.4344  0.2101 -0.3062
 4422TIP3    H134757   1.907   6.343  14.439  0.0664  1.9407 -0.0381
 4422TIP3    H234758   1.994   6.283  14.331 -0.1298 -0.7028  1.2564
 4423TIP3   OH234759   6.528   5.473   5.403 -0.0435 -0.3844 -0.2267
 4423TIP3    H134760   6.570   5.558   5.389  0.1195 -0.3557  0.4309
 4423TIP3    H234761   6.475   5.460   5.324  1.4712 -0.5976 -1.2338
 4424TIP3   OH234762   3.709   2.406  14.026  0.4924  0.0408  0.2717
 4424TIP3    H134763   3.687   2.486  13.978  0.4562  0.2534  0.6380
 4424TIP3    H234764   3.634   2.392  14.084  0.9080  0.2461  0.8580
 4425TIP3   OH234765   6.533   0.615  14.158 -0.4310 -0.2155  0.4491
 4425TIP3    H134766   6.589   0.662  14.220 -0.1302  0.3389 -0.2291
 4425TIP3    H234767   6.446   0.618  14.197 -0.6437  1.8995 -0.1150
 4426TIP3   OH234768   2.882   6.448  14.183  0.3757  0.1321 -0.3544
 4426TIP3    H134769   2.867   6.399  14.103 -0.6050 -0.8271  0.4020
 4426TIP3    H234770   2.795   6.464  14.219  0.6782  2.4111 -0.5549
 4427TIP3   OH234771   6.149   1.721   0.179  0.4358 -0.5696 -0.4653
 4427TIP3    H134772   6.138   1.749   0.088 -2.4453  0.0094  0.0101
 4427TIP3    H234773   6.161   1.627   0.174  2.3080 -0.3002 -1.5550
 4428TIP3   OH234774   6.421   4.588   1.341  0.0434  0.4284  0.1286
 4428TIP3    H134775   6.510   4.623   1.344  0.2746 -0.2168  0.7688
 4428TIP3    H234776   6.371   4.644   1.402  0.1455  0.4053  0.2336
 4429TIP3   OH234777   1.302   0.710   4.148  0.0573 -0.2964 -0.0860
 4429TIP3    H134778   1.208   0.702   4.130  0.3745  0.4643 -2.3180
 4429TIP3    H234779   1.344   0.665   4.074  1.4706  0.9867 -0.0863
 4430TIP3   OH234780   1.581   1.874   2.927 -0.0826  0.1649  0.2843
 4430TIP3    H134781   1.646   1.881   2.996  0.6343 -1.2625 -0.2324
 4430TIP3    H234782   1.590   1.785   2.894 -1.5822  0.2848 -0.4998
 4431TIP3   OH234783   4.968   3.992  11.722 -0.8698  0.2030  0.5462
 4431TIP3    H134784   4.910   3.950  11.658  0.0115 -0.5697  0.2267
 4431TIP3    H234785   4.912   4.016  11.795 -1.3115 -2.0097  0.9505
 4432TIP3   OH234786   6.010   6.394   1.376  0.1774  0.5528 -0.0021
 4432TIP3    H134787   6.016   6.315   1.321  1.7698  0.0492  0.8786
 4432TIP3    H234788   5.917   6.400   1.398  0.1056 -1.3425  0.3006
 4433TIP3   OH234789   5.259   2.174  11.870 -0.4793 -0.1978  0.3207
 4433TIP3    H134790   5.352   2.149  11.874 -0.1968  1.0834  2.4082
 4433TIP3    H234791   5.259   2.262  11.832 -0.7027  0.3657  1.5904
 4434TIP3   OH234792   3.858   2.280  11.910 -0.5640 -0.3764 -0.3896
 4434TIP3    H134793   3.873   2.194  11.871 -0.8429 -0.8033  0.4402
 4434TIP3    H234794   3.945   2.320  11.913 -0.3387 -0.8701 -0.2102
 4435TIP3   OH234795   5.953   6.128   3.586 -0.4502  0.6179  0.3314
 4435TIP3    H134796   6.044   6.144   3.610  0.2064  0.2699 -1.7984
 4435TIP3    H234797   5.902   6.158   3.661  1.4163  0.9115  1.4992
 4436TIP3   OH234798   5.479   1.276   2.318 -0.6866  0.0777  0.3516
 4436TIP3    H134799   5.465   1.358   2.271  0.9695  0.3787  0.3833
 4436TIP3    H234800   5.563   1.243   2.287  0.7681  0.5894  3.5227
 4437TIP3   OH234801   2.325   2.011   4.065  0.2935  0.4230  0.0065
 4437TIP3    H134802   2.346   2.012   3.972  0.7481  0.6283  0.1080
 4437TIP3    H234803   2.256   2.077   4.076 -1.7324 -1.5280 -0.6319
 4438TIP3   OH234804   3.137   0.384   1.948  0.0384  0.0726 -0.0086
 4438TIP3    H134805   3.078   0.459   1.957  0.3412  0.1788  1.1957
 4438TIP3    H234806   3.208   0.415   1.892  0.2156  0.7182  0.5665
 4439TIP3   OH234807   3.804   3.873  12.749 -0.5015 -0.4371 -0.3264
 4439TIP3    H134808   3.898   3.864  12.764 -0.1743  3.0667  0.3650
 4439TIP3    H234809   3.792   3.857  12.655  1.1510  1.1706 -0.8421
 4440TIP3   OH234810   6.197   0.258  13.228  0.0300 -0.3122 -0.0306
 4440TIP3    H134811   6.107   0.291  13.235 -0.3568 -1.4721  0.5615
 4440TIP3    H234812   6.214   0.255  13.134 -1.1494 -1.6746 -0.2075
 4441TIP3   OH234813   0.149   5.286   2.818 -0.0098 -0.7507  0.3081
 4441TIP3    H134814   0.170   5.379   2.830 -0.9072 -0.6749  1.4442
 4441TIP3    H234815   0.233   5.244   2.803  0.3687  0.3012 -0.5808
 4442TIP3   OH234816   4.583   5.673   4.951  0.1895  0.2275 -1.0425
 4442TIP3    H134817   4.627   5.599   4.992 -0.2072 -1.3570 -3.3607
 4442TIP3    H234818   4.517   5.700   5.014  0.1591 -1.5985 -0.2631
 4443TIP3   OH234819   6.547   6.355  14.275 -0.2430 -0.0073 -0.7587
 4443TIP3    H134820   6.596   6.308  14.208 -0.4928 -0.8311 -0.3735
 4443TIP3    H234821   6.457   6.356  14.243 -0.4598 -0.8749 -0.1837
 4444TIP3   OH234822   6.525   2.902   2.969  0.1125  0.0554 -0.0420
 4444TIP3    H134823   6.615   2.874   2.987  0.7260 -0.1307 -3.1942
 4444TIP3    H234824   6.478   2.822   2.948 -0.2499  0.4190 -0.6199
 4445TIP3   OH234825   4.847   1.014   1.309 -0.1630  0.2382  0.0841
 4445TIP3    H134826   4.829   0.956   1.235  0.5072 -1.0207  0.9138
 4445TIP3    H234827   4.855   0.957   1.384 -0.4718  1.4902  1.0868
 4446TIP3   OH234828   5.528   5.217  15.175 -0.1761  0.3571 -0.9670
 4446TIP3    H134829   5.606   5.268  15.153 -1.0209  1.7002 -0.9250
 4446TIP3    H234830   5.490   5.193  15.090  0.5564 -0.7363 -0.9900
 4447TIP3   OH234831   4.317   6.340   4.728  0.5113  0.1221  0.0498
 4447TIP3    H134832   4.264   6.418   4.745  0.1311 -0.8092  3.5989
 4447TIP3    H234833   4.372   6.364   4.654 -2.8792  2.1000 -1.9869
 4448TIP3   OH234834   5.701   3.439  13.723  0.1387 -0.3624 -0.4566
 4448TIP3    H134835   5.670   3.348  13.718 -1.1412  0.0971 -1.3977
 4448TIP3    H234836   5.761   3.448  13.649 -0.5835 -0.1594 -1.0351
 4449TIP3   OH234837   4.949   0.382   5.777  0.4705 -0.1854  0.5522
 4449TIP3    H134838   5.019   0.364   5.840  0.3638 -0.4775  0.5858
 4449TIP3    H234839   4.898   0.451   5.819 -0.5847 -1.5440  1.5492
 4450TIP3   OH234840   2.385   0.017  11.989 -0.2921  0.1459 -0.6016
 4450TIP3    H134841   2.446  -0.053  11.963  0.5884  0.5211  0.4215
 4450TIP3    H234842   2.396   0.084  11.921 -1.5334 -0.9118 -1.8844
 4451TIP3   OH234843   0.334   0.961  15.321  0.0078  0.1570 -0.2424
 4451TIP3    H134844   0.306   1.001  15.404 -1.3862  1.3282 -1.2588
 4451TIP3    H234845   0.429   0.966  15.323 -0.0699  1.5007  0.6638
 4452TIP3   OH234846   2.873   5.220   2.460 -0.0551 -0.4837  0.3309
 4452TIP3    H134847   2.868   5.282   2.533 -0.0752 -0.5265  0.3662
 4452TIP3    H234848   2.859   5.135   2.501 -0.2317 -0.4933  0.2532
 4453TIP3   OH234849   2.579   0.803  11.657  0.0630 -0.2548  0.1774
 4453TIP3    H134850   2.506   0.750  11.625 -0.5297  0.6491  0.0100
 4453TIP3    H234851   2.629   0.744  11.714 -1.8495 -0.3607  1.7936
 4454TIP3   OH234852   3.578   4.184  14.386 -0.3747  0.8473  0.1706
 4454TIP3    H134853   3.492   4.149  14.409 -0.3176  0.4695 -0.1978
 4454TIP3    H234854   3.627   4.181  14.468 -0.6053  0.7558  0.3067
 4455TIP3   OH234855   2.652   2.969   1.095  0.4632 -0.5350 -0.1674
 4455TIP3    H134856   2.668   2.914   1.172  0.8085 -0.5742 -0.2642
 4455TIP3    H234857   2.557   2.978   1.091  0.4374 -0.6148  0.2077
 4456TIP3   OH234858   3.736   2.849  14.195 -0.0403 -0.1500  0.3105
 4456TIP3    H134859   3.654   2.824  14.151  0.4493 -0.0787 -0.6620
 4456TIP3    H234860   3.710   2.868  14.285 -0.7691 -2.0985  0.5340
 4457TIP3   OH234861   2.098   3.736  13.090 -0.4980  0.6441 -0.1382
 4457TIP3    H134862   2.027   3.680  13.058 -0.6375  0.0564  1.1670
 4457TIP3    H234863   2.120   3.792  13.016 -0.8215 -0.6816 -1.2544
 4458TIP3   OH234864   4.129   4.587  10.795  0.4232  0.4422  0.0695
 4458TIP3    H134865   4.090   4.595  10.882  1.8664 -0.6168  0.8282
 4458TIP3    H234866   4.201   4.650  10.795 -0.3367  1.3293 -0.8090
 4459TIP3   OH234867   6.518   5.503   0.548 -0.0718  0.2025  0.7257
 4459TIP3    H134868   6.462   5.577   0.523 -1.2280 -0.7381  0.4931
 4459TIP3    H234869   6.464   5.452   0.608  0.8291 -0.3001  1.1123
 4460TIP3   OH234870   5.015   4.116   1.467 -0.6574 -0.0299 -0.5226
 4460TIP3    H134871   5.042   4.075   1.384 -1.3936 -0.1948 -0.6789
 4460TIP3    H234872   5.040   4.208   1.458 -1.7074  0.1807 -1.3575
 4461TIP3   OH234873   0.430   6.122  15.089 -0.5924 -0.0688  0.2112
 4461TIP3    H134874   0.397   6.118  15.000 -1.0812 -0.0640  0.3890
 4461TIP3    H234875   0.515   6.167  15.082 -1.2333  1.1010 -0.0772
 4462TIP3   OH234876   4.613   0.459  15.575 -0.3817 -0.4833 -0.2510
 4462TIP3    H134877   4.548   0.528  15.563  1.0759  1.4776  2.4833
 4462TIP3    H234878   4.680   0.478  15.510 -0.9629 -0.5671 -0.8812
 4463TIP3   OH234879   4.393   5.347   3.060 -0.1724  0.1408 -0.5765
 4463TIP3    H134880   4.365   5.399   2.984  0.4647  1.7228  0.2483
 4463TIP3    H234881   4.448   5.278   3.022  1.8683  2.1223 -1.4261
 4464TIP3   OH234882   5.596   6.755   3.453  0.5088 -0.2473 -0.6562
 4464TIP3    H134883   5.551   6.770   3.370 -1.5882 -1.2025  0.2616
 4464TIP3    H234884   5.563   6.824   3.511  1.0499 -0.3026 -0.2764
 4465TIP3   OH234885   6.670   0.586  16.647  0.3310 -0.1410 -0.6965
 4465TIP3    H134886   6.719   0.529  16.588 -0.5361  0.8124 -2.3683
 4465TIP3    H234887   6.670   0.671  16.604 -0.1857  0.6140  0.7535
 4466TIP3   OH234888   4.993   5.965  17.097 -0.4461  0.1737 -0.2431
 4466TIP3    H134889   5.024   5.935  17.012 -1.1666 -1.5643  0.0866
 4466TIP3    H234890   4.898   5.954  17.094 -0.4759  0.0655  0.7811
 4467TIP3   OH234891   1.448   1.661   4.252  0.0569 -0.4749 -1.0382
 4467TIP3    H134892   1.544   1.662   4.257 -0.0008  0.4533  0.0202
 4467TIP3    H234893   1.428   1.585   4.198  1.3615 -1.2566 -0.4502
 4468TIP3   OH234894   5.662   0.004  15.961 -0.7708 -0.4047  0.1594
 4468TIP3    H134895   5.685   0.097  15.969  0.3998 -0.7098  0.4153
 4468TIP3    H234896   5.737  -0.042  15.996 -1.0126 -1.4837 -0.7195
 4469TIP3   OH234897   0.602   1.597   4.294  0.0357 -0.4009 -0.1455
 4469TIP3    H134898   0.628   1.604   4.203  1.3375  2.1718  0.3953
 4469TIP3    H234899   0.567   1.683   4.317 -0.5105 -1.0748  1.7197
 4470TIP3   OH234900   2.732   3.358  10.502  0.0641  0.0544 -0.3313
 4470TIP3    H134901   2.661   3.380  10.562  0.3061  1.1771 -0.4398
 4470TIP3    H234902   2.713   3.268  10.474 -0.5308 -0.1630  0.7349
 4471TIP3   OH234903   4.983   4.619  13.817 -0.4267  0.2459 -0.3743
 4471TIP3    H134904   4.999   4.535  13.775  1.8209  0.5986 -0.3071
 4471TIP3    H234905   5.014   4.684  13.753  0.8550  0.8751  0.8438
 4472TIP3   OH234906   6.499   1.170   0.740 -0.5849  0.3193  0.1674
 4472TIP3    H134907   6.582   1.212   0.762 -1.3876  0.7384  2.5110
 4472TIP3    H234908   6.432   1.230   0.773 -1.8229 -0.3570 -1.0482
 4473TIP3   OH234909   1.628   5.468  15.341  0.2214 -0.0028 -0.3117
 4473TIP3    H134910   1.540   5.480  15.306 -0.8697 -1.2783  1.8199
 4473TIP3    H234911   1.657   5.384  15.305 -0.9385 -1.3613  1.7933
 4474TIP3   OH234912   2.473   5.130   0.056 -0.0795  0.4808 -0.3518
 4474TIP3    H134913   2.390   5.126   0.009 -1.1255 -0.4072  1.5178
 4474TIP3    H234914   2.474   5.217   0.097  0.0067  0.5683 -0.5400
 4475TIP3   OH234915   3.813   0.227  11.886  0.3283  0.1899  0.1796
 4475TIP3    H134916   3.785   0.139  11.859  2.3109  0.1393 -1.8385
 4475TIP3    H234917   3.799   0.228  11.981 -0.2111 -2.1092  0.1635
 4476TIP3   OH234918   2.568   3.074   0.699 -0.0300  0.0557 -0.2111
 4476TIP3    H134919   2.551   3.134   0.772 -1.2918  1.4790 -1.6119
 4476TIP3    H234920   2.663   3.076   0.688 -0.0493  1.9509 -0.3058
 4477TIP3   OH234921   5.418   1.596  14.036 -0.6724  0.2930 -0.0986
 4477TIP3    H134922   5.441   1.652  13.962 -1.8999  0.6098 -0.2502
 4477TIP3    H234923   5.358   1.531  14.000 -1.4464  0.5753  0.6615
 4478TIP3   OH234924   6.817   0.134  11.515 -0.3946 -0.5381 -0.3436
 4478TIP3    H134925   6.884   0.068  11.534 -2.3920 -2.5198 -0.0214
 4478TIP3    H234926   6.773   0.149  11.598 -0.3378  0.8095 -0.5421
 4479TIP3   OH234927   3.052   2.060   1.522 -0.6751  0.4267 -0.9256
 4479TIP3    H134928   3.077   2.077   1.431  0.4280  1.7439 -0.3853
 4479TIP3    H234929   2.995   1.983   1.517  0.4236 -0.2992 -2.5874
 4480TIP3   OH234930   1.444   3.975  14.076  0.7328 -0.1454  0.1721
 4480TIP3    H134931   1.423   4.066  14.096  1.1257  0.7451 -3.1207
 4480TIP3    H234932   1.540   3.973  14.072  0.7451 -0.8143  0.6337
 4481TIP3   OH234933   1.406   1.535   1.348 -0.1878 -0.6348 -0.8246
 4481TIP3    H134934   1.461   1.589   1.405 -0.5972 -0.9079 -0.1555
 4481TIP3    H234935   1.446   1.448   1.351 -0.6213 -0.8219 -0.3766
 4482TIP3   OH234936   6.791   3.442  13.044 -0.4267 -0.1048 -0.5225
 4482TIP3    H134937   6.844   3.376  13.088 -0.3711  2.0640  2.9284
 4482TIP3    H234938   6.848   3.477  12.975  1.5738  0.1113  1.1801
 4483TIP3   OH234939   3.142   0.636  15.066  0.0812  0.0994 -0.6087
 4483TIP3    H134940   3.234   0.620  15.087 -0.5970 -0.8697  1.8688
 4483TIP3    H234941   3.125   0.725  15.096 -0.5121 -0.7723  1.7643
 4484TIP3   OH234942   5.031   1.893   3.518  0.4376  0.3222  0.1422
 4484TIP3    H134943   4.954   1.910   3.573  0.9273 -0.0271  0.9426
 4484TIP3    H234944   5.084   1.972   3.527  0.4905  0.2897  0.1149
 4485TIP3   OH234945   5.923   6.526  16.353 -0.4206 -0.9689  0.0184
 4485TIP3    H134946   5.863   6.578  16.406 -0.4536 -1.5621  0.5657
 4485TIP3    H234947   6.008   6.569  16.364 -1.1900  1.5079 -2.9067
 4486TIP3   OH234948   4.263   0.369   0.067 -0.3883 -0.2953 -0.1402
 4486TIP3    H134949   4.321   0.299   0.035 -1.2919 -0.0450 -2.3493
 4486TIP3    H234950   4.212   0.327   0.136 -0.7608 -1.7714 -1.2845
 4487TIP3   OH234951   6.214   0.383  16.943 -0.0844 -0.0507  0.1170
 4487TIP3    H134952   6.265   0.463  16.927  0.4117 -0.3303  0.3178
 4487TIP3    H234953   6.173   0.364  16.858 -1.0424  1.0035  0.3288
 4488TIP3   OH234954   6.773   5.615  11.861 -0.7863 -0.0183 -0.2131
 4488TIP3    H134955   6.772   5.680  11.790 -1.7600  0.4016  0.1702
 4488TIP3    H234956   6.809   5.536  11.821  0.2989  0.7145 -0.7237
 4489TIP3   OH234957   5.336   1.047  12.756  0.0108 -0.5688 -0.9664
 4489TIP3    H134958   5.425   1.019  12.735  0.4908  0.3630 -0.2398
 4489TIP3    H234959   5.327   1.132  12.713 -0.5294 -0.6646 -1.0431
 4490TIP3   OH234960   1.693   0.833  15.759  0.4794  0.3802  0.2022
 4490TIP3    H134961   1.715   0.762  15.698  0.5764 -0.2586  0.9678
 4490TIP3    H234962   1.665   0.905  15.702 -0.9883 -0.7357 -0.5579
 4491TIP3   OH234963   5.475   0.254  15.377  0.2619 -0.2787 -0.1189
 4491TIP3    H134964   5.428   0.230  15.297  0.0469  1.6016 -0.5831
 4491TIP3    H234965   5.552   0.301  15.346 -0.9544  2.4539  0.7755
 4492TIP3   OH234966   5.383   5.016  14.428 -0.2653  0.2109  0.3776
 4492TIP3    H134967   5.358   4.950  14.493 -0.0954  1.0928  1.3452
 4492TIP3    H234968   5.478   5.006  14.420 -0.5177 -1.1949 -1.1758
 4493TIP3   OH234969   6.409   2.431   3.720  0.1463 -0.3595  0.1250
 4493TIP3    H134970   6.388   2.424   3.627  0.2408  0.5406  0.0330
 4493TIP3    H234971   6.389   2.345   3.756 -0.4204 -0.5429 -0.6225
 4494TIP3   OH234972   1.124   5.414   6.672  0.0977  0.1038 -0.5799
 4494TIP3    H134973   1.137   5.338   6.616 -0.1554 -1.6843  1.7186
 4494TIP3    H234974   1.029   5.420   6.683  0.0830  1.0963 -1.1963
 4495TIP3   OH234975   0.734   0.358   3.917 -0.4347 -0.3623 -0.2085
 4495TIP3    H134976   0.752   0.294   3.848  1.1305 -0.9746  0.7385
 4495TIP3    H234977   0.805   0.422   3.909 -1.4288  0.7222 -0.5015
 4496TIP3   OH234978   2.538   3.201  11.621  0.0964 -0.4685  0.3745
 4496TIP3    H134979   2.541   3.288  11.581  0.2404  0.1624  1.7338
 4496TIP3    H234980   2.580   3.144  11.557  2.6643  0.9630  0.6909
 4497TIP3   OH234981   0.835   3.026  11.720 -0.1661 -0.3166  0.6732
 4497TIP3    H134982   0.776   3.100  11.707 -2.9053 -2.0549  2.5776
 4497TIP3    H234983   0.823   2.972  11.642 -0.6401 -0.3719  0.7839
 4498TIP3   OH234984   6.266   6.363  14.242  0.0500  0.0686 -0.4301
 4498TIP3    H134985   6.231   6.329  14.325  0.6523 -1.4268 -0.7644
 4498TIP3    H234986   6.227   6.450  14.233 -0.1815  0.1719  1.3282
 4499TIP3   OH234987   3.070   4.288   3.966  0.8160 -0.0935 -0.7904
 4499TIP3    H134988   2.990   4.332   3.938  0.0699 -0.9677 -0.0501
 4499TIP3    H234989   3.139   4.354   3.954 -0.1437  0.9622 -0.5624
 4500TIP3   OH234990   4.919   4.938   5.381 -0.2775  0.1481  0.1039
 4500TIP3    H134991   4.999   4.885   5.375 -0.4932 -0.1328 -0.3065
 4500TIP3    H234992   4.932   5.006   5.316 -0.0912  0.4847  0.4889
 4501TIP3   OH234993   6.713   4.697  11.557 -0.5784 -0.2107  0.5572
 4501TIP3    H134994   6.795   4.653  11.538  0.1246  0.8559  1.0544
 4501TIP3    H234995   6.696   4.750  11.478 -0.2034  0.4280  0.8997
 4502TIP3   OH234996   4.747   3.462  11.396  0.2592 -0.6768  0.0822
 4502TIP3    H134997   4.719   3.424  11.313 -1.9974  2.2187 -0.5623
 4502TIP3    H234998   4.777   3.550  11.373  2.3525 -0.8640  1.9550
 4503TIP3   OH234999   3.405   2.285   1.764 -0.5661  0.4075 -0.0133
 4503TIP3    H135000   3.345   2.211   1.770  0.8075 -0.9881 -2.3602
 4503TIP3    H235001   3.385   2.324   1.679  1.8248 -0.1222 -0.8610
 4504TIP3   OH235002   6.510   2.316   4.689  0.2106 -0.2487 -0.2752
 4504TIP3    H135003   6.599   2.288   4.668  0.5130  1.6929 -1.6251
 4504TIP3    H235004   6.515   2.411   4.697 -1.7449 -0.1123 -0.3913
 4505TIP3   OH235005   5.798   1.425  15.762  0.2127  0.1868 -0.7294
 4505TIP3    H135006   5.759   1.341  15.785 -2.1105  0.4005 -3.5493
 4505TIP3    H235007   5.777   1.482  15.836 -0.9493 -0.8736 -0.2205
 4506TIP3   OH235008   0.017   2.300  13.260  0.1979 -0.3044  0.5583
 4506TIP3    H135009   0.095   2.354  13.256  0.4849 -0.7567 -0.0576
 4506TIP3    H235010  -0.055   2.360  13.242  0.6338 -0.3834 -1.5855
 4507TIP3   OH235011   6.648   1.324  14.405 -0.1601  0.0518 -0.2450
 4507TIP3    H135012   6.738   1.355  14.404  0.8577 -2.8235  0.5180
 4507TIP3    H235013   6.598   1.398  14.442  2.5155  0.0125  3.7312
 4508TIP3   OH235014   4.753   6.026   2.258 -0.3488  0.1380 -0.3780
 4508TIP3    H135015   4.725   6.112   2.289 -0.3636 -0.0439  0.1112
 4508TIP3    H235016   4.787   6.043   2.170  1.7101  1.0326  0.5379
 4509TIP3   OH235017   6.221   1.785  15.862  0.4488  0.0435  0.3131
 4509TIP3    H135018   6.165   1.735  15.804  0.1186  0.7655  0.0026
 4509TIP3    H235019   6.168   1.801  15.940 -0.6909  2.8076 -0.9426
 4510TIP3   OH235020   3.740   1.177  13.056 -0.4883 -0.0436  0.0133
 4510TIP3    H135021   3.755   1.127  13.136 -1.2272  1.0756  0.8688
 4510TIP3    H235022   3.650   1.208  13.063  0.1013  1.7879 -0.2848
 4511TIP3   OH235023   5.308   6.792  12.630 -0.5457  0.0271 -0.0660
 4511TIP3    H135024   5.244   6.729  12.598 -0.6675  0.6827 -1.1350
 4511TIP3    H235025   5.345   6.751  12.708 -1.1537 -1.0396 -0.3275
 4512TIP3   OH235026   6.079   4.396  13.077 -0.5987 -0.3261 -0.5160
 4512TIP3    H135027   6.094   4.490  13.071  0.3280 -0.4309  0.0412
 4512TIP3    H235028   6.007   4.379  13.016 -2.5521  1.1279  1.2815
 4513TIP3   OH235029   3.667   3.344   1.247 -0.4948  0.5582 -0.2393
 4513TIP3    H135030   3.720   3.417   1.279 -1.4108  0.6044  1.2525
 4513TIP3    H235031   3.577   3.372   1.263 -0.8738 -0.5709 -0.3956
 4514TIP3   OH235032   6.162   2.031   4.236 -0.5319  0.4475 -0.2182
 4514TIP3    H135033   6.252   2.000   4.225  0.0481  1.3862  1.5588
 4514TIP3    H235034   6.130   1.986   4.315 -1.7063 -0.0626 -0.9782
 4515TIP3   OH235035   1.164   1.012  15.051 -0.1704 -0.1761  0.1329
 4515TIP3    H135036   1.228   0.950  15.016  1.1218  1.3150 -0.2318
 4515TIP3    H235037   1.093   1.012  14.987  0.1485 -0.7358 -0.2306
 4516TIP3   OH235038   2.000   4.403  11.570  0.5482  0.3898 -0.3211
 4516TIP3    H135039   1.904   4.403  11.562  0.3296  1.4016  2.0004
 4516TIP3    H235040   2.028   4.327  11.518 -1.5954 -0.4854 -0.2510
 4517TIP3   OH235041   1.228   2.288  17.259 -0.1470  0.3332 -0.1697
 4517TIP3    H135042   1.319   2.286  17.229 -0.1408 -0.5828 -0.1093
 4517TIP3    H235043   1.222   2.367  17.312  0.6859  0.2513  0.0595
 4518TIP3   OH235044   2.985   0.131   5.092 -0.3895  0.3901 -0.6615
 4518TIP3    H135045   2.903   0.140   5.141 -1.0086 -0.2796 -1.5700
 4518TIP3    H235046   2.972   0.184   5.013 -0.4077 -0.6697 -1.3807
 4519TIP3   OH235047   4.611   6.147   1.533  0.1548 -0.2845 -0.3760
 4519TIP3    H135048   4.530   6.098   1.522 -0.4293  0.2855  1.3356
 4519TIP3    H235049   4.586   6.239   1.522  0.3181 -0.0097  1.4461
 4520TIP3   OH235050   5.579   5.736  13.830 -0.0326  0.4099 -0.4313
 4520TIP3    H135051   5.511   5.773  13.774 -1.1419 -0.3564  0.3794
 4520TIP3    H235052   5.552   5.760  13.919  0.3316 -0.5795 -0.0485
 4521TIP3   OH235053   5.732   5.469  16.150  0.1795 -0.1221  0.5077
 4521TIP3    H135054   5.667   5.523  16.194  0.1477 -0.6718  1.1310
 4521TIP3    H235055   5.756   5.520  16.072 -0.7727  0.2174  0.4298
 4522TIP3   OH235056   3.174   3.002  12.205 -0.2656 -0.5484 -0.1562
 4522TIP3    H135057   3.140   2.983  12.118  3.6775 -2.3939 -1.4301
 4522TIP3    H235058   3.142   2.931  12.260 -0.6294 -0.8043 -0.6960
 4523TIP3   OH235059   5.232   4.498  16.544  0.3839 -0.1226  0.1853
 4523TIP3    H135060   5.217   4.446  16.465  1.1523 -0.5895  0.3393
 4523TIP3    H235061   5.180   4.577  16.531 -1.3686 -1.2165  0.2457
 4524TIP3   OH235062   2.033   3.794  14.131  0.0143 -0.2978 -0.1256
 4524TIP3    H135063   2.088   3.772  14.206  0.2360  0.2358 -0.1312
 4524TIP3    H235064   1.993   3.878  14.154 -0.8075 -0.6941 -0.1200
 4525TIP3   OH235065   1.666   4.522  12.017  0.2283  0.1062 -0.1212
 4525TIP3    H135066   1.658   4.427  12.008  1.7801  0.0172 -0.8021
 4525TIP3    H235067   1.648   4.556  11.930 -0.0053  0.4143  0.0463
 4526TIP3   OH235068   1.176   3.809   5.453 -0.1254 -0.2343  0.0882
 4526TIP3    H135069   1.133   3.892   5.431  0.5232 -0.0488 -0.5006
 4526TIP3    H235070   1.130   3.779   5.532 -1.4583 -0.1364 -0.6338
 4527TIP3   OH235071   3.204   4.538  11.812 -0.2090  0.2760  0.1954
 4527TIP3    H135072   3.123   4.543  11.863 -0.2538  4.0570 -0.0555
 4527TIP3    H235073   3.179   4.493  11.731 -1.7340  0.1898  0.7052
 4528TIP3   OH235074   4.580   2.379  11.968  0.2163 -0.4641 -0.0641
 4528TIP3    H135075   4.606   2.364  11.877  0.6226  0.6101 -0.1376
 4528TIP3    H235076   4.497   2.333  11.977  1.5869 -3.0438 -0.1364
 4529TIP3   OH235077   0.892   0.367   1.442  0.0689  0.5122 -0.5610
 4529TIP3    H135078   0.965   0.395   1.497 -0.6221 -1.5034  1.4353
 4529TIP3    H235079   0.831   0.440   1.442 -0.1019  0.3776  1.6780
 4530TIP3   OH235080   4.826   5.562   5.737  0.2989  0.3882 -0.2009
 4530TIP3    H135081   4.833   5.608   5.652  1.0418  0.3156 -0.1849
 4530TIP3    H235082   4.760   5.495   5.722  1.1500 -0.2909 -1.0410
 4531TIP3   OH235083   3.157   6.510   1.762 -0.7453 -0.1496 -0.1852
 4531TIP3    H135084   3.133   6.442   1.824 -1.3880  0.2087 -0.0290
 4531TIP3    H235085   3.120   6.480   1.679 -2.2971  0.6906  0.1771
 4532TIP3   OH235086   4.829   3.011   5.079  0.2304  0.0136  0.3309
 4532TIP3    H135087   4.783   2.988   4.998  1.2830  0.5012 -0.4132
 4532TIP3    H235088   4.913   3.048   5.050  0.1753  1.1884  1.6150
 4533TIP3   OH235089   4.991   1.388   1.830 -0.0865  0.1119 -0.5158
 4533TIP3    H135090   5.077   1.406   1.792 -0.4639  1.7450 -0.6135
 4533TIP3    H235091   4.971   1.465   1.883 -1.0470 -0.6994  0.3350
 4534TIP3   OH235092   3.427   3.116  12.247 -0.1761 -0.6693 -0.1175
 4534TIP3    H135093   3.335   3.105  12.270 -0.5931  0.2324 -1.2589
 4534TIP3    H235094   3.434   3.080  12.158 -0.0794  1.8214 -1.1618
 4535TIP3   OH235095   5.749   5.686  10.107 -0.3149  0.4400  0.0415
 4535TIP3    H135096   5.806   5.753  10.070  0.8706 -0.4991  0.1212
 4535TIP3    H235097   5.722   5.721  10.192  0.1990  0.8688  0.0275
 4536TIP3   OH235098   0.113   0.555  16.884 -0.2670  0.2499 -0.0151
 4536TIP3    H135099   0.026   0.592  16.900  0.1915  0.2617  2.6625
 4536TIP3    H235100   0.173   0.623  16.914  0.6167 -1.3436  1.9187
 4537TIP3   OH235101   5.462   3.637  14.669 -0.2767  0.4851 -0.3142
 4537TIP3    H135102   5.377   3.675  14.688 -0.1171  0.7688 -0.1562
 4537TIP3    H235103   5.525   3.706  14.692 -0.0252  0.4134 -0.7767
 4538TIP3   OH235104   0.414   4.311  12.263  0.7098 -0.1682 -0.0135
 4538TIP3    H135105   0.378   4.232  12.303  0.9187 -0.2200  0.0765
 4538TIP3    H235106   0.447   4.362  12.337 -0.1858  0.3925 -0.0036
 4539TIP3   OH235107   1.539   2.089  12.501 -0.1748 -0.2795 -0.1857
 4539TIP3    H135108   1.610   2.025  12.505 -0.6511 -0.8858 -0.9899
 4539TIP3    H235109   1.574   2.161  12.450  0.3142  0.0316  0.5869
 4540TIP3   OH235110   6.140   4.552  11.108  0.2200  0.4881 -0.3344
 4540TIP3    H135111   6.140   4.613  11.182  1.2385  1.0270 -0.7692
 4540TIP3    H235112   6.056   4.568  11.064  0.2167  1.1515 -0.0942
 4541TIP3   OH235113   4.602   4.832  15.956 -0.3613 -0.1637  0.3804
 4541TIP3    H135114   4.691   4.798  15.941 -1.1613 -1.0710 -2.5566
 4541TIP3    H235115   4.548   4.753  15.961 -1.0624  0.4031  1.8738
 4542TIP3   OH235116   2.131   0.917   1.681 -0.4737 -0.6533  1.0813
 4542TIP3    H135117   2.126   1.012   1.680  0.5808 -0.5988  0.2459
 4542TIP3    H235118   2.090   0.890   1.599  0.5422 -0.8416  0.6270
 4543TIP3   OH235119   5.814   0.881  11.433 -1.1332  0.7941 -0.1619
 4543TIP3    H135120   5.859   0.913  11.355  0.2476 -2.6890 -0.9091
 4543TIP3    H235121   5.880   0.887  11.503 -0.7803 -0.5706 -0.3640
 4544TIP3   OH235122   4.444   6.445   6.319  0.5456  0.8146 -0.6780
 4544TIP3    H135123   4.482   6.529   6.345  0.5835  0.8069 -0.7094
 4544TIP3    H235124   4.514   6.382   6.331 -0.1386  0.4278  1.5098
 4545TIP3   OH235125   3.755   1.024  15.507 -0.0371  0.4056 -0.8136
 4545TIP3    H135126   3.785   0.958  15.444 -1.4144  0.7058 -1.8166
 4545TIP3    H235127   3.758   0.979  15.591 -0.0423 -0.6383 -1.3551
 4546TIP3   OH235128   4.088   2.034   5.856  0.3658  0.7642 -0.2297
 4546TIP3    H135129   4.119   1.945   5.842 -1.2325  0.2372 -0.4955
 4546TIP3    H235130   4.124   2.084   5.783 -0.1776 -0.0256 -1.0456
 4547TIP3   OH235131   6.807   3.169  16.569  0.5368 -0.0215 -0.0204
 4547TIP3    H135132   6.790   3.081  16.533  0.7064 -0.5357  1.1476
 4547TIP3    H235133   6.725   3.217  16.554  0.4202 -0.3967 -0.6118
 4548TIP3   OH235134   6.576   6.637  13.898 -0.3966  0.3239  0.3509
 4548TIP3    H135135   6.670   6.646  13.889 -0.1264 -1.5862  0.9781
 4548TIP3    H235136   6.553   6.567  13.837 -1.5640  1.4645 -0.5462
 4549TIP3   OH235137   6.066   4.971  14.901  0.0465 -0.2355 -0.3069
 4549TIP3    H135138   6.129   4.984  14.972 -1.0442 -1.8569  0.9884
 4549TIP3    H235139   6.097   4.893  14.855 -0.4022 -0.4032 -0.3289
 4550TIP3   OH235140   5.769   3.134  11.843  0.4386 -0.5811 -0.0556
 4550TIP3    H135141   5.742   3.182  11.765 -0.1205  0.1878  0.5987
 4550TIP3    H235142   5.843   3.185  11.878  1.9598 -1.9914 -1.1494
 4551TIP3   OH235143   0.182   3.548   2.002 -0.0279  0.0392  0.2947
 4551TIP3    H135144   0.102   3.514   1.961 -0.1495 -0.9938  1.3339
 4551TIP3    H235145   0.244   3.475   1.996 -0.3045 -0.4391  2.6114
 4552TIP3   OH235146   6.063   2.360   1.432 -0.0430 -0.3418  0.0080
 4552TIP3    H135147   6.152   2.330   1.453  0.0683  0.6261  0.9606
 4552TIP3    H235148   6.056   2.351   1.337  1.5967  0.9808 -0.2583
 4553TIP3   OH235149   1.379   4.452  12.440 -0.2356  0.0247 -0.7446
 4553TIP3    H135150   1.414   4.419  12.357  2.4639 -1.8528  1.0482
 4553TIP3    H235151   1.403   4.545  12.440  1.9035 -0.4857 -1.0722
 4554TIP3   OH235152   6.411   5.057   6.400  0.2353  0.9433 -0.2275
 4554TIP3    H135153   6.454   5.108   6.332 -1.7369  0.8948 -1.5643
 4554TIP3    H235154   6.341   5.114   6.433  0.9303  0.8200  1.5003
 4555TIP3   OH235155   4.422   4.418  16.703 -0.1222  0.1165  0.6204
 4555TIP3    H135156   4.436   4.410  16.608 -0.1771 -0.2490  0.6435
 4555TIP3    H235157   4.390   4.332  16.730  0.4570  0.0386  1.0690
 4556TIP3   OH235158   4.372   2.133   4.188 -0.2827 -0.1080 -0.4334
 4556TIP3    H135159   4.372   2.063   4.123 -1.3628  0.0415 -0.5981
 4556TIP3    H235160   4.333   2.208   4.143 -1.3060 -0.0863  0.4700
 4557TIP3   OH235161   6.077   6.257   3.224  0.4560  0.1102  0.6332
 4557TIP3    H135162   6.012   6.210   3.275  0.6379 -2.4167 -1.3358
 4557TIP3    H235163   6.029   6.328   3.182 -1.1580 -1.9288 -1.0710
 4558TIP3   OH235164   1.794   6.364  15.445  0.2357 -0.2750  0.6848
 4558TIP3    H135165   1.700   6.349  15.440  0.2988 -0.5754  0.4073
 4558TIP3    H235166   1.802   6.459  15.456 -0.1431 -0.3838  2.0853
 4559TIP3   OH235167   3.737   5.808   3.492 -0.0360 -0.2516 -0.0260
 4559TIP3    H135168   3.680   5.746   3.447  1.1393 -1.1477 -0.3118
 4559TIP3    H235169   3.793   5.754   3.548  0.0604  0.6641  0.7840
 4560TIP3   OH235170   3.590   6.196   0.810 -0.7954  0.2257  0.2918
 4560TIP3    H135171   3.545   6.266   0.762 -1.0464  0.9190  1.5191
 4560TIP3    H235172   3.537   6.118   0.793 -1.6307  0.7332  0.5222
 4561TIP3   OH235173   5.461   2.332  15.642 -0.5005  0.7115 -0.1796
 4561TIP3    H135174   5.385   2.357  15.589 -1.3089 -1.4424 -0.0752
 4561TIP3    H235175   5.528   2.309  15.579  0.1916  2.8279 -0.2752
 4562TIP3   OH235176   5.485   4.959  13.841  0.3271 -0.2412 -0.3630
 4562TIP3    H135177   5.428   5.029  13.873 -0.6720 -2.0675  2.0312
 4562TIP3    H235178   5.573   4.991  13.858 -0.0027  1.5314 -1.7537
 4563TIP3   OH235179   2.727   4.759  12.960  0.5170  0.6618  0.0778
 4563TIP3    H135180   2.684   4.674  12.956  0.8890  0.4273  0.9686
 4563TIP3    H235181   2.689   4.808  12.887 -2.0261  0.8331  1.4513
 4564TIP3   OH235182   5.738   6.005  13.826 -0.2506 -0.6607  0.2432
 4564TIP3    H135183   5.825   5.981  13.860  1.3688  0.7262 -2.7881
 4564TIP3    H235184   5.724   5.946  13.753 -0.8771  0.6387 -0.6957
 4565TIP3   OH235185   6.223   5.874   3.338  0.2058 -0.0897  0.1152
 4565TIP3    H135186   6.269   5.958   3.344  0.0034  0.0245  0.0657
 4565TIP3    H235187   6.204   5.863   3.245 -1.0199  0.4854  0.2901
 4566TIP3   OH235188   1.201   2.758  14.682 -0.4740  0.2505 -0.1989
 4566TIP3    H135189   1.145   2.753  14.759  2.5754 -1.3975  1.9737
 4566TIP3    H235190   1.204   2.851  14.661 -2.0683  0.6158  1.0859
 4567TIP3   OH235191   1.148   6.206  17.189 -0.0469  0.0881  0.0545
 4567TIP3    H135192   1.072   6.177  17.240  0.3056  0.4874  0.8260
 4567TIP3    H235193   1.202   6.128  17.179  1.0435  0.4935  2.3882
 4568TIP3   OH235194   0.051   2.130  16.774  0.4918 -0.7089  0.1591
 4568TIP3    H135195   0.111   2.189  16.821 -0.7337 -1.0633  2.2072
 4568TIP3    H235196   0.087   2.042  16.789  0.5965 -0.7566 -0.3398
 4569TIP3   OH235197   2.980   1.456   1.035  0.0423  1.0734 -0.2430
 4569TIP3    H135198   2.978   1.490   0.946  0.4163  4.4008  0.9324
 4569TIP3    H235199   2.906   1.395   1.039  0.1443  0.7091 -2.8516
 4570TIP3   OH235200   0.181   3.455   1.005  0.3787 -0.5365  0.1164
 4570TIP3    H135201   0.174   3.537   0.955 -1.5275 -0.4317  0.4996
 4570TIP3    H235202   0.177   3.386   0.940  0.1226 -0.3472 -0.0721
 4571TIP3   OH235203   0.130   5.241  16.818  0.7037 -0.1979 -0.6832
 4571TIP3    H135204   0.091   5.296  16.750  0.4445  0.5964  0.1147
 4571TIP3    H235205   0.057   5.212  16.872  1.0317  0.0086 -0.1259
 4572TIP3   OH235206   3.736   2.457  16.198  0.1445 -0.3629  0.0980
 4572TIP3    H135207   3.776   2.389  16.252  1.2922  0.5134  0.3860
 4572TIP3    H235208   3.785   2.537  16.220 -1.3148  0.5930 -0.0823
 4573TIP3   OH235209   6.298   2.100  15.456  0.2496 -0.5776 -0.6727
 4573TIP3    H135210   6.390   2.087  15.479  0.2093  0.1535 -0.0613
 4573TIP3    H235211   6.297   2.106  15.361  0.7879 -0.9490 -0.7042
 4574TIP3   OH235212   3.464   6.410   1.551 -0.2143 -0.3372 -0.3802
 4574TIP3    H135213   3.552   6.374   1.560 -0.6483 -1.8701 -2.0877
 4574TIP3    H235214   3.444   6.445   1.638  2.2104  0.3875 -0.0583
 4575TIP3   OH235215   1.605   6.107   2.202 -0.2704 -0.1385  0.1814
 4575TIP3    H135216   1.686   6.129   2.248  0.1632 -0.5709 -0.3745
 4575TIP3    H235217   1.537   6.151   2.253  0.4297  1.2487 -0.0496
 4576TIP3   OH235218   6.041   0.416   5.241  0.5373  0.0372  0.4194
 4576TIP3    H135219   6.024   0.392   5.150  2.1753  0.8790 -0.1132
 4576TIP3    H235220   5.995   0.349   5.291 -0.0562 -0.6646 -1.0207
 4577TIP3   OH235221   0.630   1.541   4.767  0.6539 -0.2916  0.6620
 4577TIP3    H135222   0.674   1.468   4.811 -1.5569 -1.5350  0.9119
 4577TIP3    H235223   0.640   1.615   4.827  2.5570 -0.4847  0.6049
 4578TIP3   OH235224   2.202   4.221  12.938 -0.1945  0.0526 -0.4516
 4578TIP3    H135225   2.287   4.204  12.898  0.1865  1.4665 -0.2459
 4578TIP3    H235226   2.180   4.310  12.913 -0.4167  0.6237  1.6606
 4579TIP3   OH235227   3.137   2.450  16.931 -0.3030  0.1858 -0.0112
 4579TIP3    H135228   3.166   2.482  16.846 -0.0212 -0.2683 -0.0874
 4579TIP3    H235229   3.072   2.514  16.960 -0.9892 -0.0823 -0.9279
 4580TIP3   OH235230   1.494   5.892   1.636 -0.6309  0.2047 -0.6564
 4580TIP3    H135231   1.545   5.967   1.664 -0.7387 -0.4001  1.2077
 4580TIP3    H235232   1.550   5.847   1.573  1.0420 -0.3059  1.1596
 4581TIP3   OH235233   4.081   1.958  12.902 -0.9807  0.2574 -0.0540
 4581TIP3    H135234   4.162   1.918  12.872 -1.2437  0.4675 -1.0711
 4581TIP3    H235235   4.106   2.011  12.977 -0.4107 -0.7712  0.4809
 4582TIP3   OH235236   4.317   0.555   6.329  0.5431 -0.6615 -0.3133
 4582TIP3    H135237   4.405   0.545   6.293 -0.3977  0.4704 -3.1615
 4582TIP3    H235238   4.303   0.650   6.331 -0.4673 -0.8224  0.5035
 4583TIP3   OH235239   0.381   5.226  15.999  0.0834 -0.0055  0.0642
 4583TIP3    H135240   0.423   5.247  16.082 -0.4917 -0.2011  0.4070
 4583TIP3    H235241   0.453   5.219  15.936  0.6367 -1.1690  0.8243
 4584TIP3   OH235242   5.280   0.727   4.366 -0.0375 -0.2870  0.1099
 4584TIP3    H135243   5.356   0.720   4.309 -0.5871  1.3303 -0.8271
 4584TIP3    H235244   5.306   0.789   4.434 -1.3441  2.2160 -1.6068
 4585TIP3   OH235245   5.587   1.588  16.020 -0.3701  0.0747 -0.5859
 4585TIP3    H135246   5.543   1.503  16.015 -0.9239  0.2759  0.5589
 4585TIP3    H235247   5.560   1.634  15.940 -0.8831 -0.4435 -0.7149
 4586TIP3   OH235248   5.710   6.372  15.619  0.3307 -0.4815 -0.1467
 4586TIP3    H135249   5.659   6.415  15.687 -0.5521  0.4437 -1.3637
 4586TIP3    H235250   5.724   6.283  15.652  0.6528  0.1979  1.6053
 4587TIP3   OH235251   1.366   1.289   2.632 -0.5395  0.0926 -0.0095
 4587TIP3    H135252   1.385   1.196   2.620 -0.8826 -0.0252  0.3259
 4587TIP3    H235253   1.279   1.301   2.595  0.0215  0.5495 -1.1938
 4588TIP3   OH235254   3.401   0.257  13.046 -0.0244 -0.2108  0.1671
 4588TIP3    H135255   3.496   0.248  13.047  0.0823  0.6119 -1.0895
 4588TIP3    H235256   3.369   0.177  13.088  1.2497  0.1132  1.7861
 4589TIP3   OH235257   1.323   2.854  11.709  0.4304 -0.1486 -0.3086
 4589TIP3    H135258   1.324   2.922  11.776  0.4580 -0.7716  0.3293
 4589TIP3    H235259   1.268   2.890  11.639  0.8047  0.7017 -0.1681
 4590TIP3   OH235260   1.367   1.079  11.308 -0.1826  0.2895 -0.0679
 4590TIP3    H135261   1.279   1.041  11.310 -0.1391  0.2530  1.5449
 4590TIP3    H235262   1.414   1.028  11.242 -1.6659  0.9957 -1.7106
 4591TIP3   OH235263   3.278   2.521   3.519  0.3422  0.0020  0.3574
 4591TIP3    H135264   3.353   2.489   3.469 -1.8516 -0.3064 -2.8847
 4591TIP3    H235265   3.245   2.443   3.564  1.6023  0.0291  1.3654
 4592TIP3   OH235266   5.673   3.315   3.872 -0.2756  0.2104 -0.4076
 4592TIP3    H135267   5.586   3.352   3.855 -0.0939  1.3058  0.9239
 4592TIP3    H235268   5.676   3.234   3.821 -1.3105  1.2047 -2.0928
 4593TIP3   OH235269   6.100   2.234   1.867 -0.6162  0.1524  0.0026
 4593TIP3    H135270   6.094   2.258   1.960 -1.0987 -1.3476  0.3741
 4593TIP3    H235271   6.164   2.295   1.831 -2.1513  2.2865  0.8054
 4594TIP3   OH235272   4.059   2.951  14.703  0.3124 -0.4710  0.5854
 4594TIP3    H135273   4.013   3.023  14.746  0.0956  0.7266 -1.5669
 4594TIP3    H235274   4.033   2.873  14.752  1.9294  1.0667  4.0743
 4595TIP3   OH235275   0.730   1.317  12.858 -0.1288  0.2584 -0.4795
 4595TIP3    H135276   0.710   1.229  12.888  0.3675  0.2071 -0.2910
 4595TIP3    H235277   0.715   1.372  12.935  0.4425  0.2207 -0.3406
 4596TIP3   OH235278   0.582   6.629  15.261 -0.6830 -0.0639 -0.4054
 4596TIP3    H135279   0.590   6.720  15.234 -1.2865  0.2323  0.3931
 4596TIP3    H235280   0.490   6.607  15.243 -0.8924 -0.0912  0.7041
 4597TIP3   OH235281   4.211   4.100  10.515  0.4472 -0.1721 -0.1340
 4597TIP3    H135282   4.145   4.031  10.520 -0.5510  0.8039  0.4130
 4597TIP3    H235283   4.162   4.179  10.490  1.4445  0.5114  0.0235
 4598TIP3   OH235284   6.621   5.942   0.923  0.3576 -0.4785 -0.1791
 4598TIP3    H135285   6.546   6.001   0.929 -0.5841 -1.5584 -1.1483
 4598TIP3    H235286   6.606   5.875   0.989 -0.0577 -1.2625 -1.0515
 4599TIP3   OH235287   4.157   4.442   5.122 -0.3850  0.2215  0.4817
 4599TIP3    H135288   4.159   4.537   5.133  1.1840 -0.0039  2.7390
 4599TIP3    H235289   4.249   4.415   5.133 -0.8430 -1.5545  0.0912
 4600TIP3   OH235290   3.360   5.559   4.444  0.3199 -0.5375  1.1300
 4600TIP3    H135291   3.324   5.627   4.500 -0.1478 -1.0256  1.4299
 4600TIP3    H235292   3.329   5.581   4.356  1.5654  0.5755  0.9540
 4601TIP3   OH235293   0.783   0.808   1.201  0.4702  0.5324  0.0361
 4601TIP3    H135294   0.773   0.902   1.211 -0.1024  0.3455  1.1755
 4601TIP3    H235295   0.694   0.775   1.189  0.7392  0.2274 -1.2991
 4602TIP3   OH235296   4.635   2.802  12.228  0.3998  0.3336 -0.5908
 4602TIP3    H135297   4.624   2.896  12.241 -0.2337  0.2702 -0.6231
 4602TIP3    H235298   4.569   2.779  12.162 -0.9861 -0.5182  1.0554
 4603TIP3   OH235299   0.868   0.935   2.924  0.0990  0.1245  0.4365
 4603TIP3    H135300   0.955   0.945   2.964 -0.2298 -2.2259  1.7840
 4603TIP3    H235301   0.831   0.857   2.965 -2.0166  0.1616 -1.3163
 4604TIP3   OH235302   1.683   5.105  11.164 -0.1530  0.2666 -0.5641
 4604TIP3    H135303   1.768   5.072  11.193  0.2286  1.6821 -0.0045
 4604TIP3    H235304   1.625   5.029  11.170  0.2195  0.1372  2.6910
 4605TIP3   OH235305   5.028   1.166   1.132 -0.2311 -0.4941  0.1645
 4605TIP3    H135306   4.963   1.151   1.063  0.9482  2.5018 -1.6972
 4605TIP3    H235307   4.983   1.220   1.196  0.6275  2.3867 -1.5894
 4606TIP3   OH235308   6.134   2.459   4.803 -0.0909 -0.0401 -0.2730
 4606TIP3    H135309   6.086   2.533   4.841  0.8358 -0.4906  1.8583
 4606TIP3    H235310   6.066   2.395   4.782 -0.7054  0.5550 -0.1295
 4607TIP3   OH235311   1.991   3.573  17.202 -0.0052 -0.4890  0.0030
 4607TIP3    H135312   1.938   3.509  17.250 -0.0146 -0.5745 -0.1227
 4607TIP3    H235313   1.948   3.657  17.218 -1.0422 -0.7497 -1.3034
 4608TIP3   OH235314   2.640   1.045  12.723  0.3386  0.4869 -0.0128
 4608TIP3    H135315   2.698   1.096  12.665  0.4488 -0.1574 -0.4705
 4608TIP3    H235316   2.696   1.019  12.795  1.4096 -2.6276 -1.8880
 4609TIP3   OH235317   2.058   3.037   2.368  0.1606 -0.7701  0.1134
 4609TIP3    H135318   1.989   3.091   2.328 -1.0411 -1.1726  1.5659
 4609TIP3    H235319   2.094   2.986   2.296 -0.2711  0.2945 -0.8742
 4610TIP3   OH235320   0.537   0.824  16.471 -0.4618 -0.1108 -0.1724
 4610TIP3    H135321   0.468   0.836  16.406 -0.0678 -1.9137 -0.9753
 4610TIP3    H235322   0.597   0.761  16.430  0.8212  0.2204  1.1532
 4611TIP3   OH235323   2.458   3.626   0.247 -0.0581 -0.1154 -0.1278
 4611TIP3    H135324   2.387   3.596   0.190  0.8886  1.0878 -1.9543
 4611TIP3    H235325   2.434   3.716   0.269  1.6030  0.7983 -1.9352
 4612TIP3   OH235326   1.106   3.822   5.731  0.7754  0.0081  0.3574
 4612TIP3    H135327   1.172   3.767   5.774 -0.1071 -0.6860  0.8476
 4612TIP3    H235328   1.061   3.866   5.803 -0.9009 -1.3663  0.2044
 4613TIP3   OH235329   4.191   1.692  12.329 -0.2989  0.0148  0.9969
 4613TIP3    H135330   4.176   1.617  12.270 -1.3170  0.7757  0.2644
 4613TIP3    H235331   4.270   1.669  12.377 -1.2537 -2.0703  1.6201
 4614TIP3   OH235332   1.063   0.151   1.843 -0.6861 -0.5665 -0.3138
 4614TIP3    H135333   1.032   0.077   1.894  0.1070 -0.1966  0.7250
 4614TIP3    H235334   0.986   0.180   1.794 -2.4127  1.1618  3.2172
 4615TIP3   OH235335   6.432   3.652  14.371 -0.0629  0.5493 -0.5787
 4615TIP3    H135336   6.443   3.735  14.325 -0.1896 -0.7399 -3.0105
 4615TIP3    H235337   6.507   3.599  14.343 -0.1238 -0.2746  0.7415
 4616TIP3   OH235338   4.404   6.577  12.296  0.1617  0.2359 -0.5072
 4616TIP3    H135339   4.375   6.586  12.387  0.9426  0.3067 -0.2639
 4616TIP3    H235340   4.408   6.482  12.282 -0.5389  0.2301 -0.6509
 4617TIP3   OH235341   6.469   0.671   4.642  0.1034 -0.0438  0.0706
 4617TIP3    H135342   6.430   0.726   4.709 -0.1701  0.9579 -0.8819
 4617TIP3    H235343   6.448   0.716   4.560 -0.3319 -1.7140 -0.7481
 4618TIP3   OH235344   1.801   2.471   6.006 -0.0162  0.1166  0.1554
 4618TIP3    H135345   1.790   2.377   6.013  3.8529 -0.3103  2.1694
 4618TIP3    H235346   1.832   2.485   5.917 -2.1202 -0.2722 -0.6710
 4619TIP3   OH235347   1.170   4.371   4.148 -0.2156  0.4978  0.3248
 4619TIP3    H135348   1.082   4.343   4.122 -0.8169  1.5758  1.1641
 4619TIP3    H235349   1.169   4.466   4.136  1.1811  0.3925 -0.6721
 4620TIP3   OH235350   6.231   5.067  10.701 -0.4399  0.0331  0.3595
 4620TIP3    H135351   6.284   4.989  10.683  0.7424  0.2205  2.8651
 4620TIP3    H235352   6.177   5.077  10.622  0.6263 -2.2876 -0.7370
 4621TIP3   OH235353   0.643   6.179   2.457  0.2396 -0.0374 -0.6874
 4621TIP3    H135354   0.686   6.103   2.497  1.1405  0.3090 -0.9819
 4621TIP3    H235355   0.639   6.157   2.364 -2.4456 -1.1277 -0.3532
 4622TIP3   OH235356   3.902   0.031  15.588  0.6821 -0.3252  0.2230
 4622TIP3    H135357   3.963  -0.009  15.651  0.6591 -1.5311 -0.4968
 4622TIP3    H235358   3.941   0.116  15.568  1.0231 -0.1960  1.3743
 4623TIP3   OH235359   1.085   5.655   1.885 -0.3354  0.1248  0.0863
 4623TIP3    H135360   1.102   5.658   1.979  0.6760 -0.5363 -0.0654
 4623TIP3    H235361   1.169   5.681   1.845  0.2991 -2.9924 -0.6828
 4624TIP3   OH235362   4.306   6.695  14.317 -0.1517  0.0630  0.3597
 4624TIP3    H135363   4.390   6.650  14.312 -0.8982 -1.1620 -2.2230
 4624TIP3    H235364   4.313   6.765  14.252 -0.2006  1.6259  2.0083
 4625TIP3   OH235365   3.673   6.426  14.657 -0.6060 -0.1689  0.0809
 4625TIP3    H135366   3.668   6.348  14.601 -0.8803  0.0631 -0.2234
 4625TIP3    H235367   3.652   6.394  14.745  0.4773 -0.6559  0.1728
 4626TIP3   OH235368   0.591   2.569   3.007 -0.1800  0.2619  0.8696
 4626TIP3    H135369   0.556   2.653   3.037 -1.0238  0.7221 -1.3059
 4626TIP3    H235370   0.516   2.525   2.967  0.3484 -1.3724  1.6410
 4627TIP3   OH235371   4.172   2.645  15.269 -0.5973 -0.7216  0.0971
 4627TIP3    H135372   4.094   2.669  15.318  0.6491  0.5362  1.5290
 4627TIP3    H235373   4.161   2.688  15.184 -1.7549 -1.1066  0.0484
 4628TIP3   OH235374   5.019   0.120  16.630 -0.0107 -0.2278 -0.6114
 4628TIP3    H135375   5.094   0.174  16.604 -0.5935  0.3315 -1.1777
 4628TIP3    H235376   4.944   0.180  16.624 -0.5624 -0.9045 -0.5176
 4629TIP3   OH235377   5.740   4.559   2.036  0.1407  0.2289 -0.5039
 4629TIP3    H135378   5.744   4.481   2.092  0.2858  0.5385 -0.0831
 4629TIP3    H235379   5.776   4.530   1.952 -1.3459 -0.6147 -0.8757
 4630TIP3   OH235380   0.612   0.304  11.885 -0.5561  0.3433 -0.5204
 4630TIP3    H135381   0.626   0.210  11.879  1.0500  0.6352 -1.6956
 4630TIP3    H235382   0.615   0.335  11.794  1.9191  1.9072  0.0315
 4631TIP3   OH235383   6.070   2.734  15.953 -0.2253 -0.2598  0.1109
 4631TIP3    H135384   5.987   2.713  15.996 -0.8676  0.4632 -0.7529
 4631TIP3    H235385   6.044   2.781  15.873  0.9586 -1.2338 -0.8553
 4632TIP3   OH235386   1.998   5.972   0.469 -0.5896  0.4483 -0.5218
 4632TIP3    H135387   1.989   5.947   0.561 -0.2125 -0.1509 -0.6430
 4632TIP3    H235388   1.910   5.962   0.433 -0.6339  0.1817 -0.3457
 4633TIP3   OH235389   3.319   2.445   4.235  0.0703 -0.0645 -0.5573
 4633TIP3    H135390   3.414   2.443   4.229  0.1292 -0.9046  0.6237
 4633TIP3    H235391   3.298   2.535   4.262  0.5262  0.0712 -0.6624
 4634TIP3   OH235392   3.246   6.466  13.935 -0.1432  0.0120 -0.4046
 4634TIP3    H135393   3.187   6.503  14.001 -1.3692 -0.9155 -0.9654
 4634TIP3    H235394   3.272   6.541  13.881 -0.9600  0.3937 -0.2710
 4635TIP3   OH235395   6.066   4.475   0.090  0.1008  0.0754 -0.3841
 4635TIP3    H135396   6.004   4.435   0.151  0.7104 -1.1904 -0.5810
 4635TIP3    H235397   6.074   4.410   0.019 -0.7471  1.5894 -1.9008
 4636TIP3   OH235398   1.899   0.622   2.100 -0.2542  0.5978 -0.3122
 4636TIP3    H135399   1.918   0.538   2.058 -2.5824  0.5200 -1.2686
 4636TIP3    H235400   1.917   0.687   2.032  0.5443  0.8217  0.1031
 4637TIP3   OH235401   0.652   2.495   5.736  0.2158 -0.0130 -0.3119
 4637TIP3    H135402   0.675   2.546   5.813 -0.8428 -0.5626  0.3868
 4637TIP3    H235403   0.668   2.554   5.662  0.6249  0.7363  0.3692
 4638TIP3   OH235404   4.728   4.742   5.388  0.2299 -0.2054 -0.7595
 4638TIP3    H135405   4.797   4.808   5.378 -0.4623  0.1788 -3.4084
 4638TIP3    H235406   4.770   4.660   5.363 -0.0749 -0.0764 -1.7098
 4639TIP3   OH235407   3.862   0.093  10.758  0.6703 -0.6410  0.0430
 4639TIP3    H135408   3.799   0.158  10.727  0.1001 -2.0048 -1.6824
 4639TIP3    H235409   3.844   0.087  10.852  0.4876  1.4139  0.1719
 4640TIP3   OH235410   0.197   2.502  12.719  0.0414  0.1010 -0.0732
 4640TIP3    H135411   0.208   2.496  12.814  0.0789  1.4502  0.0196
 4640TIP3    H235412   0.286   2.504  12.684  0.0310 -1.0199 -0.1976
 4641TIP3   OH235413   5.478   1.061  17.220  0.8978 -0.2469  0.1665
 4641TIP3    H135414   5.527   1.140  17.197  0.1047  0.6091  1.3391
 4641TIP3    H235415   5.538   1.011  17.276  1.1728 -0.1692 -0.0611
 4642TIP3   OH235416   3.646   1.975  14.182  0.1118  0.1230 -0.2706
 4642TIP3    H135417   3.586   2.045  14.208 -1.2973 -0.3061 -2.1946
 4642TIP3    H235418   3.718   2.021  14.137 -0.2504  0.4267 -0.5436
 4643TIP3   OH235419   5.813   5.383  12.087 -0.3147  0.7164 -0.7397
 4643TIP3    H135420   5.886   5.439  12.114  0.3317  0.5318 -2.0818
 4643TIP3    H235421   5.744   5.401  12.151  2.2295 -2.0422  2.9897
 4644TIP3   OH235422   0.672   1.386  16.334  0.7095 -0.1066 -0.1283
 4644TIP3    H135423   0.754   1.343  16.357  0.0849 -1.3373 -0.1653
 4644TIP3    H235424   0.605   1.339  16.385 -0.4620 -1.6880 -3.0064
 4645TIP3   OH235425   3.524   2.444   1.939 -0.2318 -0.0334  0.2598
 4645TIP3    H135426   3.478   2.381   1.883  0.4695 -0.6383  0.3553
 4645TIP3    H235427   3.605   2.399   1.963 -0.4169  0.3139  1.5750
 4646TIP3   OH235428   4.494   0.439  12.234 -0.3093 -0.2335  0.0555
 4646TIP3    H135429   4.467   0.401  12.150 -0.4600  1.6315 -0.7423
 4646TIP3    H235430   4.447   0.386  12.299 -1.1899 -0.8881 -1.0818
 4647TIP3   OH235431   0.075   3.150   6.051 -0.3378 -0.2185 -0.5870
 4647TIP3    H135432   0.030   3.066   6.056  0.8584 -0.8658 -0.6202
 4647TIP3    H235433   0.072   3.185   6.140 -0.7934 -0.3142 -0.5651
 4648TIP3   OH235434   5.876   3.855  14.325  0.0989  0.1712 -0.3194
 4648TIP3    H135435   5.858   3.766  14.354  1.7565  0.0745  0.4419
 4648TIP3    H235436   5.848   3.856  14.233 -1.0794 -0.7602  0.0104
 4649TIP3   OH235437   4.576   5.170   1.493 -0.1732 -0.2365  1.0415
 4649TIP3    H135438   4.516   5.203   1.560 -0.2523  0.3595  0.6867
 4649TIP3    H235439   4.592   5.079   1.517 -0.1516 -0.0090  1.9084
 4650TIP3   OH235440   1.651   6.666   6.315  0.0644 -0.7287  0.6194
 4650TIP3    H135441   1.684   6.576   6.310  0.3409 -0.6015  0.0847
 4650TIP3    H235442   1.558   6.657   6.335 -0.0815 -1.1573 -0.2245
 4651TIP3   OH235443   6.094   5.538   1.643  0.2170 -0.3101  0.9199
 4651TIP3    H135444   6.013   5.584   1.663 -0.8762 -1.3563 -0.9651
 4651TIP3    H235445   6.157   5.609   1.627 -0.8037  0.5269  0.5091
 4652TIP3   OH235446   5.655   0.347  10.408  0.0062 -0.3498 -0.4169
 4652TIP3    H135447   5.564   0.369  10.388  0.1026  0.2899 -0.1867
 4652TIP3    H235448   5.663   0.366  10.502  0.0345 -1.6182 -0.1494
 4653TIP3   OH235449   2.548   5.289  17.124  0.1567 -0.1556 -0.8821
 4653TIP3    H135450   2.594   5.243  17.194 -0.1608 -2.7083 -2.3081
 4653TIP3    H235451   2.614   5.349  17.089  0.4752  0.7697  1.1891
 4654TIP3   OH235452   6.335   3.846  13.528  0.8280  0.0271  0.5423
 4654TIP3    H135453   6.345   3.940  13.514  1.3573 -0.0553  0.3625
 4654TIP3    H235454   6.413   3.807  13.489  1.6915 -0.3118  2.5535
 4655TIP3   OH235455   6.577   1.867  13.833  0.1909 -0.4692  0.5461
 4655TIP3    H135456   6.487   1.844  13.855  0.0717 -0.3387  0.2023
 4655TIP3    H235457   6.585   1.845  13.740  0.0629  0.9490  0.2013
 4656TIP3   OH235458   6.370   3.443   3.307  0.7266 -0.1665  0.3013
 4656TIP3    H135459   6.309   3.392   3.360  0.5129  0.4253  0.6320
 4656TIP3    H235460   6.368   3.530   3.346  0.3123  0.3600 -0.8848
 4657TIP3   OH235461   3.281   0.488   1.071  0.1271  0.4738  0.3554
 4657TIP3    H135462   3.333   0.501   1.150  1.9720 -2.2625 -0.3431
 4657TIP3    H235463   3.237   0.404   1.085 -1.3570  1.0890 -0.5438
 4658TIP3   OH235464   3.102   4.533  12.164  0.3472  1.1835 -0.2327
 4658TIP3    H135465   3.091   4.445  12.127 -0.0937  1.8885 -1.8419
 4658TIP3    H235466   3.013   4.560  12.189  0.8497  0.0682  2.9436
 4659TIP3   OH235467   5.820   2.586  15.776  0.3009  0.8534 -0.0660
 4659TIP3    H135468   5.800   2.622  15.689  0.2713 -0.1263 -0.4688
 4659TIP3    H235469   5.784   2.497  15.774  0.3383  0.8132  0.9385
 4660TIP3   OH235470   0.236   1.546  15.814 -0.3894  0.2047  0.0956
 4660TIP3    H135471   0.223   1.494  15.735 -0.9366  2.1613 -1.1339
 4660TIP3    H235472   0.149   1.551  15.854 -0.6130  1.2952 -0.5116
 4661TIP3   OH235473   5.839   2.235  12.226 -0.3786  0.3118 -0.1007
 4661TIP3    H135474   5.920   2.287  12.226 -1.1180  1.4805 -0.5349
 4661TIP3    H235475   5.857   2.163  12.166  0.7184 -0.0345  0.6296
 4662TIP3   OH235476   5.160   1.846   4.024 -0.1678  0.3992 -0.3435
 4662TIP3    H135477   5.167   1.882   3.936 -0.3085 -0.8639 -0.8791
 4662TIP3    H235478   5.235   1.788   4.032 -0.5743 -0.0678  0.0920
 4663TIP3   OH235479   1.006   4.707   1.357 -0.1190 -0.4903  0.2131
 4663TIP3    H135480   1.085   4.656   1.370 -0.4463 -0.6688  1.6129
 4663TIP3    H235481   0.968   4.715   1.445 -0.3543  1.6818 -0.0490
 4664TIP3   OH235482   4.998   3.171   2.467 -0.0464 -0.0674 -0.1162
 4664TIP3    H135483   4.982   3.140   2.378 -1.1197  0.0179  0.0370
 4664TIP3    H235484   4.912   3.202   2.498  0.7459  1.8862  0.1931
 4665TIP3   OH235485   0.557   3.188  10.673 -0.1008  0.1282  0.3702
 4665TIP3    H135486   0.591   3.241  10.602 -1.4527  0.3762 -0.1173
 4665TIP3    H235487   0.594   3.101  10.659 -0.6007  0.0928 -0.8311
 4666TIP3   OH235488   1.001   2.567  15.718 -0.0333 -0.6161  0.3342
 4666TIP3    H135489   0.918   2.615  15.713  0.0651 -0.5670 -1.0190
 4666TIP3    H235490   1.016   2.555  15.812 -1.2077  0.0029  0.6147
 4667TIP3   OH235491   0.554   1.166   0.573 -0.1221 -0.0348 -0.2388
 4667TIP3    H135492   0.472   1.213   0.587  0.1321  1.0971 -2.2877
 4667TIP3    H235493   0.618   1.215   0.624 -0.6514 -0.7483  1.1296
 4668TIP3   OH235494   4.863   2.344   5.359 -0.2502  0.0426 -0.2721
 4668TIP3    H135495   4.792   2.344   5.424  0.7694 -1.8553  0.8727
 4668TIP3    H235496   4.867   2.435   5.329 -1.1799  0.8257  1.8377
 4669TIP3   OH235497   3.425   0.525   2.645 -0.6585 -0.1963  0.1249
 4669TIP3    H135498   3.341   0.483   2.661 -0.0409 -1.7556 -0.6703
 4669TIP3    H235499   3.484   0.454   2.621  0.9467  0.8506  0.8538
 4670TIP3   OH235500   3.840   3.088  12.441  0.5107 -0.1032  0.0511
 4670TIP3    H135501   3.879   3.001  12.455 -0.5301 -0.9422 -2.0096
 4670TIP3    H235502   3.870   3.113  12.354  0.2294  1.3092  0.3600
 4671TIP3   OH235503   2.821   3.574   0.832  0.1712 -0.5454 -0.0348
 4671TIP3    H135504   2.843   3.498   0.885 -1.0247 -0.6791  0.2883
 4671TIP3    H235505   2.787   3.538   0.750 -2.3370 -0.4338  0.8912
 4672TIP3   OH235506   2.908   6.048  16.368  0.0177 -0.6209  0.0992
 4672TIP3    H135507   2.857   5.996  16.305  0.9527 -1.4694  0.0277
 4672TIP3    H235508   2.851   6.122  16.390 -1.5648 -1.9644  0.6246
 4673TIP3   OH235509   3.006   2.299  16.608  0.4928 -0.0394  0.0184
 4673TIP3    H135510   2.955   2.223  16.633  1.0591 -0.2682  0.4869
 4673TIP3    H235511   3.073   2.265  16.549 -0.8974  0.5104 -1.9318
 4674TIP3   OH235512   1.096   5.659  12.771  0.0004 -0.3759 -0.3216
 4674TIP3    H135513   1.105   5.724  12.701 -1.6261  0.6167  0.3579
 4674TIP3    H235514   1.185   5.644  12.802  0.3882  1.6229 -0.4213
 4675TIP3   OH235515   5.215   4.111   1.694 -0.3232 -0.3719 -0.5595
 4675TIP3    H135516   5.154   4.060   1.747  0.9897 -2.2595 -0.8019
 4675TIP3    H235517   5.189   4.093   1.604  0.7070 -1.3699 -0.6693
 4676TIP3   OH235518   2.966   3.720   1.594 -0.1930  0.5327 -0.6443
 4676TIP3    H135519   2.944   3.705   1.502 -2.3709 -0.4374 -0.0142
 4676TIP3    H235520   2.913   3.796   1.618 -1.4234 -0.6193  0.3845
 4677TIP3   OH235521   1.356   5.399  17.126 -0.1817  0.1968  0.1096
 4677TIP3    H135522   1.410   5.476  17.110  0.0492  0.0450  0.1516
 4677TIP3    H235523   1.290   5.401  17.057  1.4729 -1.0513 -1.5704
 4678TIP3   OH235524   0.575   5.710   3.103  0.2074 -0.0068  0.5150
 4678TIP3    H135525   0.654   5.763   3.114  0.7137  0.1323 -3.1809
 4678TIP3    H235526   0.503   5.773   3.113  0.5849  0.1811  2.1967
 4679TIP3   OH235527   5.470   4.938  11.708  0.0835  0.5725  0.4605
 4679TIP3    H135528   5.565   4.943  11.719  0.2249 -1.1203  0.1246
 4679TIP3    H235529   5.456   4.949  11.614  0.0088  0.2210  0.4270
 4680TIP3   OH235530   0.153   5.272   6.271 -0.0587  0.0958  0.0659
 4680TIP3    H135531   0.188   5.359   6.289 -0.2182  0.2480 -0.3410
 4680TIP3    H235532   0.122   5.240   6.355  0.3662  0.2702  0.2911
 4681TIP3   OH235533   2.844   0.337   2.220  0.8829 -0.4523  0.0073
 4681TIP3    H135534   2.898   0.407   2.258  0.1428 -0.0466  0.3236
 4681TIP3    H235535   2.895   0.257   2.234  1.2269 -0.1262  0.6564
 4682TIP3   OH235536   2.628   4.640  16.860 -0.5509 -0.1489  0.8412
 4682TIP3    H135537   2.567   4.567  16.868  0.8476 -1.5890 -1.1445
 4682TIP3    H235538   2.578   4.708  16.813 -0.8906 -1.0284 -0.0932
 4683TIP3   OH235539   5.998   0.091   4.523  0.0269 -0.6409 -0.1182
 4683TIP3    H135540   5.914   0.132   4.500  1.3894  1.6375 -1.2662
 4683TIP3    H235541   6.007   0.105   4.617  1.0111  2.9814 -0.6408
 4684TIP3   OH235542   5.140   2.761  14.547  0.1288 -0.0183  0.2100
 4684TIP3    H135543   5.200   2.829  14.517 -2.7241  2.3614 -0.3744
 4684TIP3    H235544   5.143   2.766  14.642 -1.1538  1.9895  0.1695
 4685TIP3   OH235545   6.733   4.236  14.959 -0.1346  0.0907  0.0622
 4685TIP3    H135546   6.672   4.173  14.996  0.8720 -2.0065 -1.7517
 4685TIP3    H235547   6.678   4.310  14.932 -1.3404 -0.0669  2.0085
 4686TIP3   OH235548   2.272   3.868   5.018  0.6110 -0.1454  0.0377
 4686TIP3    H135549   2.196   3.820   4.985  0.4712 -0.6826  1.1325
 4686TIP3    H235550   2.247   3.894   5.107  1.3994  0.3779  0.1074
 4687TIP3   OH235551   3.916   1.649   2.641  0.2154  0.0162  0.4806
 4687TIP3    H135552   3.828   1.666   2.610  0.5416  1.2573  0.2247
 4687TIP3    H235553   3.955   1.735   2.652  2.2333 -0.5421 -1.8154
 4688TIP3   OH235554   0.219   2.723  17.091 -0.6954  0.0130  0.1210
 4688TIP3    H135555   0.215   2.819  17.084  0.4701  0.0987  0.6491
 4688TIP3    H235556   0.259   2.695  17.009 -1.3109 -0.0555 -0.1651
 4689TIP3   OH235557   5.625   0.636  14.949 -0.4243  0.3748 -0.4156
 4689TIP3    H135558   5.530   0.643  14.940 -0.6993  1.5622  2.7827
 4689TIP3    H235559   5.640   0.544  14.971 -0.9308  0.3803 -0.0352
 4690TIP3   OH235560   5.230   0.270   5.509  0.2767  0.0947  0.2018
 4690TIP3    H135561   5.203   0.227   5.590  2.7894 -1.2533  0.3774
 4690TIP3    H235562   5.290   0.209   5.467  1.8690  2.2973 -0.8697
 4691TIP3   OH235563   5.752   4.790   0.863  0.1134 -0.0478 -0.0590
 4691TIP3    H135564   5.813   4.765   0.793  1.8364  1.2539  0.9480
 4691TIP3    H235565   5.797   4.765   0.944 -1.9950 -1.8028  0.6197
 4692TIP3   OH235566   0.423   2.365  14.007  0.6153 -0.1699  0.1042
 4692TIP3    H135567   0.350   2.332  14.059  1.4029 -0.3373  1.1156
 4692TIP3    H235568   0.486   2.398  14.071  2.4317 -2.0862 -0.6214
 4693TIP3   OH235569   5.029   4.494  15.578 -0.1887 -0.1517 -0.1190
 4693TIP3    H135570   5.045   4.588  15.582  0.0514 -0.2091  0.2879
 4693TIP3    H235571   5.115   4.454  15.593 -0.3895 -0.4435  0.2649
 4694TIP3   OH235572   2.538   3.621   5.591  0.2362  0.1287 -0.3085
 4694TIP3    H135573   2.528   3.607   5.496  0.1007  2.4063 -0.6564
 4694TIP3    H235574   2.449   3.623   5.625  0.2217  0.8908 -0.3851
 4695TIP3   OH235575   1.844   5.569   3.930  0.0119 -0.3590  0.0883
 4695TIP3    H135576   1.811   5.632   3.995 -1.0640 -0.3945 -0.4186
 4695TIP3    H235577   1.936   5.593   3.919 -0.5412  1.5819 -0.6046
 4696TIP3   OH235578   3.648   5.612  12.987  0.1559  0.6888  0.3166
 4696TIP3    H135579   3.614   5.525  13.010 -1.5269  1.3595  0.4267
 4696TIP3    H235580   3.715   5.629  13.053  0.0664 -0.2710  0.6648
 4697TIP3   OH235581   3.928   0.349  16.391  0.5575  0.4386  0.0874
 4697TIP3    H135582   3.847   0.392  16.419 -0.1923 -0.4025 -0.7962
 4697TIP3    H235583   3.907   0.256  16.388  1.5349  0.2171 -0.2484
 4698TIP3   OH235584   1.543   0.159  15.201 -0.5138  0.1053 -0.0044
 4698TIP3    H135585   1.553   0.109  15.282 -0.8760  0.0745  0.0236
 4698TIP3    H235586   1.513   0.095  15.137 -1.0863  0.3019  0.0590
 4699TIP3   OH235587   1.838   5.927  15.537  0.8146  0.0191 -0.3884
 4699TIP3    H135588   1.877   6.011  15.564  1.6076 -0.8170  1.1581
 4699TIP3    H235589   1.795   5.895  15.616 -2.6985  0.7105 -1.9627
 4700TIP3   OH235590   5.214   3.681  11.976 -0.3434  1.0182  0.2498
 4700TIP3    H135591   5.225   3.769  11.939  1.4203 -0.1172 -2.0891
 4700TIP3    H235592   5.303   3.644  11.976 -1.5710 -2.1708 -2.5371
 4701TIP3   OH235593   3.679   5.598   1.187  0.0518  0.0871 -0.2201
 4701TIP3    H135594   3.657   5.620   1.096 -1.0697  0.7085  0.1997
 4701TIP3    H235595   3.700   5.504   1.184  0.8997  0.2943 -1.2710
 4702TIP3   OH235596   6.254   5.463   1.255  0.1224 -0.3852 -0.0005
 4702TIP3    H135597   6.295   5.418   1.181 -0.4529 -0.5803 -0.2026
 4702TIP3    H235598   6.284   5.416   1.332 -0.8898 -1.4401 -0.2429
 4703TIP3   OH235599   4.108   3.058   6.446 -0.4595 -1.1275  0.1427
 4703TIP3    H135600   4.013   3.045   6.439 -0.8105  1.6961 -1.3292
 4703TIP3    H235601   4.129   3.119   6.375  1.8528  1.2648  2.7445
 4704TIP3   OH235602   4.307   1.845  12.783  0.3864 -0.1145  0.1731
 4704TIP3    H135603   4.372   1.915  12.780 -0.4425  0.6330 -1.1886
 4704TIP3    H235604   4.358   1.764  12.780  1.2170  0.4686 -2.3012
 4705TIP3   OH235605   0.392   2.386   5.784  0.2399 -0.1170 -0.6908
 4705TIP3    H135606   0.379   2.294   5.761  0.6669 -0.0304 -1.2749
 4705TIP3    H235607   0.480   2.407   5.754  0.5556  0.1843  0.4277
 4706TIP3   OH235608   1.738   3.118   0.274  0.0476 -0.2718 -0.0734
 4706TIP3    H135609   1.654   3.074   0.280 -0.1285 -0.2735 -2.1045
 4706TIP3    H235610   1.798   3.052   0.239  1.0880 -0.4803  2.0007
 4707TIP3   OH235611   6.179   0.303  15.422 -0.0189 -0.0014 -0.1889
 4707TIP3    H135612   6.113   0.241  15.390 -0.6985  0.6479 -0.0753
 4707TIP3    H235613   6.209   0.349  15.344 -0.7197  0.6648 -0.0786
 4708TIP3   OH235614   2.504   3.556  12.382  0.1581  0.3519 -0.0213
 4708TIP3    H135615   2.525   3.475  12.334  0.0885 -0.3653  1.1551
 4708TIP3    H235616   2.480   3.618  12.313 -1.7618 -1.2132 -0.8062
 4709TIP3   OH235617   4.221   0.141  15.490  0.0573  0.0544  0.5749
 4709TIP3    H135618   4.269   0.202  15.434 -0.6184  0.4486  0.4157
 4709TIP3    H235619   4.179   0.081  15.429 -0.6052  0.4288  0.6483
 4710TIP3   OH235620   4.548   3.992   4.572  0.8212 -0.7337  0.1265
 4710TIP3    H135621   4.454   4.004   4.586  0.6398 -3.2325  1.1992
 4710TIP3    H235622   4.587   4.076   4.598 -0.8520 -0.6145  2.3512
 4711TIP3   OH235623   5.461   6.666   2.952 -0.2284  0.4607 -0.1248
 4711TIP3    H135624   5.397   6.679   2.881  1.2428 -0.1869 -1.6190
 4711TIP3    H235625   5.415   6.611   3.015 -0.7072 -1.2033 -1.8555
 4712TIP3   OH235626   6.511   2.784   3.272  0.0426 -0.3195  0.5379
 4712TIP3    H135627   6.463   2.736   3.205  0.9882 -0.4765 -0.0430
 4712TIP3    H235628   6.589   2.817   3.226  0.3926  0.0805  1.4094
 4713TIP3   OH235629   3.344   1.657  15.477 -0.2928 -0.4860 -0.2183
 4713TIP3    H135630   3.423   1.695  15.440 -1.5585  1.1338 -1.3259
 4713TIP3    H235631   3.361   1.563  15.478  1.8157 -0.1241  0.0125
 4714TIP3   OH235632   2.339   5.117  12.782  0.0234  0.3906 -0.6749
 4714TIP3    H135633   2.348   5.208  12.753 -0.6850  0.6646 -0.0452
 4714TIP3    H235634   2.411   5.105  12.844 -0.9019  1.0544  0.5472
 4715TIP3   OH235635   2.477   6.251  11.491  0.2190  0.0252 -0.0398
 4715TIP3    H135636   2.504   6.161  11.471  0.4177  0.4689 -1.8731
 4715TIP3    H235637   2.558   6.302  11.488 -0.0641  0.4713 -0.2851
 4716TIP3   OH235638   1.580   0.450  16.905 -0.1021 -0.1684 -0.7944
 4716TIP3    H135639   1.496   0.480  16.940  1.2015 -0.3952  2.7509
 4716TIP3    H235640   1.590   0.362  16.941  1.6555 -0.1323 -1.1695
 4717TIP3   OH235641   4.748   1.451   3.862  0.1536 -0.2860  0.5462
 4717TIP3    H135642   4.674   1.458   3.802  1.0617 -2.8370 -0.9244
 4717TIP3    H235643   4.784   1.540   3.865 -2.6010  0.8676  0.8710
 4718TIP3   OH235644   3.581   4.538  11.073  0.4075  0.1950 -0.2098
 4718TIP3    H135645   3.492   4.545  11.038  0.3888  0.5909 -0.0840
 4718TIP3    H235646   3.635   4.517  10.997  0.1109 -0.7089 -0.1767
 4719TIP3   OH235647   2.174   4.753  14.162 -0.6191  0.5269  0.3048
 4719TIP3    H135648   2.078   4.750  14.166 -0.7496  2.7266 -0.3272
 4719TIP3    H235649   2.194   4.757  14.069  0.0228  1.3659  0.4750
 4720TIP3   OH235650   0.199   6.633  12.012  0.2096  0.1909  0.3699
 4720TIP3    H135651   0.166   6.661  12.098  0.6752 -0.9560  0.9358
 4720TIP3    H235652   0.268   6.570  12.032  0.2219 -0.2021 -0.8586
 4721TIP3   OH235653   3.553   6.578   1.037 -0.4069 -0.1905 -0.5978
 4721TIP3    H135654   3.505   6.563   1.118 -0.7483  2.9355 -0.1602
 4721TIP3    H235655   3.641   6.546   1.054 -0.7224 -0.3895  0.6733
 4722TIP3   OH235656   5.423   3.421  15.582 -0.0038  0.9102  0.3590
 4722TIP3    H135657   5.465   3.495  15.626 -0.2851  0.3729  1.5575
 4722TIP3    H235658   5.354   3.393  15.642 -0.4758  0.2317 -0.4840
 4723TIP3   OH235659   2.202   1.396  12.972 -0.6599  0.6655  0.0421
 4723TIP3    H135660   2.274   1.369  12.915 -0.5666 -0.9296  0.8813
 4723TIP3    H235661   2.181   1.317  13.023 -2.7953  1.1996  0.0272
 4724TIP3   OH235662   0.989   1.226   4.023  0.4709  0.3181  0.1808
 4724TIP3    H135663   0.904   1.200   4.057 -0.2350  1.7346 -0.4840
 4724TIP3    H235664   0.974   1.241   3.930  0.9517  2.7390  0.4735
 4725TIP3   OH235665   2.440   3.034  14.355 -0.1429  0.2958 -0.2013
 4725TIP3    H135666   2.434   2.948  14.397 -0.5804 -0.4866 -1.8602
 4725TIP3    H235667   2.349   3.059  14.339  0.0336  0.4242 -1.0217
 4726TIP3   OH235668   0.406   1.867   5.963 -0.3222 -0.1380  0.5196
 4726TIP3    H135669   0.432   1.958   5.981 -0.7564 -0.0986  0.9544
 4726TIP3    H235670   0.375   1.834   6.047 -1.4628 -0.2520  0.0546
 4727TIP3   OH235671   6.711   6.354  11.943  0.4648 -0.2140  0.3644
 4727TIP3    H135672   6.634   6.376  11.890 -0.3293 -0.8595  1.2314
 4727TIP3    H235673   6.731   6.434  11.991 -0.2013 -0.2964  0.7849
 4728TIP3   OH235674   2.527   6.458  12.854  0.3933  0.2380  0.2913
 4728TIP3    H135675   2.556   6.550  12.855 -0.1021  0.4153 -0.6443
 4728TIP3    H235676   2.482   6.449  12.770 -2.8738  0.1749  1.9356
 4729TIP3   OH235677   0.267   4.175  16.872  0.4375  0.1383  0.3492
 4729TIP3    H135678   0.203   4.233  16.831  0.3822  0.7396  1.2702
 4729TIP3    H235679   0.328   4.235  16.917 -0.0216 -0.5338  1.9028
 4730TIP3   OH235680   6.034   5.001   6.156  0.6228 -0.2242 -0.9567
 4730TIP3    H135681   6.079   4.986   6.073  1.4591  1.0377 -0.7460
 4730TIP3    H235682   6.078   4.944   6.219  2.1685  1.2358 -0.6824
 4731TIP3   OH235683   2.629   4.854  11.471 -0.2326 -0.3293 -0.6030
 4731TIP3    H135684   2.580   4.875  11.392  2.0558  1.1081 -1.7062
 4731TIP3    H235685   2.571   4.877  11.543 -1.9943 -0.7665 -1.8572
 4732TIP3   OH235686   1.976   2.830  15.039  0.4025 -0.2180 -0.7144
 4732TIP3    H135687   1.989   2.891  15.111 -0.5943 -2.4008  1.3721
 4732TIP3    H235688   2.062   2.789  15.027 -0.1067 -1.9054  1.1922
 4733TIP3   OH235689   6.291   0.526  13.067 -0.7006  0.5015  0.4846
 4733TIP3    H135690   6.200   0.499  13.078 -0.5394  0.2487  1.1917
 4733TIP3    H235691   6.288   0.595  13.000 -1.1077 -1.3125 -1.4284
 4734TIP3   OH235692   0.672   0.321  15.958  0.3001  0.4112 -0.1742
 4734TIP3    H135693   0.757   0.288  15.930  0.1392 -0.7918  0.6824
 4734TIP3    H235694   0.638   0.369  15.883  0.7792 -0.9717 -1.2964
 4735TIP3   OH235695   5.443   0.188   1.061 -0.3055 -0.3926  0.7591
 4735TIP3    H135696   5.471   0.115   1.006  1.0324  0.1232  0.7231
 4735TIP3    H235697   5.397   0.248   1.001 -1.6700 -1.3264  0.8503
 4736TIP3   OH235698   4.432   1.997  17.007  0.3735 -0.3039  0.1313
 4736TIP3    H135699   4.436   2.092  17.013  2.1849 -0.3143 -0.5464
 4736TIP3    H235700   4.433   1.966  17.097  1.0631  0.2834  0.3272
 4737TIP3   OH235701   3.440   1.659  14.098 -0.0936  0.7430 -0.3067
 4737TIP3    H135702   3.471   1.706  14.175  0.9520  1.1610 -0.9665
 4737TIP3    H235703   3.519   1.644  14.046 -0.8336  0.7584 -1.4537
 4738TIP3   OH235704   6.337   0.897  16.945 -0.4339 -0.5653 -0.4198
 4738TIP3    H135705   6.334   0.808  16.909  2.9152 -1.2337  0.7640
 4738TIP3    H235706   6.313   0.887  17.037 -0.6611 -0.1691 -0.4345
 4739TIP3   OH235707   6.727   6.178  12.204 -0.4639 -0.5505 -0.0886
 4739TIP3    H135708   6.695   6.089  12.216 -0.0707 -0.6505  0.2318
 4739TIP3    H235709   6.774   6.198  12.285  1.4656 -0.8956 -1.0866
 4740TIP3   OH235710   5.191   3.798  13.555 -0.2787 -0.5425  0.0576
 4740TIP3    H135711   5.145   3.877  13.527  1.1217  0.5511  0.7679
 4740TIP3    H235712   5.140   3.765  13.629 -0.3775  0.1955  0.3240
 4741TIP3   OH235713   0.176   2.935   6.275 -0.3108  0.2398 -0.3608
 4741TIP3    H135714   0.117   2.911   6.203 -1.5277  0.6948  0.4528
 4741TIP3    H235715   0.124   2.917   6.354  0.5431  0.9556  0.3640
 4742TIP3   OH235716   2.115   6.323  12.507  0.3523  0.1617 -0.1949
 4742TIP3    H135717   2.168   6.398  12.534 -0.6013  1.0010 -0.5835
 4742TIP3    H235718   2.059   6.305  12.582 -0.4599  0.8111 -0.6297
 4743TIP3   OH235719   0.223   5.674   0.390 -0.6681  0.7414  0.2559
 4743TIP3    H135720   0.286   5.681   0.318  0.1807 -0.3329  0.8625
 4743TIP3    H235721   0.138   5.690   0.350 -0.6216 -3.4728 -1.7476
 4744TIP3   OH235722   1.108   0.545   1.222  0.3075 -0.4781 -0.0506
 4744TIP3    H135723   1.052   0.619   1.245  1.3325 -0.4142  2.3767
 4744TIP3    H235724   1.142   0.568   1.136 -0.5639  1.1735  0.0099
 4745TIP3   OH235725   1.553   5.186   5.404  0.6990  0.3655  0.6210
 4745TIP3    H135726   1.587   5.275   5.402  0.7629  0.3938  2.6010
 4745TIP3    H235727   1.630   5.131   5.413  0.4892  0.2559  1.8561
 4746TIP3   OH235728   3.380   5.823  14.173  0.1588  0.3462 -0.1132
 4746TIP3    H135729   3.381   5.909  14.213 -0.1172 -0.7894  2.4062
 4746TIP3    H235730   3.449   5.774  14.217  0.3859 -0.6904 -1.5775
 4747TIP3   OH235731   1.852   3.280  13.153  0.8107  0.5306  0.0985
 4747TIP3    H135732   1.802   3.205  13.185  0.4260  1.3077  1.3665
 4747TIP3    H235733   1.788   3.351  13.148  1.2245  0.8389 -0.8341
 4748TIP3   OH235734   3.235   3.031  16.923  0.2056 -0.0743  0.4158
 4748TIP3    H135735   3.145   2.999  16.923  0.0969  0.1338 -1.6852
 4748TIP3    H235736   3.248   3.066  16.835  2.9207 -1.8438  0.0352
 4749TIP3   OH235737   2.879   1.339   5.056 -0.1129 -0.2075 -0.2342
 4749TIP3    H135738   2.888   1.410   4.994  1.3730  1.3442  1.7098
 4749TIP3    H235739   2.968   1.316   5.081 -0.6450 -1.4911  0.5795
 4750TIP3   OH235740   3.887   0.187   2.498  0.5580 -0.4712 -0.0401
 4750TIP3    H135741   3.879   0.121   2.567  0.7317  0.4309  0.8539
 4750TIP3    H235742   3.888   0.270   2.545  0.3565  0.1652 -1.1626
 4751TIP3   OH235743   2.589   3.322   1.154  0.0760  0.2637 -0.5515
 4751TIP3    H135744   2.618   3.260   1.221  0.8529  1.4857  0.2620
 4751TIP3    H235745   2.598   3.408   1.196 -3.2731  0.7974 -0.7905
 4752TIP3   OH235746   2.268   5.460   2.660  0.1450  0.1257  0.7151
 4752TIP3    H135747   2.324   5.390   2.626  1.2351  0.5931  1.5228
 4752TIP3    H235748   2.182   5.420   2.668  0.4159 -0.6766 -0.3056
 4753TIP3   OH235749   6.811   3.493  16.622  0.0718  0.2847 -0.0600
 4753TIP3    H135750   6.894   3.532  16.649 -0.3787  1.2118 -0.0166
 4753TIP3    H235751   6.792   3.429  16.690  0.1451  0.9261  0.5716
 4754TIP3   OH235752   4.568   5.822   5.498  0.0381  0.7414  0.1743
 4754TIP3    H135753   4.636   5.841   5.562 -0.4007 -0.1441  0.9083
 4754TIP3    H235754   4.578   5.730   5.477  0.8134  1.2545 -1.8058
 4755TIP3   OH235755   2.499   0.038   2.819 -0.3933 -0.4907  0.0449
 4755TIP3    H135756   2.460   0.006   2.900 -2.5367 -0.1267 -0.8034
 4755TIP3    H235757   2.437   0.012   2.750 -0.4898  2.4073 -1.0417
 4756TIP3   OH235758   4.787   5.179   4.042  0.3089 -0.1995 -0.1097
 4756TIP3    H135759   4.826   5.184   4.129  1.4564  0.6360 -0.6564
 4756TIP3    H235760   4.824   5.254   3.995 -2.8342  1.3227 -0.2895
 4757TIP3   OH235761   5.830   5.819  14.040  0.0452 -0.0849 -0.3792
 4757TIP3    H135762   5.794   5.902  14.069  0.7447  0.5190 -1.2409
 4757TIP3    H235763   5.756   5.774  13.998 -0.6338 -0.4198  1.1558
 4758TIP3   OH235764   4.704   2.015  12.767  0.0869  0.2447 -0.4586
 4758TIP3    H135765   4.620   2.033  12.809 -0.1310 -0.4180 -0.5960
 4758TIP3    H235766   4.699   2.062  12.684  0.1701  0.8549 -0.1207
 4759TIP3   OH235767   2.400   4.465   1.676 -0.5689 -0.0042 -0.1716
 4759TIP3    H135768   2.383   4.448   1.583  1.9898  2.8322 -1.2687
 4759TIP3    H235769   2.327   4.521   1.703 -2.7142 -2.9480  0.2887
 4760TIP3   OH235770   0.520   6.161  15.864 -0.2927 -0.0244 -0.1567
 4760TIP3    H135771   0.568   6.190  15.942  0.0217  2.3824 -1.2016
 4760TIP3    H235772   0.587   6.119  15.809  0.2559  1.6541 -0.7853
 4761TIP3   OH235773   5.787   2.046   5.950  0.0158 -0.0059 -0.3463
 4761TIP3    H135774   5.757   1.982   5.885  0.5881 -0.4977 -0.1263
 4761TIP3    H235775   5.879   2.023   5.966 -0.4721 -0.7233  1.6106
 4762TIP3   OH235776   6.190   6.372   4.874 -0.0211  0.0777  0.1550
 4762TIP3    H135777   6.175   6.442   4.937 -1.0357 -0.4094  0.4556
 4762TIP3    H235778   6.107   6.363   4.827  0.6823  0.3476 -1.1573
 4763TIP3   OH235779   3.227   6.444   4.865  0.1759  0.9359  0.3645
 4763TIP3    H135780   3.281   6.517   4.834 -0.3202  1.0133 -0.3235
 4763TIP3    H235781   3.290   6.385   4.906  1.0559  0.2160 -1.9304
 4764TIP3   OH235782   0.283   5.299   5.294 -0.3410 -0.3574  0.1483
 4764TIP3    H135783   0.377   5.289   5.308 -0.7096 -4.1934  0.3904
 4764TIP3    H235784   0.269   5.270   5.204 -1.3310 -0.1207  0.2209
 4765TIP3   OH235785   1.388   3.946   5.334 -0.2215  0.3361  0.4053
 4765TIP3    H135786   1.344   4.021   5.374  0.8078 -0.1398  2.4931
 4765TIP3    H235787   1.355   3.870   5.383 -0.0323 -0.4293 -0.6245
 4766TIP3   OH235788   1.165   0.436   4.948  0.3149  0.4883  0.0032
 4766TIP3    H135789   1.169   0.493   4.872 -1.8197  0.8387  0.1134
 4766TIP3    H235790   1.212   0.357   4.922  1.6062  1.5220 -0.8298
 4767TIP3   OH235791   1.930   0.632   3.279 -0.4196 -0.3087 -0.6172
 4767TIP3    H135792   1.911   0.638   3.186  0.7046 -2.3726 -1.0250
 4767TIP3    H235793   2.003   0.693   3.293  0.6995 -1.4184 -1.5004
 4768TIP3   OH235794   4.607   0.588  13.612  0.1300 -0.5994 -0.3319
 4768TIP3    H135795   4.701   0.588  13.594  0.4927 -2.7872  1.2832
 4768TIP3    H235796   4.592   0.668  13.662  1.1795 -0.3344 -0.4439
 4769TIP3   OH235797   3.989   5.154   3.003  0.1516 -0.0513 -0.0856
 4769TIP3    H135798   4.045   5.110   2.939 -0.2511  1.3883 -1.4569
 4769TIP3    H235799   3.906   5.168   2.958 -1.0532 -1.3649  1.6406
 4770TIP3   OH235800   5.867   2.052  12.002  0.3636 -0.0169 -0.0496
 4770TIP3    H135801   5.817   2.021  11.927  2.1587 -0.3461 -1.1440
 4770TIP3    H235802   5.946   1.998  12.002  0.1416 -0.4177  2.4220
 4771TIP3   OH235803   1.981   5.813   1.189  0.2466  0.8389 -0.2920
 4771TIP3    H135804   1.979   5.719   1.174 -2.0730  1.0646 -1.6742
 4771TIP3    H235805   2.053   5.826   1.250 -1.0651 -2.1306  2.0121
 4772TIP3   OH235806   2.078   2.327   3.588  0.4804 -0.4144  0.3313
 4772TIP3    H135807   2.108   2.250   3.540  2.0836  0.6603 -0.3945
 4772TIP3    H235808   2.067   2.296   3.678  1.3034 -1.4418  0.0831
 4773TIP3   OH235809   1.718   6.750   5.449 -0.8198  0.2376  0.1037
 4773TIP3    H135810   1.623   6.753   5.439 -0.8491  0.6527  0.4861
 4773TIP3    H235811   1.752   6.745   5.360 -1.2529 -1.6251  0.0065
 4774TIP3   OH235812   2.547   1.464  16.453  0.2585  0.0961 -0.2277
 4774TIP3    H135813   2.457   1.462  16.422  0.5413 -0.6410 -1.0423
 4774TIP3    H235814   2.553   1.389  16.513  0.2775  0.2511 -0.0364
 4775TIP3   OH235815   3.200   6.601  11.699  0.1756 -0.2556 -0.0739
 4775TIP3    H135816   3.109   6.604  11.669  0.1019 -0.4717  0.1201
 4775TIP3    H235817   3.199   6.534  11.769  0.3580  0.1899  0.3564
 4776TIP3   OH235818   5.765   2.612  12.269  0.1509  0.3797  0.6202
 4776TIP3    H135819   5.673   2.589  12.261  0.0763  0.9927 -0.4112
 4776TIP3    H235820   5.807   2.568  12.194  0.8223 -0.5262  1.5121
 4777TIP3   OH235821   2.190   2.062  15.232  0.2030  0.0751  0.1618
 4777TIP3    H135822   2.203   2.052  15.138  1.1495 -0.9138  0.3890
 4777TIP3    H235823   2.278   2.066  15.269 -0.1111 -2.0518  1.2474
 4778TIP3   OH235824   1.571   4.639  12.282  0.0256  0.3371  0.2711
 4778TIP3    H135825   1.664   4.665  12.282  0.0572  0.2420  0.7119
 4778TIP3    H235826   1.567   4.564  12.223 -0.0709  1.3623 -1.0482
 4779TIP3   OH235827   4.768   6.063  13.707  0.1670 -0.2424 -0.0273
 4779TIP3    H135828   4.760   6.124  13.633 -0.3575 -1.0706 -0.6678
 4779TIP3    H235829   4.862   6.056  13.722  0.4602 -2.0662 -2.3431
 4780TIP3   OH235830   6.165   1.325  14.332 -0.2681  0.2883  0.0731
 4780TIP3    H135831   6.232   1.357  14.272 -0.4353  1.3762  0.4630
 4780TIP3    H235832   6.107   1.273  14.276 -0.6105  1.5767 -0.7913
 4781TIP3   OH235833   4.477   0.907  15.389 -0.2356 -0.3604  0.4805
 4781TIP3    H135834   4.546   0.860  15.435 -1.4226 -1.7839  0.8631
 4781TIP3    H235835   4.419   0.838  15.357 -2.1928  0.8521  1.3194
 4782TIP3   OH235836   6.125   4.441   3.338 -0.6960  0.5490 -0.2637
 4782TIP3    H135837   6.052   4.498   3.364 -1.2243  0.0057 -0.5269
 4782TIP3    H235838   6.093   4.352   3.355  0.2582  0.3387  0.4943
 4783TIP3   OH235839   4.305   0.647  13.525 -0.5161  0.5780  0.2188
 4783TIP3    H135840   4.233   0.598  13.564  0.6377 -1.2896  0.0784
 4783TIP3    H235841   4.377   0.639  13.587  0.5387 -0.2743 -1.0735
 4784TIP3   OH235842   3.586   6.126   3.314  0.1244  0.2381 -0.2123
 4784TIP3    H135843   3.536   6.105   3.235 -0.3184  1.5336 -0.3045
 4784TIP3    H235844   3.670   6.081   3.303  0.8661  2.0407 -2.4035
 4785TIP3   OH235845   5.593   1.051   3.475 -0.4327  0.3431 -0.2457
 4785TIP3    H135846   5.626   0.963   3.455 -2.8102 -0.3288 -1.4424
 4785TIP3    H235847   5.593   1.056   3.570  1.5597 -0.1956 -0.1878
 4786TIP3   OH235848   6.783   6.189  16.456 -0.3122 -0.6615  0.0812
 4786TIP3    H135849   6.717   6.166  16.521 -1.4004 -0.8643 -1.0624
 4786TIP3    H235850   6.840   6.252  16.500 -2.3704  0.9639  0.5146
 4787TIP3   OH235851   1.835   5.985   4.277  0.0118 -0.3563 -0.2527
 4787TIP3    H135852   1.885   6.020   4.350  1.9160  3.1227 -3.0786
 4787TIP3    H235853   1.896   5.928   4.230  0.2559  0.9862 -1.6203
 4788TIP3   OH235854   1.673   4.875  15.487 -0.0470  0.2255  0.4559
 4788TIP3    H135855   1.601   4.924  15.527 -0.5159 -0.5244  0.5510
 4788TIP3    H235856   1.639   4.786  15.479  1.1660 -0.3303  1.2601
 4789TIP3   OH235857   1.988   0.893   1.208  0.1148 -0.2113  0.0111
 4789TIP3    H135858   1.900   0.857   1.197 -0.1050 -0.2803  1.8372
 4789TIP3    H235859   1.987   0.976   1.160 -0.2747 -1.2340 -1.7813
 4790TIP3   OH235860   0.905   3.620   0.180  0.4669  0.1690  0.1467
 4790TIP3    H135861   0.831   3.594   0.236  0.0654  0.8312 -0.0678
 4790TIP3    H235862   0.934   3.704   0.215  0.3875  0.4600 -0.4677
 4791TIP3   OH235863   1.033   5.979   1.958 -0.2082 -0.2891 -0.4583
 4791TIP3    H135864   0.966   5.915   1.981  0.5348 -1.1044 -0.5462
 4791TIP3    H235865   1.060   5.956   1.870 -0.0804  0.2735 -0.5703
 4792TIP3   OH235866   2.136   5.009  12.139  0.2959  0.6334 -0.5687
 4792TIP3    H135867   2.105   5.080  12.195  1.4967  0.0737  0.8585
 4792TIP3    H235868   2.230   5.003  12.158  0.3907 -0.6768 -1.3921
 4793TIP3   OH235869   6.565   0.315   5.081 -0.5491  0.3666  0.0064
 4793TIP3    H135870   6.482   0.340   5.041  0.1539 -0.0847 -1.7698
 4793TIP3    H235871   6.622   0.293   5.007  0.7545 -0.5522  1.2562
 4794TIP3   OH235872   2.213   6.743  16.730 -0.4515 -0.4698  0.5453
 4794TIP3    H135873   2.239   6.661  16.689 -0.9955 -0.2128 -0.3295
 4794TIP3    H235874   2.121   6.730  16.755 -0.7939  0.1508 -0.3513
 4795TIP3   OH235875   1.961   0.687  17.044 -0.0446  0.1856  0.4223
 4795TIP3    H135876   2.040   0.663  17.093 -0.1331 -1.8257 -0.3669
 4795TIP3    H235877   1.889   0.656  17.099 -0.2409  0.3583  0.2642
 4796TIP3   OH235878   3.480   1.725  16.311 -0.1325 -0.1833  0.3146
 4796TIP3    H135879   3.532   1.646  16.326  1.1035  0.4896 -0.2970
 4796TIP3    H235880   3.462   1.759  16.398 -0.4462 -1.0004  0.5687
 4797TIP3   OH235881   2.818   3.613   3.878 -0.6510 -0.7091 -0.2191
 4797TIP3    H135882   2.795   3.536   3.929 -0.5621  0.4431  1.5904
 4797TIP3    H235883   2.746   3.674   3.893  1.0669  0.9807  1.4144
 4798TIP3   OH235884   0.042   0.070   5.761 -0.2345  0.0663 -0.1122
 4798TIP3    H135885  -0.013  -0.008   5.762  1.0085 -0.8363 -0.2048
 4798TIP3    H235886  -0.007   0.135   5.710 -2.3553  0.1537  1.9877
 4799TIP3   OH235887   5.003   5.534  13.616  0.2646 -0.0462  0.2061
 4799TIP3    H135888   5.069   5.467  13.636 -1.0099 -1.7444 -1.0701
 4799TIP3    H235889   4.989   5.579  13.699  0.5433 -1.9442  1.3261
 4800TIP3   OH235890   4.435   3.059  15.446 -1.1429 -0.4363  0.6724
 4800TIP3    H135891   4.388   3.075  15.363 -1.0377 -0.7938  0.5435
 4800TIP3    H235892   4.522   3.096  15.431 -0.8391 -1.2720  0.3078
 4801TIP3   OH235893   1.063   1.841  11.053  0.0727 -0.0744 -0.0291
 4801TIP3    H135894   1.143   1.791  11.034  1.2430  1.5594  0.4079
 4801TIP3    H235895   1.050   1.896  10.976  0.2743  0.7781  0.5284
 4802TIP3   OH235896   0.401   6.405  14.613 -0.1450 -0.9394 -1.0507
 4802TIP3    H135897   0.446   6.489  14.622  0.0123 -1.0808 -0.4869
 4802TIP3    H235898   0.308   6.427  14.611 -0.1775 -0.8681  0.6636
 4803TIP3   OH235899   2.229   1.392   5.150  0.6370 -0.0495  0.1683
 4803TIP3    H135900   2.159   1.379   5.214  2.9083 -0.7790  2.6176
 4803TIP3    H235901   2.201   1.343   5.073 -2.0840  0.6903  0.6261
 4804TIP3   OH235902   4.664   0.182   4.282  0.1890 -0.5011  0.2638
 4804TIP3    H135903   4.648   0.276   4.295 -0.9710 -0.6868  0.2286
 4804TIP3    H235904   4.757   0.171   4.305  0.7156  0.8864 -1.0468
 4805TIP3   OH235905   5.092   5.656  14.458  0.0232 -0.4023  0.0990
 4805TIP3    H135906   5.005   5.694  14.473 -0.4248 -0.6868 -1.6438
 4805TIP3    H235907   5.077   5.588  14.392  1.7326  0.2559 -1.0021
 4806TIP3   OH235908   6.682   3.240   4.517  0.2663  0.1024 -0.0388
 4806TIP3    H135909   6.678   3.172   4.585 -0.7713  1.2263  1.0663
 4806TIP3    H235910   6.773   3.270   4.519  1.2360 -2.5685 -1.9041
 4807TIP3   OH235911   3.009   5.010  14.513 -0.4640 -0.1002 -0.0082
 4807TIP3    H135912   2.926   5.002  14.465  1.1022 -0.8689 -2.6724
 4807TIP3    H235913   3.071   4.956  14.464  2.0226  1.6894  1.0789
 4808TIP3   OH235914   3.047   5.948   1.126 -0.7103  0.1602 -0.4011
 4808TIP3    H135915   3.067   5.857   1.108 -2.8597 -0.0931 -1.6626
 4808TIP3    H235916   3.099   5.998   1.063 -1.1625 -0.3113 -1.1544
 4809TIP3   OH235917   2.849   1.715   4.727  0.6353 -0.1154 -1.0381
 4809TIP3    H135918   2.784   1.751   4.666 -1.4654 -1.0275  0.5908
 4809TIP3    H235919   2.919   1.781   4.729 -1.3795  2.0779 -0.9628
 4810TIP3   OH235920   3.668   5.874  15.859  0.7489  0.3860 -0.0422
 4810TIP3    H135921   3.680   5.969  15.862  0.0026  0.5246 -1.0532
 4810TIP3    H235922   3.578   5.862  15.828  0.9027 -0.6491 -0.1123
 4811TIP3   OH235923   4.969   1.739   0.896 -0.1060 -0.1459 -0.6415
 4811TIP3    H135924   4.886   1.704   0.926 -1.3794  0.8301 -2.8806
 4811TIP3    H235925   4.945   1.812   0.838  2.3196  0.8795 -0.4218
 4812TIP3   OH235926   2.415   4.854  10.985 -0.0140 -0.0920  0.2373
 4812TIP3    H135927   2.497   4.827  10.945  0.2489 -3.1893  2.6382
 4812TIP3    H235928   2.413   4.949  10.976  3.2660 -0.0912 -0.8928
 4813TIP3   OH235929   3.955   0.936   1.742  0.0934  0.1605  0.7144
 4813TIP3    H135930   3.933   1.029   1.730  0.1986  0.1276  0.2410
 4813TIP3    H235931   4.045   0.938   1.776 -0.2152  0.2580  1.5185
 4814TIP3   OH235932   4.967   5.546   2.219  0.0579 -0.3772 -0.1669
 4814TIP3    H135933   5.017   5.612   2.172 -0.0200 -0.6429 -0.6205
 4814TIP3    H235934   5.026   5.518   2.289 -0.2452  0.8017  0.5739
 4815TIP3   OH235935   4.425   3.969   2.416 -0.1330 -0.1939  0.0870
 4815TIP3    H135936   4.435   3.920   2.335 -1.4729  0.9159 -0.7807
 4815TIP3    H235937   4.511   4.007   2.433  0.4122 -1.2766 -0.2560
 4816TIP3   OH235938   0.687   1.755  13.184 -0.2329 -0.2190  0.7131
 4816TIP3    H135939   0.715   1.683  13.241 -2.3175 -0.2230  1.8061
 4816TIP3    H235940   0.675   1.829  13.244  0.6771  0.6844 -0.2137
 4817TIP3   OH235941   4.804   5.941  11.382 -0.0027  0.0129 -0.6589
 4817TIP3    H135942   4.822   6.035  11.391 -1.8552  0.5072 -1.6724
 4817TIP3    H235943   4.884   5.905  11.343  1.0592  0.9989  0.5566
 4818TIP3   OH235944   3.224   5.700   3.221  0.8588  0.0785  0.1225
 4818TIP3    H135945   3.148   5.753   3.196  1.8131  1.3667 -0.1242
 4818TIP3    H235946   3.222   5.700   3.317 -1.2793 -2.6268  0.1376
 4819TIP3   OH235947   3.648   5.065   5.202 -0.2960 -0.1412 -0.0247
 4819TIP3    H135948   3.664   5.079   5.108 -1.5469  2.7289  0.1196
 4819TIP3    H235949   3.581   4.997   5.205  0.2442 -0.7280 -1.2069
 4820TIP3   OH235950   6.641   6.511   4.893  0.2753  0.1788 -0.3946
 4820TIP3    H135951   6.702   6.438   4.884 -0.6923 -0.7205  0.1749
 4820TIP3    H235952   6.697   6.589   4.895  1.3371 -0.5602 -0.7476
 4821TIP3   OH235953   4.618   2.213   0.020  0.1655  0.1042  0.0549
 4821TIP3    H135954   4.645   2.292   0.067  0.5759 -0.1209  0.1977
 4821TIP3    H235955   4.633   2.142   0.082 -0.6957 -0.0271  0.1087
 4822TIP3   OH235956   1.586   6.703  15.241  0.0084  0.3545  0.5667
 4822TIP3    H135957   1.667   6.749  15.261 -0.1694  0.4034  1.2172
 4822TIP3    H235958   1.590   6.685  15.148 -0.7489  3.3147 -0.0889
 4823TIP3   OH235959   4.743   4.745   1.180  0.5668  0.4997  0.1660
 4823TIP3    H135960   4.749   4.759   1.086  0.5038  0.8900  0.2230
 4823TIP3    H235961   4.709   4.655   1.189 -1.3057  1.1507 -0.1946
 4824TIP3   OH235962   0.558   2.950   0.237 -0.0469  0.4669 -0.2818
 4824TIP3    H135963   0.637   2.951   0.290 -0.5154  1.2408  0.4079
 4824TIP3    H235964   0.503   3.019   0.274 -1.4676 -0.7215 -0.1198
 4825TIP3   OH235965   5.068   2.277  16.648 -0.2501  0.2412  0.1628
 4825TIP3    H135966   5.135   2.305  16.585 -1.2358 -0.0586 -1.0355
 4825TIP3    H235967   5.116   2.225  16.713  0.6277 -0.3038 -0.9079
 4826TIP3   OH235968   2.640   6.679   1.358 -0.2534  0.2551  0.0199
 4826TIP3    H135969   2.726   6.715   1.337  0.7847 -0.9653  2.0429
 4826TIP3    H235970   2.591   6.754   1.393  0.4667  0.6491  0.1954
 4827TIP3   OH235971   3.679   4.501  16.852  0.0097  0.0491 -0.3193
 4827TIP3    H135972   3.585   4.486  16.859  0.3317 -1.3042  1.2717
 4827TIP3    H235973   3.718   4.414  16.864  1.4784  0.6515 -0.6557
 4828TIP3   OH235974   2.810   1.025   0.400 -0.9126 -0.2217  0.4185
 4828TIP3    H135975   2.851   0.939   0.407  0.9704  0.5362 -0.8544
 4828TIP3    H235976   2.847   1.063   0.320 -1.9892  1.6247  0.7622
 4829TIP3   OH235977   6.513   3.083   0.435  0.0898 -0.1626  0.2325
 4829TIP3    H135978   6.511   3.058   0.342  1.6112  0.2464  0.0775
 4829TIP3    H235979   6.569   3.016   0.476  0.2703  0.2536  0.6656
 4830TIP3   OH235980   4.214   1.117  14.142  0.5661  0.5007 -0.6645
 4830TIP3    H135981   4.175   1.161  14.067 -0.2621  0.5743 -0.1974
 4830TIP3    H235982   4.147   1.120  14.210  0.9920 -0.3038 -0.1907
 4831TIP3   OH235983   2.756   6.712   6.279 -0.0783 -0.2626 -0.0790
 4831TIP3    H135984   2.785   6.627   6.248 -3.1472 -1.1960 -0.4737
 4831TIP3    H235985   2.753   6.767   6.201 -0.6002 -0.5040 -0.2242
 4832TIP3   OH235986   4.398   4.954  12.168  0.3887 -0.2821  0.4001
 4832TIP3    H135987   4.340   4.879  12.158 -0.8024  0.7033 -0.1441
 4832TIP3    H235988   4.479   4.927  12.124  0.0561 -1.3189  0.4027
 4833TIP3   OH235989   2.183   6.500  16.582  0.1224  0.4846  0.4602
 4833TIP3    H135990   2.212   6.451  16.505  1.7878  0.0307  1.3593
 4833TIP3    H235991   2.089   6.481  16.588  0.3041 -0.7901 -0.5200
 4834TIP3   OH235992   2.153   5.367  16.803 -0.2232 -0.1573 -0.3785
 4834TIP3    H135993   2.217   5.321  16.749  0.0874  0.0299 -0.1746
 4834TIP3    H235994   2.197   5.378  16.888 -1.4048 -2.1896  0.5561
 4835TIP3   OH235995   5.410   6.713  13.426 -0.0994  1.4313  0.7672
 4835TIP3    H135996   5.495   6.695  13.386 -0.7902  0.6943 -0.4111
 4835TIP3    H235997   5.424   6.703  13.520  0.8050  0.0330  0.4862
 4836TIP3   OH235998   0.166   3.892   6.329 -0.5046  0.5919 -0.4196
 4836TIP3    H135999   0.251   3.903   6.286 -0.4311 -0.2498 -0.4891
 4836TIP3    H236000   0.156   3.971   6.382  1.3206 -0.2953  1.3054
 4837TIP3   OH236001   2.448   5.093   1.610  0.3902  0.5257 -0.2055
 4837TIP3    H136002   2.410   5.008   1.634 -1.0116  0.0314 -3.8268
 4837TIP3    H236003   2.538   5.089   1.640 -0.4287 -1.1389  2.1593
 4838TIP3   OH236004   2.899   0.317   6.092  0.2831 -0.8376 -0.1499
 4838TIP3    H136005   2.906   0.408   6.120 -2.8272 -0.8833  1.0068
 4838TIP3    H236006   2.891   0.268   6.174  2.5310 -2.2600 -0.7249
 4839TIP3   OH236007   1.279   0.115   0.103  0.2423  0.1207 -0.2995
 4839TIP3    H136008   1.272   0.185   0.039  0.4789  1.0706  0.7017
 4839TIP3    H236009   1.373   0.106   0.120  0.2622 -0.8575 -0.8686
 4840TIP3   OH236010   4.516   4.988  12.519  0.3123  0.2768  0.1815
 4840TIP3    H136011   4.447   4.923  12.512 -1.7950  2.5965 -1.2766
 4840TIP3    H236012   4.500   5.032  12.602 -0.5519  1.4521 -0.6018
 4841TIP3   OH236013   6.119   0.175   3.528 -0.0547 -0.5866 -0.3671
 4841TIP3    H136014   6.152   0.092   3.494 -0.0235 -0.2953 -1.0594
 4841TIP3    H236015   6.160   0.242   3.472 -1.9847 -0.2356 -1.3811
 4842TIP3   OH236016   4.897   2.611  16.282  0.4249 -0.1162 -0.6535
 4842TIP3    H136017   4.941   2.577  16.204  0.9027 -1.4655  0.2027
 4842TIP3    H236018   4.956   2.590  16.354 -0.7660 -0.3090  0.2792
 4843TIP3   OH236019   1.088   3.577  11.195  0.6208  0.3386 -0.0485
 4843TIP3    H136020   1.138   3.496  11.196 -1.3258 -0.8736  0.5388
 4843TIP3    H236021   1.008   3.557  11.243 -0.1165  2.4574 -0.3352
 4844TIP3   OH236022   5.077   2.824  13.438  0.5402  0.0742 -0.3305
 4844TIP3    H136023   5.033   2.822  13.523  2.6749 -0.2579  0.7868
 4844TIP3    H236024   5.013   2.785  13.377 -0.9939  0.3058  1.1013
 4845TIP3   OH236025   3.013   2.399  15.427  0.0108 -0.2104 -0.1034
 4845TIP3    H136026   2.932   2.371  15.386  0.2963 -0.3083 -0.6128
 4845TIP3    H236027   3.038   2.326  15.484 -0.4057 -0.0599  0.2694
 4846TIP3   OH236028   5.376   3.968  13.877 -0.0680 -0.3387  0.1807
 4846TIP3    H136029   5.368   3.893  13.936 -1.9580  0.3116  0.7902
 4846TIP3    H236030   5.288   3.977  13.839 -0.1478  2.2366  0.9428
 4847TIP3   OH236031   2.192   6.393   0.842 -0.2976  0.0326 -0.5870
 4847TIP3    H136032   2.169   6.356   0.928  1.1221  1.6276  0.5151
 4847TIP3    H236033   2.112   6.386   0.791 -1.5073  0.0910  1.2478
 4848TIP3   OH236034   5.503   5.515   5.332  0.2733  0.1904 -0.2988
 4848TIP3    H136035   5.468   5.603   5.345  0.0282 -0.2345  2.0337
 4848TIP3    H236036   5.586   5.515   5.379  1.3354 -0.1871 -2.1099
 4849TIP3   OH236037   4.661   6.444   0.145  0.3287 -0.1549 -0.2392
 4849TIP3    H136038   4.710   6.430   0.064 -0.8469 -3.0356 -0.5311
 4849TIP3    H236039   4.721   6.494   0.201  2.3597 -0.8212 -1.7402
 4850TIP3   OH236040   3.234   4.095  11.861 -0.2504 -0.6514 -0.0834
 4850TIP3    H136041   3.191   4.012  11.840  0.3870 -1.4748  1.6809
 4850TIP3    H236042   3.301   4.070  11.926  0.7547  1.0642 -0.4410
 4851TIP3   OH236043   0.897   1.577  13.280  0.9675  0.5387  0.3321
 4851TIP3    H136044   0.931   1.566  13.369  2.2735  0.0496 -0.2182
 4851TIP3    H236045   0.933   1.503  13.231 -0.6019  0.2177 -0.3591
 4852TIP3   OH236046   3.327   4.240  16.422  0.4525 -0.4488  0.3096
 4852TIP3    H136047   3.239   4.277  16.422  0.4728 -0.3917 -0.3580
 4852TIP3    H236048   3.336   4.198  16.507 -0.0966 -0.1633  0.5079
 4853TIP3   OH236049   4.374   4.308  14.540 -0.3613  0.4173 -0.3787
 4853TIP3    H136050   4.356   4.346  14.454 -2.4252 -1.6631 -0.9341
 4853TIP3    H236051   4.312   4.351  14.599 -1.8283 -1.0928 -0.7694
 4854TIP3   OH236052   2.346   3.652  11.496 -0.2224  0.4510 -0.1304
 4854TIP3    H136053   2.284   3.593  11.453  0.7439  0.0860 -1.0437
 4854TIP3    H236054   2.385   3.702  11.425  1.0640  0.1721  0.3742
 4855TIP3   OH236055   6.577   0.794  12.690  0.2651  0.2658  0.0136
 4855TIP3    H136056   6.569   0.817  12.782 -0.7924  0.5062 -0.1420
 4855TIP3    H236057   6.489   0.803  12.654  0.4156 -1.0264 -0.7392
 4856TIP3   OH236058   3.219   2.424   4.872  0.1640 -0.1879 -0.2223
 4856TIP3    H136059   3.255   2.389   4.790  0.8957 -1.1370  0.4953
 4856TIP3    H236060   3.281   2.396   4.939  1.0604  2.9306  0.3369
 4857TIP3   OH236061   2.473   4.623   4.212  0.5564 -0.2488  0.0352
 4857TIP3    H136062   2.491   4.654   4.301  4.1353 -0.9215 -0.3992
 4857TIP3    H236063   2.437   4.535   4.225 -0.0003  0.0831  0.8460
 4858TIP3   OH236064   6.547   4.444   3.724  0.6105 -0.2280  0.3128
 4858TIP3    H136065   6.464   4.482   3.694  0.2592 -1.5746 -0.4282
 4858TIP3    H236066   6.565   4.490   3.807  0.0187  1.2964 -0.3729
 4859TIP3   OH236067   3.794   2.572   3.324 -0.2561  0.1928  0.0423
 4859TIP3    H136068   3.766   2.504   3.385 -1.1318  0.7455  0.2712
 4859TIP3    H236069   3.715   2.596   3.276 -0.1863  1.7352  0.6519
 4860TIP3   OH236070   3.430   1.324   3.667 -0.2183  0.3990 -0.2850
 4860TIP3    H136071   3.508   1.275   3.692  0.0815  1.0709  0.0894
 4860TIP3    H236072   3.463   1.407   3.633 -0.7415  0.4500 -0.6888
 4861TIP3   OH236073   4.239   3.569  15.145  0.1447 -0.1225 -0.1987
 4861TIP3    H136074   4.281   3.592  15.229 -0.4818 -0.9571  0.3419
 4861TIP3    H236075   4.220   3.654  15.105  0.1716  0.2915  0.6435
 4862TIP3   OH236076   3.163   4.796  13.427 -0.1405  0.6656 -0.1892
 4862TIP3    H136077   3.145   4.865  13.364  0.6293  0.0403 -1.0968
 4862TIP3    H236078   3.091   4.802  13.490 -0.2447  2.0873 -0.4338
 4863TIP3   OH236079   4.775   4.872   0.901 -0.2738 -0.2287 -0.1367
 4863TIP3    H136080   4.725   4.824   0.836  0.6939 -2.6527  0.8250
 4863TIP3    H236081   4.820   4.940   0.852 -1.3998 -0.5315 -1.6054
 4864TIP3   OH236082   2.799   3.569  12.378 -0.0976  0.1556 -0.7044
 4864TIP3    H136083   2.821   3.536  12.465 -0.6248  0.6008 -0.3979
 4864TIP3    H236084   2.706   3.590  12.383 -0.7225 -2.0938 -2.1173
 4865TIP3   OH236085   0.338   4.680  16.359  0.3824 -0.4987 -0.2677
 4865TIP3    H136086   0.342   4.776  16.364  0.3167 -0.5528  1.0130
 4865TIP3    H236087   0.254   4.657  16.398 -0.7687 -0.9503 -2.9263
 4866TIP3   OH236088   6.549   6.093   3.281  0.2633  0.7887  0.3463
 4866TIP3    H136089   6.467   6.116   3.325 -0.2361 -1.2830  0.5851
 4866TIP3    H236090   6.576   6.011   3.324  0.7034 -0.3347 -1.9927
 4867TIP3   OH236091   3.890   6.046   4.024  0.0437 -0.5815 -0.0061
 4867TIP3    H136092   3.808   6.051   4.073 -1.3197 -1.1752 -2.1427
 4867TIP3    H236093   3.946   5.988   4.075 -1.3453 -1.2232  0.8083
 4868TIP3   OH236094   3.794   1.563  16.421  0.1423  0.0870 -0.6035
 4868TIP3    H136095   3.739   1.546  16.345  1.9338 -2.9122 -1.3029
 4868TIP3    H236096   3.824   1.653  16.409 -0.0057 -0.1752 -3.1949
 4869TIP3   OH236097   0.886   4.047  16.919 -0.1864  0.3584 -0.0146
 4869TIP3    H136098   0.939   4.105  16.865 -2.7471  0.3776 -2.6127
 4869TIP3    H236099   0.801   4.045  16.876 -1.3737 -2.1412  2.2991
 4870TIP3   OH236100   1.936   3.287  15.914  0.4298  0.1056 -0.2102
 4870TIP3    H136101   1.991   3.353  15.872  1.0540 -0.7643 -0.7818
 4870TIP3    H236102   1.847   3.313  15.893  0.7020  0.3202 -1.1207
 4871TIP3   OH236103   1.004   4.377  13.010  0.1128 -0.2836 -0.7407
 4871TIP3    H136104   0.924   4.352  13.057 -0.4381  2.1935 -0.2775
 4871TIP3    H236105   1.002   4.327  12.929 -1.8324 -0.3910 -0.6415
 4872TIP3   OH236106   6.536   3.412  11.644  0.0530  0.0180 -0.0679
 4872TIP3    H136107   6.562   3.483  11.703  0.9583 -1.1129  0.9085
 4872TIP3    H236108   6.609   3.402  11.584  0.6898 -1.2595  0.9018
 4873TIP3   OH236109   1.510   0.823   4.803 -0.0123 -0.0116  0.4229
 4873TIP3    H136110   1.567   0.752   4.774  0.2935  1.1690 -1.9819
 4873TIP3    H236111   1.569   0.883   4.849  0.4277  0.4594 -0.7328
 4874TIP3   OH236112   1.344   0.834   2.754 -0.3328 -0.3466  0.0242
 4874TIP3    H136113   1.381   0.904   2.700  1.4000 -0.9905  0.3414
 4874TIP3    H236114   1.283   0.788   2.696  0.3290 -0.0598 -0.9081
 4875TIP3   OH236115   5.443   3.983   2.735 -0.5424  0.1116 -0.1161
 4875TIP3    H136116   5.535   3.963   2.718 -0.7282 -0.0824 -0.9395
 4875TIP3    H236117   5.397   3.901   2.716 -0.8359  0.0712  0.7483
 4876TIP3   OH236118   0.487   6.339  11.664 -0.5301 -0.1299  0.0514
 4876TIP3    H136119   0.420   6.360  11.599  0.5435 -1.6966 -1.6018
 4876TIP3    H236120   0.465   6.251  11.693  1.0008 -0.7701 -0.7303
 4877TIP3   OH236121   0.019   3.804   1.196 -0.6470 -0.2090 -0.5820
 4877TIP3    H136122   0.086   3.849   1.145 -1.0971 -0.2445 -1.2101
 4877TIP3    H236123   0.064   3.731   1.237 -0.5436 -0.9149 -1.9290
 4878TIP3   OH236124   6.043   5.410  12.426 -0.2114  0.4052  0.3419
 4878TIP3    H136125   5.961   5.375  12.392 -0.2262 -1.2140  1.9600
 4878TIP3    H236126   6.091   5.333  12.458  1.0096  1.5558  1.3508
 4879TIP3   OH236127   0.763   3.554  13.663 -0.0323  0.8403  0.1745
 4879TIP3    H136128   0.808   3.496  13.723 -0.2594  1.3150  0.8071
 4879TIP3    H236129   0.749   3.502  13.584  0.1456  0.1784  0.5825
 4880TIP3   OH236130   3.007   0.495   0.839  0.0925 -0.3870  0.2359
 4880TIP3    H136131   2.980   0.561   0.902  1.5302  1.1631 -0.7036
 4880TIP3    H236132   2.925   0.458   0.806 -0.7146  0.2264  1.5139
 4881TIP3   OH236133   2.383   1.052  13.047  0.6414 -0.4060 -0.3977
 4881TIP3    H136134   2.425   1.089  13.125  0.4295  0.3053 -0.6171
 4881TIP3    H236135   2.308   1.003  13.082  0.8607 -0.5397 -0.1132
 4882TIP3   OH236136   5.779   1.975  16.050 -0.5177  0.1720  0.1405
 4882TIP3    H136137   5.791   2.066  16.077  0.5234  0.6563 -1.8503
 4882TIP3    H236138   5.811   1.972  15.960 -1.1795 -2.0199 -0.0592
 4883TIP3   OH236139   6.160   6.136   4.398  0.1427 -0.1230  0.0936
 4883TIP3    H136140   6.097   6.204   4.419  0.7228  0.8470 -1.2571
 4883TIP3    H236141   6.175   6.091   4.481 -0.8371  0.8909  0.8281
 4884TIP3   OH236142   3.364   2.226  12.167 -0.0508 -0.1170  0.3773
 4884TIP3    H136143   3.400   2.269  12.245  0.5698 -0.4651  0.2765
 4884TIP3    H236144   3.427   2.244  12.098 -0.6577  0.2848 -0.0814
 4885TIP3   OH236145   6.532   2.253   2.209  0.0307 -0.4061 -0.1635
 4885TIP3    H136146   6.619   2.277   2.177  1.0383 -1.9425  1.3672
 4885TIP3    H236147   6.486   2.221   2.131  1.3210 -0.9309 -0.7188
 4886TIP3   OH236148   5.820   1.666   4.189  0.0556  0.3924  0.1196
 4886TIP3    H136149   5.784   1.589   4.146 -0.7843  1.7081 -1.5964
 4886TIP3    H236150   5.749   1.695   4.247  0.3765 -0.1116  0.7749
 4887TIP3   OH236151   1.626   5.337  11.638  0.7988  0.8460  0.3057
 4887TIP3    H136152   1.718   5.323  11.656  0.0382 -1.1352  2.8835
 4887TIP3    H236153   1.591   5.377  11.717 -0.3532  2.7180 -1.0887
 4888TIP3   OH236154   3.931   5.550   5.828  0.5301 -0.2836 -0.0877
 4888TIP3    H136155   3.961   5.468   5.787  1.0342  0.7646 -1.9044
 4888TIP3    H236156   3.846   5.528   5.867  1.5556 -2.1575  1.1807
 4889TIP3   OH236157   1.013   3.873  11.741  0.4449  0.6250  0.5828
 4889TIP3    H136158   0.931   3.876  11.692  0.6592  1.2250  0.2477
 4889TIP3    H236159   1.013   3.787  11.783  0.8577 -0.4328 -1.5163
 4890TIP3   OH236160   0.495   0.224   2.038  0.2579 -0.4462  0.0004
 4890TIP3    H136161   0.563   0.170   2.079  0.9122  0.5415  0.2318
 4890TIP3    H236162   0.530   0.313   2.041 -0.5258 -0.0961 -0.9807
 4891TIP3   OH236163   4.928   2.919  15.458 -0.4271 -0.4604 -0.0541
 4891TIP3    H136164   4.983   2.851  15.497  0.0329  0.0031  0.1144
 4891TIP3    H236165   4.869   2.872  15.399 -1.7056 -1.3054  1.8097
 4892TIP3   OH236166   5.386   4.583  13.113 -0.7393 -0.1109  0.5814
 4892TIP3    H136167   5.453   4.515  13.116 -1.3036 -0.6528  1.3978
 4892TIP3    H236168   5.332   4.559  13.037  2.3934  2.7086 -2.6941
 4893TIP3   OH236169   2.044   0.302  16.486 -0.6227 -0.5630  0.0103
 4893TIP3    H136170   1.981   0.304  16.558 -0.6613  0.8446 -0.0470
 4893TIP3    H236171   1.996   0.261  16.414 -0.0592 -3.5117  1.2474
 4894TIP3   OH236172   1.347   4.173   2.214  0.2171  0.0578  0.0568
 4894TIP3    H136173   1.370   4.242   2.153  0.5424  0.9759  1.1879
 4894TIP3    H236174   1.336   4.095   2.160 -1.3662  1.2449 -1.4191
 4895TIP3   OH236175   4.140   3.998  11.776  0.0333 -0.1023  0.4530
 4895TIP3    H136176   4.187   4.065  11.826 -1.3502  1.1890  0.0506
 4895TIP3    H236177   4.192   3.989  11.696  1.1710 -0.7718  1.2473
 4896TIP3   OH236178   0.363   1.265  15.494 -0.8309 -0.4360 -0.3740
 4896TIP3    H136179   0.452   1.300  15.501 -0.8416 -0.3853 -0.4911
 4896TIP3    H236180   0.335   1.252  15.585  0.0336 -2.3298 -0.3432
 4897TIP3   OH236181   6.708   3.584  13.872 -0.5793 -0.0179  0.3091
 4897TIP3    H136182   6.795   3.568  13.838 -1.2052 -0.6389 -1.0325
 4897TIP3    H236183   6.681   3.666  13.832 -0.6748  0.1036  0.6147
 4898TIP3   OH236184   2.221   4.494  13.740  0.2081 -0.2620 -0.0845
 4898TIP3    H136185   2.226   4.570  13.682 -0.2145  0.8324  1.2891
 4898TIP3    H236186   2.200   4.421  13.682  0.4776  0.6921 -1.4029
 4899TIP3   OH236187   5.608   0.307  14.666  0.0698  0.2876 -0.1618
 4899TIP3    H136188   5.553   0.327  14.590  2.2986 -1.0238 -2.2205
 4899TIP3    H236189   5.671   0.379  14.670 -0.1988  0.4818  0.6107
 4900TIP3   OH236190   4.619   2.225   4.218  0.4550 -0.0746  0.0987
 4900TIP3    H136191   4.625   2.160   4.148 -0.7092 -0.7545  0.6309
 4900TIP3    H236192   4.596   2.175   4.296  0.7626  0.8189  0.7742
 4901TIP3   OH236193   0.452   1.622   1.404  0.6032  0.2533  0.1820
 4901TIP3    H136194   0.537   1.607   1.363  0.0858  2.4855 -1.8446
 4901TIP3    H236195   0.471   1.631   1.497  2.3283 -1.0226 -0.0162
 4902TIP3   OH236196   1.859   6.363  11.690  0.5569 -0.0281 -0.2961
 4902TIP3    H136197   1.885   6.454  11.686 -2.3299  0.8169 -1.5266
 4902TIP3    H236198   1.921   6.322  11.750  0.3867  3.2534  2.2224
 4903TIP3   OH236199   2.628   6.406  14.541 -0.7818  0.5283 -0.4405
 4903TIP3    H136200   2.711   6.365  14.566 -0.1425  2.1369  0.1561
 4903TIP3    H236201   2.650   6.461  14.466 -1.3951  0.6428 -0.5412
 4904TIP3   OH236202   1.042   4.542  16.764 -0.1972  0.4530  0.2390
 4904TIP3    H136203   1.035   4.472  16.699 -0.4126 -0.0767  0.8211
 4904TIP3    H236204   1.133   4.572  16.758 -0.0536 -0.0057  0.1110
 4905TIP3   OH236205   1.116   6.077   1.357  0.2342 -0.4446 -0.6682
 4905TIP3    H136206   1.191   6.018   1.359 -0.2101 -1.0439 -1.5054
 4905TIP3    H236207   1.040   6.019   1.345 -0.3068  0.1984 -0.3907
 4906TIP3   OH236208   2.686   3.794  16.212  0.1193  0.5740  0.0081
 4906TIP3    H136209   2.685   3.698  16.217  3.2885  0.5436  1.0383
 4906TIP3    H236210   2.645   3.822  16.294  2.5120  0.0459  1.4389
 4907TIP3   OH236211   5.180   3.911   5.403  0.0975  0.4418 -0.2002
 4907TIP3    H136212   5.090   3.880   5.414  0.5100 -0.6836  0.1732
 4907TIP3    H236213   5.208   3.936   5.491  0.2567  0.4820 -0.2618
 4908TIP3   OH236214   0.743   4.240   1.609 -0.1393  0.5059  0.3537
 4908TIP3    H136215   0.802   4.187   1.555 -0.8634 -0.0791  0.1320
 4908TIP3    H236216   0.794   4.318   1.630  0.0014  0.9638 -1.5578
 4909TIP3   OH236217   3.038   1.995   5.143  0.1290  0.0065 -0.4952
 4909TIP3    H136218   3.133   1.997   5.151  0.1207  1.4962 -0.8093
 4909TIP3    H236219   3.015   2.072   5.092 -1.2867 -0.1015 -0.0573
 4910TIP3   OH236220   4.125   3.124   3.517 -0.0663 -0.6125  0.1903
 4910TIP3    H136221   4.050   3.078   3.479  0.5647 -2.4375  1.0794
 4910TIP3    H236222   4.129   3.093   3.607  1.9980 -0.8842  0.0372
 4911TIP3   OH236223   6.662   0.769   1.420  0.5658 -0.3386  0.3841
 4911TIP3    H136224   6.747   0.763   1.377  1.2621  0.5200  1.5920
 4911TIP3    H236225   6.678   0.822   1.498 -1.0542 -0.2644  0.6994
 4912TIP3   OH236226   1.243   5.077  11.186 -0.2400 -0.1026 -0.6677
 4912TIP3    H136227   1.154   5.073  11.150  0.1872 -1.3963 -1.6271
 4912TIP3    H236228   1.298   5.102  11.112  0.2698  0.1778 -0.1977
 4913TIP3   OH236229   5.853   3.532  16.856  0.2233 -0.4089  0.4672
 4913TIP3    H136230   5.801   3.596  16.907 -2.6342 -1.3499 -1.1348
 4913TIP3    H236231   5.907   3.586  16.798 -2.0302  0.6253 -0.7429
 4914TIP3   OH236232   1.244   6.458  17.244 -0.2678  0.1846  0.1778
 4914TIP3    H136233   1.204   6.499  17.321 -4.3721 -0.5878 -1.3770
 4914TIP3    H236234   1.196   6.376  17.233  2.9510 -1.6271 -0.9408
 4915TIP3   OH236235   5.247   0.230   1.578  0.7977 -0.1991 -0.1114
 4915TIP3    H136236   5.309   0.184   1.521  0.9526  0.4528 -0.4770
 4915TIP3    H236237   5.272   0.322   1.571  1.3287 -0.2108  1.6698
 4916TIP3   OH236238   1.902   5.496   4.919 -0.0679  0.1090 -0.3151
 4916TIP3    H136239   1.936   5.520   4.832 -1.1123 -1.4352 -1.1675
 4916TIP3    H236240   1.854   5.574   4.947 -0.9478  0.1313 -1.7791
 4917TIP3   OH236241   3.733   6.499  16.755 -0.5155 -0.3062  0.5575
 4917TIP3    H136242   3.639   6.508  16.744 -0.6623 -1.0894  1.1040
 4917TIP3    H236243   3.746   6.407  16.778  0.4752 -0.4384 -0.4577
 4918TIP3   OH236244   1.752   3.391   4.586 -0.3952 -0.2786 -0.2248
 4918TIP3    H136245   1.772   3.331   4.514 -0.4380 -0.0413 -0.4307
 4918TIP3    H236246   1.668   3.360   4.619 -1.1566  0.6066 -1.3087
 4919TIP3   OH236247   1.483   3.125  16.193 -0.2141  0.0954 -0.3169
 4919TIP3    H136248   1.418   3.194  16.209 -0.1131 -0.5493  3.2672
 4919TIP3    H236249   1.437   3.044  16.214  0.6814 -0.6804 -1.2967
 4920TIP3   OH236250   5.190   0.331   1.244  0.0449  0.3836  0.1998
 4920TIP3    H136251   5.262   0.293   1.294 -0.2319 -1.2475 -0.6118
 4920TIP3    H236252   5.157   0.259   1.190 -1.8371  1.2450  0.1521
 4921TIP3   OH236253   5.270   6.098  10.843 -0.1225 -0.2459  0.2158
 4921TIP3    H136254   5.340   6.145  10.800  0.6996 -0.3557  1.4123
 4921TIP3    H236255   5.216   6.166  10.884  1.0081 -0.3220  1.8593
 4922TIP3   OH236256   2.630   5.223  11.731 -0.7003 -0.8701 -0.1483
 4922TIP3    H136257   2.642   5.261  11.818  0.1079 -2.0814  0.2830
 4922TIP3    H236258   2.709   5.244  11.683 -1.2285 -0.0341 -0.6647
 4923TIP3   OH236259   1.358   0.747   5.549  0.2770 -0.4870 -0.0044
 4923TIP3    H136260   1.319   0.666   5.515  0.9831 -0.0263 -1.9470
 4923TIP3    H236261   1.444   0.720   5.580  0.6445 -0.4212 -0.9599
 4924TIP3   OH236262   0.328   4.644   2.196 -0.0518  0.0685  0.1327
 4924TIP3    H136263   0.289   4.713   2.250  0.3215  3.1634 -3.2809
 4924TIP3    H236264   0.351   4.689   2.114  4.6055 -3.0792 -0.4709
 4925TIP3   OH236265   0.575   5.785   4.700  0.5379  0.2282 -0.1461
 4925TIP3    H136266   0.611   5.836   4.772  1.3778  1.0042 -1.0945
 4925TIP3    H236267   0.648   5.731   4.670  0.1445 -0.2228 -0.2986
 4926TIP3   OH236268   1.919   3.533   3.598  0.1849 -0.0402 -0.3575
 4926TIP3    H136269   1.864   3.589   3.544 -1.3861 -1.6661 -0.4817
 4926TIP3    H236270   1.928   3.452   3.548  0.4150 -0.7937  0.8785
 4927TIP3   OH236271   0.376   2.989  16.674 -0.0718  0.0253 -0.4508
 4927TIP3    H136272   0.302   3.049  16.668 -0.4028 -0.4466 -1.2049
 4927TIP3    H236273   0.342   2.905  16.643  0.2068 -0.7226  1.1943
 4928TIP3   OH236274   3.009   4.809   1.498  0.4658 -0.2816 -0.2083
 4928TIP3    H136275   2.939   4.802   1.562 -0.5687  2.8072 -0.9298
 4928TIP3    H236276   3.090   4.801   1.549 -0.3600 -3.0644  0.7203
 4929TIP3   OH236277   4.909   3.531  12.199 -0.2029  0.6094 -0.1093
 4929TIP3    H136278   4.946   3.599  12.255  0.2952  0.3009 -0.0641
 4929TIP3    H236279   4.935   3.555  12.110 -0.1443  0.5503 -0.1066
 4930TIP3   OH236280   2.943   1.156   4.468 -0.0190  0.5404 -0.2719
 4930TIP3    H136281   2.854   1.164   4.433 -0.7246  0.8630  1.5747
 4930TIP3    H236282   2.937   1.189   4.557  2.2408  1.7601 -0.5360
 4931TIP3   OH236283   5.869   4.201  14.004 -0.2101  0.3579 -1.1050
 4931TIP3    H136284   5.792   4.249  14.035 -0.4543 -1.3286  1.0601
 4931TIP3    H236285   5.934   4.214  14.073  0.4554 -0.5770 -1.5487
 4932TIP3   OH236286   0.393   1.095  13.848 -0.0314 -0.4609 -0.6643
 4932TIP3    H136287   0.408   1.051  13.932 -0.1984 -2.7717 -1.8083
 4932TIP3    H236288   0.315   1.149  13.864  1.6248  1.3611  1.4683
 4933TIP3   OH236289   0.969   2.594  11.448 -0.1728 -0.2220  0.1123
 4933TIP3    H136290   1.060   2.567  11.457  0.3227  0.6956 -1.9013
 4933TIP3    H236291   0.918   2.517  11.476  1.1833 -0.3809  2.2614
 4934TIP3   OH236292   1.074   0.286   4.584  0.1267 -0.1590  0.3338
 4934TIP3    H136293   1.006   0.280   4.517 -0.2804  4.8219  0.1350
 4934TIP3    H236294   1.155   0.294   4.534  0.1975 -0.0939  0.4580
 4935TIP3   OH236295   0.259   4.692  13.710 -0.3453 -0.2508 -0.0935
 4935TIP3    H136296   0.179   4.642  13.727 -1.6560  2.3746  1.7434
 4935TIP3    H236297   0.247   4.774  13.757  2.7692  0.8664 -1.1051
 4936TIP3   OH236298   2.502   1.159  14.924  0.4241 -0.1100 -0.3772
 4936TIP3    H136299   2.462   1.128  14.842 -0.1162 -0.0311 -0.1493
 4936TIP3    H236300   2.596   1.151  14.909  0.3056 -1.6652 -0.3973
 4937TIP3   OH236301   4.271   3.972  16.340  0.1995 -0.1787 -0.2559
 4937TIP3    H136302   4.205   3.914  16.302  0.7125  0.1775 -1.7509
 4937TIP3    H236303   4.232   4.060  16.331 -0.1192 -0.1916  1.0093
 4938TIP3   OH236304   1.237   0.172   4.804 -0.0431  0.0984 -0.5525
 4938TIP3    H136305   1.184   0.153   4.881 -0.3600 -1.9432 -1.2331
 4938TIP3    H236306   1.174   0.180   4.732  0.3107  1.1719 -0.7580
 4939TIP3   OH236307   5.387   6.139   0.539 -0.6990 -0.3620  0.0227
 4939TIP3    H136308   5.430   6.182   0.613 -1.3027  0.8863 -0.3441
 4939TIP3    H236309   5.294   6.145   0.559 -0.9485  1.2665 -1.5342
 4940TIP3   OH236310   1.870   2.689  12.527 -0.7208  0.1013 -0.4308
 4940TIP3    H136311   1.856   2.773  12.570  2.3219 -0.4844  1.9271
 4940TIP3    H236312   1.964   2.687  12.508 -1.1515 -1.7896 -2.6233
 4941TIP3   OH236313   3.771   5.511   2.790 -1.3727 -0.2526 -0.0680
 4941TIP3    H136314   3.733   5.439   2.739 -0.6521  0.6343 -1.8701
 4941TIP3    H236315   3.846   5.471   2.835  1.0842  0.0522 -3.6757
 4942TIP3   OH236316   0.364   0.138   5.005 -0.1723 -0.3868  0.0724
 4942TIP3    H136317   0.390   0.049   5.031  1.7891  0.4469  1.0423
 4942TIP3    H236318   0.388   0.143   4.912 -0.8079 -1.0603 -0.1319
 4943TIP3   OH236319   1.368   5.851   0.718  0.2448 -0.1121  0.1029
 4943TIP3    H136320   1.310   5.870   0.792  0.1516  1.1349 -0.2731
 4943TIP3    H236321   1.324   5.890   0.643  0.7383 -0.6722 -0.4826
 4944TIP3   OH236322   2.697   5.782   0.282  0.0622  0.2075 -0.1222
 4944TIP3    H136323   2.744   5.772   0.199  1.4089  3.3528  0.1946
 4944TIP3    H236324   2.753   5.739   0.347  0.0253 -0.4398 -0.5187
 4945TIP3   OH236325   5.558   4.201  11.076 -0.3367 -0.1137  0.1300
 4945TIP3    H136326   5.607   4.205  10.994 -0.0193  0.9348  0.3647
 4945TIP3    H236327   5.490   4.267  11.065  0.8266  1.3212  1.4359
 4946TIP3   OH236328   6.044   2.892  14.030  0.2954  0.5001  0.1288
 4946TIP3    H136329   6.120   2.894  14.088 -1.3725  0.5390  2.3420
 4946TIP3    H236330   6.063   2.820  13.969  2.7600  1.4587 -0.3134
 4947TIP3   OH236331   5.044   4.953  16.143  0.5671  0.0305 -0.0828
 4947TIP3    H136332   5.122   4.930  16.195 -0.0797 -1.4930  0.2507
 4947TIP3    H236333   4.990   4.874  16.146 -2.8343  2.3162  2.9735
 4948TIP3   OH236334   6.244   2.141  15.733 -0.2856 -0.1742  0.1770
 4948TIP3    H136335   6.188   2.218  15.721  0.3661  0.0770 -1.4395
 4948TIP3    H236336   6.246   2.099  15.647  0.0443 -1.5343  0.8420
 4949TIP3   OH236337   1.814   3.361  17.281  0.4125 -0.0685  0.7153
 4949TIP3    H136338   1.754   3.320  17.219  2.1746 -1.7265  0.0698
 4949TIP3    H236339   1.758   3.391  17.353 -1.3060 -0.6134 -0.3732
 4950TIP3   OH236340   5.968   1.179   4.067 -0.0021  0.3324  0.3493
 4950TIP3    H136341   6.034   1.245   4.045 -0.0811  0.3904  0.2882
 4950TIP3    H236342   5.962   1.125   3.989  0.9371 -0.4757  0.8294
 4951TIP3   OH236343   0.113   5.148  10.633 -0.2655  0.2135 -0.0783
 4951TIP3    H136344   0.078   5.165  10.546  0.2927 -1.5500 -0.6628
 4951TIP3    H236345   0.208   5.155  10.622 -0.2599  1.6351  0.7601
 4952TIP3   OH236346   1.199   2.566  14.443 -0.0205 -0.4569 -0.1926
 4952TIP3    H136347   1.182   2.636  14.507 -0.0934 -0.8029  0.1684
 4952TIP3    H236348   1.292   2.575  14.423 -0.6997  1.7912 -2.5914
 4953TIP3   OH236349   3.852   0.650  10.823  0.1870  1.0561 -0.2073
 4953TIP3    H136350   3.870   0.640  10.917  3.6201  2.7491 -0.6196
 4953TIP3    H236351   3.818   0.739  10.815 -0.2715  0.8488 -0.5769
 4954TIP3   OH236352   5.896   0.017   5.737 -0.2881 -0.8499 -0.7098
 4954TIP3    H136353   5.949   0.017   5.816 -0.5308  0.6809 -0.5296
 4954TIP3    H236354   5.819  -0.036   5.759 -1.1567  0.9133  0.6664
 4955TIP3   OH236355   6.722   4.249  10.629  0.2432  0.4020 -0.2070
 4955TIP3    H136356   6.673   4.179  10.587  0.9763  0.9102 -1.9332
 4955TIP3    H236357   6.749   4.307  10.558  0.2783  2.0598  1.1087
 4956TIP3   OH236358   0.183   2.427  13.010  0.4433  0.8304 -0.2668
 4956TIP3    H136359   0.269   2.388  13.025 -0.6916 -0.7711  2.4625
 4956TIP3    H236360   0.173   2.489  13.083 -1.0306  0.4140 -0.1056
 4957TIP3   OH236361   5.739   6.180  12.701  0.1121 -0.4522  0.2023
 4957TIP3    H136362   5.823   6.226  12.700 -0.5365  0.7379 -0.8130
 4957TIP3    H236363   5.718   6.167  12.609 -0.7352 -0.8884  0.4512
 4958TIP3   OH236364   6.534   3.519   0.970  0.0965 -0.2868 -0.0799
 4958TIP3    H136365   6.462   3.458   0.954 -0.0859 -0.2172  0.4731
 4958TIP3    H236366   6.613   3.467   0.956 -0.0491 -0.0854 -1.7742
 4959TIP3   OH236367   0.635   1.845   5.299  0.5643  1.2052  0.1718
 4959TIP3    H136368   0.671   1.925   5.260  0.0074  1.2578 -0.2395
 4959TIP3    H236369   0.705   1.780   5.290  0.5695  1.3168 -0.6053
 4960TIP3   OH236370   6.341   3.324  14.622  0.0355 -0.0483  0.7110
 4960TIP3    H136371   6.352   3.418  14.640 -1.9067  0.4371 -0.5118
 4960TIP3    H236372   6.327   3.320  14.528  0.1538 -1.5932  0.7520
 4961TIP3   OH236373   3.507   2.697   4.611  0.5005  0.1599  0.1495
 4961TIP3    H136374   3.514   2.611   4.570 -0.1620  1.1720 -2.1427
 4961TIP3    H236375   3.464   2.680   4.695 -3.1096 -1.3189 -1.8848
 4962TIP3   OH236376   5.116   2.036   5.336  0.0951 -0.7993  0.5688
 4962TIP3    H136377   5.070   2.117   5.313 -0.3517 -0.3756  2.8292
 4962TIP3    H236378   5.200   2.065   5.371  1.3404 -1.4908 -1.7617
 4963TIP3   OH236379   5.697   2.620   5.482 -0.3759 -0.1737  0.2459
 4963TIP3    H136380   5.725   2.705   5.517  1.2305 -0.6015  0.0603
 4963TIP3    H236381   5.739   2.615   5.395 -2.1742 -0.2559 -0.6357
 4964TIP3   OH236382   0.627   2.123  11.696 -0.6581 -0.3141  0.2133
 4964TIP3    H136383   0.609   2.201  11.749 -0.6730  0.2139 -0.5670
 4964TIP3    H236384   0.666   2.061  11.758  1.1462  0.9980  0.4210
 4965TIP3   OH236385   3.296   0.562   6.150 -0.8292 -0.1071 -0.5560
 4965TIP3    H136386   3.295   0.648   6.106 -0.2407  1.3832  2.2315
 4965TIP3    H236387   3.385   0.530   6.138 -0.6719  0.2957 -0.4760
 4966TIP3   OH236388   0.367   1.391  16.101 -0.1980 -0.0227 -0.4960
 4966TIP3    H136389   0.346   1.448  16.026 -0.5104 -0.1664 -0.5153
 4966TIP3    H236390   0.434   1.440  16.149 -0.2274  0.2144 -0.6940
 4967TIP3   OH236391   3.722   3.559  12.285  0.3671 -0.6327  0.0332
 4967TIP3    H136392   3.664   3.488  12.256  1.4952 -1.5623  0.0301
 4967TIP3    H236393   3.725   3.619  12.210 -1.8692  0.2810  0.6108
 4968TIP3   OH236394   0.177   4.610  15.693 -0.2222  0.0270 -0.2811
 4968TIP3    H136395   0.246   4.626  15.629 -1.6932  0.2782 -1.8283
 4968TIP3    H236396   0.179   4.686  15.751 -0.2895  0.8164 -1.3150
 4969TIP3   OH236397   2.068   1.244  11.280  0.6130  0.4508 -0.5800
 4969TIP3    H136398   2.068   1.189  11.358 -0.9558 -0.7484 -1.3925
 4969TIP3    H236399   2.104   1.328  11.309  0.5410 -0.1512  1.2880
 4970TIP3   OH236400   2.381   1.559   3.562  0.7018 -0.1016 -0.0195
 4970TIP3    H136401   2.426   1.640   3.540 -1.4273  0.5455 -2.2555
 4970TIP3    H236402   2.321   1.584   3.633 -0.7415  0.5965 -1.4423
 4971TIP3   OH236403   1.123   4.804   0.629 -0.3075 -0.2407 -0.0046
 4971TIP3    H136404   1.094   4.794   0.538 -0.7551  0.1748  0.0896
 4971TIP3    H236405   1.155   4.718   0.654 -0.1396 -0.3432 -0.5769
 4972TIP3   OH236406   2.896   2.563  12.462  0.1128 -0.3328 -0.2875
 4972TIP3    H136407   2.840   2.515  12.401 -1.6571  0.1962  0.9048
 4972TIP3    H236408   2.878   2.655  12.444 -0.4951 -0.1762  1.1105
 4973TIP3   OH236409   0.333   4.596   4.529  0.3919 -0.7471 -0.2823
 4973TIP3    H136410   0.348   4.523   4.589  0.2780  0.6403  1.4800
 4973TIP3    H236411   0.412   4.651   4.539 -0.1396  0.0713 -0.5330
 4974TIP3   OH236412   1.302   5.545  10.736  0.0856 -0.2059 -0.0766
 4974TIP3    H136413   1.319   5.462  10.691 -1.1132 -0.7497  0.4664
 4974TIP3    H236414   1.237   5.524  10.803  0.0334  1.1008  0.3053
 4975TIP3   OH236415   0.397   4.270   0.236  0.0607 -0.1206 -0.8294
 4975TIP3    H136416   0.382   4.279   0.330 -1.0221  0.0245 -1.0139
 4975TIP3    H236417   0.459   4.197   0.229 -0.4580 -0.6463 -0.0487
 4976TIP3   OH236418   5.093   1.259  16.369 -0.0413 -0.4521 -0.3674
 4976TIP3    H136419   5.067   1.170  16.346 -1.6471 -0.2832  0.7219
 4976TIP3    H236420   5.112   1.254  16.463 -2.6801  0.9054  0.2813
 4977TIP3   OH236421   0.570   0.267   0.017  0.3920  0.6775  0.3842
 4977TIP3    H136422   0.535   0.281   0.105  0.7956 -1.2021  0.8743
 4977TIP3    H236423   0.505   0.305  -0.042  0.0987  1.9004  1.4897
 4978TIP3   OH236424   4.081   3.851  10.556  0.2924  0.2208 -0.4400
 4978TIP3    H136425   4.003   3.798  10.574 -0.7400  0.8548 -2.9409
 4978TIP3    H236426   4.148   3.814  10.614 -2.1425  0.4628  2.7047
 4979TIP3   OH236427   4.234   5.191   2.111 -0.0260 -0.5375 -0.2682
 4979TIP3    H136428   4.311   5.195   2.055  0.5269 -0.7031  0.4728
 4979TIP3    H236429   4.162   5.167   2.052  0.7354 -1.7378 -0.7360
 4980TIP3   OH236430   2.824   0.188  11.914  0.2045  0.2244  0.0182
 4980TIP3    H136431   2.769   0.142  11.851  0.2737 -0.5190  0.4904
 4980TIP3    H236432   2.818   0.135  11.994  0.8733  0.6385  0.3464
 4981TIP3   OH236433   0.467   5.329   0.176 -0.3370 -0.5532 -0.2771
 4981TIP3    H136434   0.400   5.345   0.244  0.2877  2.4810 -0.2937
 4981TIP3    H236435   0.540   5.385   0.202  0.9661 -1.4396 -2.0012
 4982TIP3   OH236436   5.006   0.042  11.147  0.4445 -0.1324  0.0680
 4982TIP3    H136437   4.954  -0.027  11.106  0.3908 -0.4430  0.6460
 4982TIP3    H236438   5.075   0.062  11.085 -0.9581  1.0108 -1.1768
 4983TIP3   OH236439   2.829   4.802  13.714 -0.3367 -0.3656  0.1472
 4983TIP3    H136440   2.886   4.772  13.785 -1.4070 -1.5439  0.5458
 4983TIP3    H236441   2.803   4.890  13.740  0.0547 -0.4280  0.7540
 4984TIP3   OH236442   6.803   1.545  15.894  0.0143 -0.1748 -0.0777
 4984TIP3    H136443   6.777   1.481  15.960 -0.3062  0.1174  0.0791
 4984TIP3    H236444   6.768   1.510  15.812 -0.2280 -0.1590  0.0189
 4985TIP3   OH236445   1.544   0.937   6.889 -0.3935  0.1320 -0.1593
 4985TIP3    H136446   1.490   0.975   6.820 -0.9408  1.5062  0.9991
 4985TIP3    H236447   1.634   0.953   6.860 -0.5829 -1.1428 -1.5370
 4986TIP3   OH236448   4.997   5.926  13.821  0.2276 -0.3978 -0.4494
 4986TIP3    H136449   5.021   5.834  13.826 -0.7054 -0.5993  0.6213
 4986TIP3    H236450   4.985   5.953  13.912  0.6130  0.8231 -0.7400
 4987TIP3   OH236451   5.562   5.440   5.049 -0.4703 -0.4942 -0.2506
 4987TIP3    H136452   5.489   5.451   5.110 -0.7521  1.7162 -0.9160
 4987TIP3    H236453   5.640   5.444   5.104 -0.6925  2.2425 -0.0436
 4988TIP3   OH236454   4.126   2.234   1.045 -0.1699 -0.2108 -0.1753
 4988TIP3    H136455   4.189   2.260   1.112 -0.6221  0.3827  0.0284
 4988TIP3    H236456   4.086   2.316   1.017 -0.0982 -0.4724 -1.0594
 4989TIP3   OH236457   0.005   3.821  15.428  0.2673 -0.4845  0.1503
 4989TIP3    H136458   0.089   3.800  15.470  1.2721  0.1269 -1.4845
 4989TIP3    H236459  -0.034   3.887  15.484  2.6251  1.9830 -0.9762
 4990TIP3   OH236460   6.069   1.046  11.438  0.0478  0.0332 -0.4335
 4990TIP3    H136461   6.124   1.101  11.493  0.0803 -1.3246  0.8967
 4990TIP3    H236462   5.990   1.098  11.424  0.0465  0.4039  0.8820
 4991TIP3   OH236463   6.229   0.551  14.528 -0.5750 -0.6816 -0.0552
 4991TIP3    H136464   6.254   0.639  14.556 -0.5471 -0.3797 -1.0300
 4991TIP3    H236465   6.246   0.549  14.434 -0.6706 -1.6952 -0.0618
 4992TIP3   OH236466   0.043   3.953   1.458  0.1131  0.6663  0.2047
 4992TIP3    H136467   0.041   3.927   1.366  0.9270  0.0300  0.3619
 4992TIP3    H236468   0.065   3.873   1.505 -0.0188  1.0565  0.9283
 4993TIP3   OH236469   5.797   5.513   0.159 -0.1737  0.0221 -0.8233
 4993TIP3    H136470   5.892   5.505   0.156 -0.1377  0.6756 -1.2990
 4993TIP3    H236471   5.769   5.504   0.068 -0.6911 -1.6794 -0.5228
 4994TIP3   OH236472   1.440   0.087  13.254  0.1796 -0.3246  0.8130
 4994TIP3    H136473   1.535   0.077  13.256  0.4109  1.6322  0.2879
 4994TIP3    H236474   1.415   0.089  13.346  0.6721 -0.5476  0.9548
 4995TIP3   OH236475   6.652   1.824  11.488 -0.1543  0.6658  0.2601
 4995TIP3    H136476   6.730   1.789  11.446  0.6359 -0.3638  2.5384
 4995TIP3    H236477   6.590   1.751  11.490 -0.9325  1.2667 -0.8495
 4996TIP3   OH236478   1.814   1.305  12.209 -0.5672 -0.3070  0.4164
 4996TIP3    H136479   1.802   1.245  12.136  0.0183 -1.1398  0.9917
 4996TIP3    H236480   1.747   1.280  12.273 -0.2505 -0.4236  0.7048
 4997TIP3   OH236481   4.182   3.983   2.897 -0.0622 -0.3444  0.0442
 4997TIP3    H136482   4.183   3.897   2.938 -3.0014 -0.4420  0.0236
 4997TIP3    H236483   4.209   3.966   2.806  0.0238 -1.1334  0.2113
 4998TIP3   OH236484   3.951   5.132   6.036 -0.0491  0.3803 -0.2216
 4998TIP3    H136485   3.972   5.225   6.040  0.7284  0.2179 -0.4489
 4998TIP3    H236486   3.980   5.097   6.120  1.3193  0.0127 -0.8356
 4999TIP3   OH236487   2.023   6.135  14.193  0.2693  0.1647 -0.6991
 4999TIP3    H136488   2.014   6.044  14.223  0.7643  0.1870 -0.4904
 4999TIP3    H236489   1.936   6.156  14.157  0.4917 -0.7816 -1.8415
 5000TIP3   OH236490   3.471   6.611  13.798 -0.1356  0.3257 -0.3172
 5000TIP3    H136491   3.501   6.592  13.887 -2.6284 -0.1962  0.4541
 5000TIP3    H236492   3.550   6.606  13.744  1.2304 -0.4030  1.7068
 5001TIP3   OH236493   5.871   1.025   0.116 -0.0304 -0.0940  0.5811
 5001TIP3    H136494   5.792   1.012   0.063  0.5397 -0.0123 -0.3105
 5001TIP3    H236495   5.942   0.991   0.061  0.7501  1.2957  0.6960
 5002TIP3   OH236496   2.907   4.413   1.069  0.7753  0.2336 -0.0157
 5002TIP3    H136497   3.002   4.416   1.079  0.8484 -0.7354 -0.4361
 5002TIP3    H236498   2.882   4.324   1.093  0.2078 -0.1324 -1.8708
 5003TIP3   OH236499   2.255   6.552  14.571 -0.2274 -0.1619  0.0293
 5003TIP3    H136500   2.299   6.566  14.655  0.4377  3.1216 -0.8128
 5003TIP3    H236501   2.300   6.477  14.533  2.1816  0.8311  0.8222
 5004TIP3   OH236502   3.725   1.904   2.356 -0.5920 -0.2381  0.1361
 5004TIP3    H136503   3.819   1.888   2.348 -0.1627  2.3016 -0.5750
 5004TIP3    H236504   3.700   1.943   2.271 -1.8826  0.8353  0.9807
 5005TIP3   OH236505   3.931   0.526  12.838  0.8701 -0.3514  0.1482
 5005TIP3    H136506   3.967   0.540  12.926  0.2498  1.1636  0.1794
 5005TIP3    H236507   3.994   0.569  12.780  1.1087 -1.0708 -0.1349
 5006TIP3   OH236508   2.987   0.168  16.697 -0.4625 -0.0901  0.0972
 5006TIP3    H136509   3.023   0.083  16.670  0.2580  0.3586 -0.3845
 5006TIP3    H236510   3.047   0.198  16.764 -0.3826  0.3086 -0.1531
 5007TIP3   OH236511   4.594   2.960   4.004  0.1208  0.3193 -0.5617
 5007TIP3    H136512   4.624   3.029   4.064  0.7993  1.2278 -1.9274
 5007TIP3    H236513   4.668   2.900   3.998 -0.7586 -1.0045  1.2698
 5008TIP3   OH236514   6.453   2.231  11.994 -0.4675 -0.1913  1.0455
 5008TIP3    H136515   6.415   2.150  11.959 -0.4744  0.9349 -1.6083
 5008TIP3    H236516   6.450   2.219  12.089 -2.6013 -2.3381  0.7493
 5009TIP3   OH236517   2.335   0.471  14.624 -0.4326 -0.6237  0.5682
 5009TIP3    H136518   2.257   0.432  14.583 -0.7367 -0.7456  1.2599
 5009TIP3    H236519   2.303   0.550  14.666 -0.0998 -0.4484  0.4881
 5010TIP3   OH236520   3.403   6.238  15.796  0.2340 -0.6261  0.3257
 5010TIP3    H136521   3.314   6.272  15.791  0.5768  0.4239  1.1431
 5010TIP3    H236522   3.423   6.210  15.707 -1.2633 -1.8051  0.3244
 5011TIP3   OH236523   5.532   4.170  13.661  0.1846 -0.2561  0.1619
 5011TIP3    H136524   5.464   4.208  13.717 -1.2253  0.2341 -1.8603
 5011TIP3    H236525   5.495   4.087  13.632  0.4650  0.0012 -0.9291
 5012TIP3   OH236526   6.792   1.902  10.750  0.3229  0.1656  0.2533
 5012TIP3    H136527   6.811   1.857  10.667 -0.9430 -0.9631  0.5587
 5012TIP3    H236528   6.713   1.952  10.732 -0.7434 -1.1668  1.1667
 5013TIP3   OH236529   6.190   3.441  14.397  0.1343  0.1291 -0.4019
 5013TIP3    H136530   6.248   3.517  14.408  0.1304  0.1432 -0.4754
 5013TIP3    H236531   6.219   3.401  14.315 -0.3240  0.4590 -0.7315
 5014TIP3   OH236532   5.658   5.972   4.865  0.1943  0.3922 -0.3993
 5014TIP3    H136533   5.645   6.057   4.906  0.6047  0.8178 -1.1457
 5014TIP3    H236534   5.599   5.972   4.790 -3.3700 -1.8431  2.2394
 5015TIP3   OH236535   4.271   5.506  12.533 -0.3016 -0.5357  0.3324
 5015TIP3    H136536   4.345   5.535  12.587 -0.3123 -2.0192  1.1559
 5015TIP3    H236537   4.247   5.421  12.568 -2.9464  0.2605  0.6116
 5016TIP3   OH236538   3.408   4.401  12.199  0.2024  0.1281 -0.2482
 5016TIP3    H136539   3.341   4.447  12.249 -0.1971  1.4289 -1.9371
 5016TIP3    H236540   3.443   4.335  12.259 -1.9138  0.0835  0.9543
 5017TIP3   OH236541   6.007   6.169  13.084  0.3052 -0.1615 -0.9514
 5017TIP3    H136542   5.965   6.211  13.159 -0.9391  0.4655 -1.9764
 5017TIP3    H236543   6.029   6.241  13.025  0.5723 -0.7111 -1.5354
 5018TIP3   OH236544   1.513   3.214   4.589  0.3477  0.3394  0.3050
 5018TIP3    H136545   1.501   3.288   4.529  1.2495  0.9841  0.9213
 5018TIP3    H236546   1.448   3.150   4.560  1.7510  0.0188 -2.3398
 5019TIP3   OH236547   4.851   5.655  16.158 -0.3060  0.0988 -0.6463
 5019TIP3    H136548   4.912   5.709  16.208 -0.6831  0.2614 -0.3601
 5019TIP3    H236549   4.878   5.666  16.067  0.8674 -0.8037 -0.4266
 5020TIP3   OH236550   1.063   6.527  16.912  0.5707  0.2174  0.1202
 5020TIP3    H136551   1.130   6.546  16.978  1.1881 -0.1694 -0.3949
 5020TIP3    H236552   1.091   6.576  16.834  0.9076 -0.9167 -0.4788
 5021TIP3   OH236553   3.866   1.143   2.161 -0.0373 -0.0414  0.2250
 5021TIP3    H136554   3.946   1.091   2.170 -0.6187 -1.0494 -0.2816
 5021TIP3    H236555   3.816   1.098   2.093 -0.8600  0.8035  0.2625
 5022TIP3   OH236556   6.776   3.971  16.304  0.5118 -0.0716  0.1149
 5022TIP3    H136557   6.848   4.033  16.314 -1.1907  2.1837 -1.1216
 5022TIP3    H236558   6.748   3.982  16.213 -3.1970  1.1967  1.3380
 5023TIP3   OH236559   3.544   0.356  12.645 -0.0065 -0.3796 -0.0400
 5023TIP3    H136560   3.490   0.278  12.658 -0.6050 -0.4179 -2.4906
 5023TIP3    H236561   3.632   0.322  12.627  0.1145 -0.4211  0.6126
 5024TIP3   OH236562   6.417   1.831   5.537 -0.1976  0.2390  0.0508
 5024TIP3    H136563   6.356   1.875   5.478 -0.7216  0.0849  0.4737
 5024TIP3    H236564   6.498   1.823   5.486 -1.0634 -1.1270 -1.1226
 5025TIP3   OH236565   4.823   1.321  12.284 -0.5677  0.3443 -0.6624
 5025TIP3    H136566   4.818   1.331  12.189 -0.7249 -0.0869 -0.7024
 5025TIP3    H236567   4.777   1.398  12.318 -0.7327  0.3718 -0.9396
 5026TIP3   OH236568   0.957   2.497  14.807 -0.4240  0.2099  0.2464
 5026TIP3    H136569   0.970   2.451  14.890 -0.8235  2.3051  1.5044
 5026TIP3    H236570   1.045   2.501  14.768  0.0241  0.5490  1.2858
 5027TIP3   OH236571   2.437   6.453  16.959  0.1065  0.6729 -0.4016
 5027TIP3    H136572   2.475   6.526  16.911  1.2131 -0.6311 -1.5110
 5027TIP3    H236573   2.369   6.419  16.901 -0.7549  1.1228  0.3300
 5028TIP3   OH236574   3.952   5.249  15.998 -0.2000  0.0197  0.4033
 5028TIP3    H136575   3.922   5.339  16.011 -0.0053  0.3462 -1.3404
 5028TIP3    H236576   3.884   5.207  15.946  1.0565  0.0088 -1.2896
 5029TIP3   OH236577   0.407   6.159  14.819  0.0906 -0.0036 -0.2968
 5029TIP3    H136578   0.393   6.073  14.780  0.1557 -0.4293  0.6052
 5029TIP3    H236579   0.415   6.218  14.744  0.5152 -0.8541 -0.9295
 5030TIP3   OH236580   0.589   4.895   2.586 -0.4161  0.1407 -0.4885
 5030TIP3    H136581   0.663   4.905   2.646 -0.4735 -0.4558 -0.3165
 5030TIP3    H236582   0.511   4.912   2.640 -0.4027  0.9662 -0.7146
 5031TIP3   OH236583   2.474   4.178   2.503  0.0341 -0.2257  0.0218
 5031TIP3    H136584   2.559   4.219   2.485 -1.3681  2.6934 -0.2978
 5031TIP3    H236585   2.448   4.140   2.419  0.7332 -0.5863 -0.0362
 5032TIP3   OH236586   1.605   4.215   4.411 -0.7396  0.6227  0.7593
 5032TIP3    H136587   1.595   4.212   4.316  0.7494  0.7187  0.5911
 5032TIP3    H236588   1.515   4.220   4.444 -1.2336  1.3280 -0.6548
 5033TIP3   OH236589   0.226   6.614  12.574  0.1200 -0.4210  0.0071
 5033TIP3    H136590   0.312   6.603  12.533 -0.0513  0.4796 -0.6122
 5033TIP3    H236591   0.243   6.603  12.667  0.5187 -2.4453 -0.2975
 5034TIP3   OH236592   2.547   4.643   0.771 -0.1538 -0.0825  0.1445
 5034TIP3    H136593   2.578   4.720   0.723 -0.1408 -1.0153 -1.3778
 5034TIP3    H236594   2.625   4.608   0.815  0.0128  0.2603  0.1165
 5035TIP3   OH236595   1.120   1.319   1.685 -0.0906 -0.3839 -0.2396
 5035TIP3    H136596   1.145   1.407   1.712 -0.9818  0.2903 -1.5526
 5035TIP3    H236597   1.037   1.304   1.730  0.7755 -1.1318  1.1276
 5036TIP3   OH236598   0.462   2.229  15.290  0.1064  0.4932 -0.3381
 5036TIP3    H136599   0.419   2.144  15.298  2.3460 -0.8625 -1.8337
 5036TIP3    H236600   0.441   2.259  15.201 -0.4186  1.3576  0.0725
 5037TIP3   OH236601   3.091   4.762   1.064  0.0570 -0.0326  0.2557
 5037TIP3    H136602   3.181   4.782   1.038 -0.2801  0.5497 -0.4655
 5037TIP3    H236603   3.038   4.786   0.989 -0.9522  1.8679  1.5342
 5038TIP3   OH236604   1.469   1.164  15.309 -0.0757 -0.0198 -0.2939
 5038TIP3    H136605   1.480   1.243  15.257  1.9734 -0.4472 -0.5479
 5038TIP3    H236606   1.488   1.092  15.249  0.5359 -0.5901  0.5614
 5039TIP3   OH236607   5.989   6.499   3.953  0.3228  0.8879 -0.3919
 5039TIP3    H136608   6.031   6.573   3.999  1.7105 -0.7778  1.0876
 5039TIP3    H236609   5.907   6.485   4.001 -1.0542  2.8675 -2.0617
 5040TIP3   OH236610   0.305   2.707   6.342  0.3139  0.8463  0.0549
 5040TIP3    H136611   0.280   2.785   6.292  0.1048  0.3505 -0.6248
 5040TIP3    H236612   0.247   2.707   6.418 -1.3571  0.0504 -1.1833
 5041TIP3   OH236613   5.693   2.991   0.659 -0.4618  0.1230 -0.0958
 5041TIP3    H136614   5.627   2.931   0.624  0.1258  0.1593 -1.2904
 5041TIP3    H236615   5.651   3.076   0.660 -0.7039  0.0040 -0.0739
 5042TIP3   OH236616   5.606   1.227   5.728 -0.1190  0.5409  0.9413
 5042TIP3    H136617   5.570   1.302   5.775 -1.2450  0.0580  0.8657
 5042TIP3    H236618   5.605   1.254   5.636 -0.0250  0.6294  0.9664
 5043TIP3   OH236619   3.100   3.742   2.739  0.1412 -0.0059 -0.0211
 5043TIP3    H136620   3.070   3.705   2.822 -0.5787 -0.0929 -0.3223
 5043TIP3    H236621   3.022   3.779   2.698  0.2573 -1.0160 -1.2058
 5044TIP3   OH236622   4.610   2.221   3.340  0.1563  0.0453  0.0304
 5044TIP3    H136623   4.703   2.199   3.345 -0.3841 -2.2936  0.7112
 5044TIP3    H236624   4.586   2.248   3.429  0.4666  1.9360 -0.4494
 5045TIP3   OH236625   0.223   2.224  11.335 -0.1683 -0.1976 -0.1055
 5045TIP3    H136626   0.245   2.265  11.251  0.1639 -0.1083  0.0261
 5045TIP3    H236627   0.173   2.146  11.311 -1.2527  0.5539 -0.3458
 5046TIP3   OH236628   2.407   5.395  14.048 -0.4248 -0.3065  0.3760
 5046TIP3    H136629   2.389   5.484  14.019  0.4361 -0.0362  0.6713
 5046TIP3    H236630   2.321   5.359  14.069 -0.8341  0.2449 -0.3394
 5047TIP3   OH236631   6.432   1.355   2.999 -0.5035  0.0230  0.1319
 5047TIP3    H136632   6.342   1.346   2.968 -0.1488 -3.0670 -0.2454
 5047TIP3    H236633   6.484   1.362   2.919 -0.4485  2.9762  0.3703
 5048TIP3   OH236634   2.332   0.173  14.393  0.5396 -0.2730 -0.3622
 5048TIP3    H136635   2.403   0.225  14.355  0.2730 -0.5736 -1.2899
 5048TIP3    H236636   2.253   0.222  14.373  0.4836  0.1052  0.7481
 5049TIP3   OH236637   3.626   5.364  13.360 -0.4721  0.3024 -0.1003
 5049TIP3    H136638   3.630   5.436  13.297 -0.5965  0.2737 -0.1424
 5049TIP3    H236639   3.633   5.406  13.446  0.2714  0.2878 -0.1550
 5050TIP3   OH236640   4.946   5.890  16.266  0.3787 -0.0469 -0.3698
 5050TIP3    H136641   4.916   5.973  16.301  1.1476  0.4477 -0.8662
 5050TIP3    H236642   5.026   5.912  16.219  0.3490 -1.0003 -0.8672
 5051TIP3   OH236643   2.393   1.594  14.730 -0.4062  0.1862  0.3137
 5051TIP3    H136644   2.341   1.557  14.801 -1.6816  0.5370 -0.4123
 5051TIP3    H236645   2.331   1.650  14.682  0.0814 -1.0726 -1.8457
 5052TIP3   OH236646   2.300   5.418  17.021  0.7381 -0.1870 -0.1276
 5052TIP3    H136647   2.339   5.506  17.013  1.4207 -0.5018 -0.2974
 5052TIP3    H236648   2.367   5.366  17.065 -0.6068 -0.0390  2.1479
 5053TIP3   OH236649   4.905   0.742  11.600  0.4692  0.3826  0.3800
 5053TIP3    H136650   4.956   0.795  11.662  0.6958  0.7634 -0.1281
 5053TIP3    H236651   4.817   0.739  11.637  0.1715  2.0555 -0.1443
 5054TIP3   OH236652   3.199   6.164  11.032 -0.1424  0.2785  0.6317
 5054TIP3    H136653   3.180   6.074  11.006 -1.3457  0.2266  1.6455
 5054TIP3    H236654   3.253   6.198  10.961  0.2249 -1.1990  0.1750
 5055TIP3   OH236655   1.464   2.651   3.029  0.0214  0.0400  0.0216
 5055TIP3    H136656   1.388   2.698   3.063  0.5986  1.7900 -1.0050
 5055TIP3    H236657   1.503   2.609   3.105 -1.4436 -0.1068  0.7053
 5056TIP3   OH236658   2.168   1.982  13.578  0.4713  0.4420 -0.1491
 5056TIP3    H136659   2.114   2.053  13.611  1.5086  0.0897  2.4112
 5056TIP3    H236660   2.125   1.902  13.609  1.4372  0.1023  0.3482
 5057TIP3   OH236661   0.678   1.132   6.311  0.4467 -0.4147  0.4090
 5057TIP3    H136662   0.731   1.184   6.372  0.6075 -0.6336  0.4586
 5057TIP3    H236663   0.613   1.193   6.278 -0.0460 -0.4547  1.2864
 5058TIP3   OH236664   3.703   6.497   0.513  0.3179 -0.2561 -0.3891
 5058TIP3    H136665   3.786   6.541   0.527 -0.3984  0.3751  2.1190
 5058TIP3    H236666   3.660   6.547   0.443 -0.0810  2.5504  1.7523
 5059TIP3   OH236667   2.487   5.852  17.275 -0.2655  0.1780  0.1484
 5059TIP3    H136668   2.423   5.803  17.327  0.3961  1.5467  2.3305
 5059TIP3    H236669   2.472   5.823  17.185 -1.4125 -2.3063  1.0939
 5060TIP3   OH236670   3.595   4.900  16.584  0.4989 -0.2072  0.3708
 5060TIP3    H136671   3.505   4.883  16.613  0.2015  2.5760  1.2621
 5060TIP3    H236672   3.642   4.924  16.664  1.4954  0.4617 -0.3973
 5061TIP3   OH236673   6.198   0.039   4.828  0.7197 -0.1702 -0.3653
 5061TIP3    H136674   6.134  -0.032   4.830  1.4917 -1.0027 -2.6448
 5061TIP3    H236675   6.234   0.042   4.917 -3.4808  1.3496  1.4094
 5062TIP3   OH236676   4.726   2.390  11.054  0.4599 -0.1892  0.3793
 5062TIP3    H136677   4.788   2.462  11.045 -0.4410  0.6303  0.6499
 5062TIP3    H236678   4.641   2.432  11.068 -0.1400 -1.2953  0.1801
 5063TIP3   OH236679   4.030   1.228   5.590 -0.1503  0.3382 -0.2394
 5063TIP3    H136680   4.021   1.289   5.518  0.2510 -0.0428 -0.6089
 5063TIP3    H236681   4.113   1.183   5.575  0.2738  0.7372  0.8268
 5064TIP3   OH236682   5.299   5.090  11.490 -0.6475  0.9659  0.4526
 5064TIP3    H136683   5.237   5.041  11.437 -0.8834  2.6095 -0.8389
 5064TIP3    H236684   5.279   5.182  11.472  2.5860  1.5476 -0.5419
 5065TIP3   OH236685   0.904   5.898   3.858 -0.0394  0.2234  0.8012
 5065TIP3    H136686   0.921   5.937   3.773 -0.7882  0.0623  0.5737
 5065TIP3    H236687   0.977   5.838   3.873 -0.0662  0.0233  0.1327
 5066TIP3   OH236688   0.642   0.863  11.563  0.4057  0.0894  0.1456
 5066TIP3    H136689   0.663   0.774  11.590 -0.6769 -0.9805 -2.3913
 5066TIP3    H236690   0.684   0.874  11.478 -1.0634  1.2963 -0.4621
 5067TIP3   OH236691   3.179   4.506   1.125 -0.1150  0.4405  0.0853
 5067TIP3    H136692   3.124   4.520   1.202 -0.6992  0.0973 -0.2676
 5067TIP3    H236693   3.148   4.573   1.063 -0.9557 -0.5282 -0.5525
 5068TIP3   OH236694   6.025   5.885  16.805 -0.4964  0.2816 -0.0596
 5068TIP3    H136695   5.938   5.903  16.841 -0.8592 -0.3641 -0.5920
 5068TIP3    H236696   6.007   5.851  16.717  0.3311  0.9145 -0.4773
 5069TIP3   OH236697   4.645   2.516  16.187  0.4449 -0.0778  0.1256
 5069TIP3    H136698   4.729   2.537  16.227  0.8724 -1.3456 -0.0928
 5069TIP3    H236699   4.666   2.450  16.121 -0.8430 -1.0460  0.6686
 5070TIP3   OH236700   3.084   4.819   4.319 -0.4856  0.2801  0.0706
 5070TIP3    H136701   3.137   4.846   4.245  0.5150 -0.6757  0.4173
 5070TIP3    H236702   2.994   4.836   4.292 -0.1199  0.1559 -1.2759
 5071TIP3   OH236703   6.740   4.996  10.345  0.3722  0.3536  0.0558
 5071TIP3    H136704   6.818   5.051  10.351  0.1869  0.5274  0.9394
 5071TIP3    H236705   6.671   5.055  10.315  0.8495 -0.0737 -1.9546
 5072TIP3   OH236706   5.821   1.628   5.286 -0.1736 -0.2464  0.4878
 5072TIP3    H136707   5.855   1.541   5.306  3.1285  1.1309  1.3083
 5072TIP3    H236708   5.844   1.642   5.194  2.5475  1.0583  1.2986
 5073TIP3   OH236709   3.371   2.344   4.587  0.4554 -0.3486  0.1884
 5073TIP3    H136710   3.401   2.258   4.556 -1.3432 -0.4401 -1.3864
 5073TIP3    H236711   3.419   2.407   4.534  1.6100 -0.3741  1.1891
 5074TIP3   OH236712   3.374   1.510   2.357  0.4567  0.2189 -0.0071
 5074TIP3    H136713   3.376   1.590   2.408 -2.5174 -0.8468  1.9058
 5074TIP3    H236714   3.460   1.506   2.315  1.0372  3.8089  0.7128
 5075TIP3   OH236715   4.526   3.485   5.954  0.0965 -0.3065 -0.1091
 5075TIP3    H136716   4.434   3.467   5.974 -0.2454  1.5440  0.1211
 5075TIP3    H236717   4.574   3.447   6.028 -0.6372  0.4067  0.7471
 5076TIP3   OH236718   5.409   5.461   3.682  0.3597  0.4532 -0.5092
 5076TIP3    H136719   5.330   5.417   3.651  0.4957 -0.3412  0.2857
 5076TIP3    H236720   5.377   5.539   3.727  0.0624  0.4950 -0.7945
 5077TIP3   OH236721   3.946   2.556  14.007  0.3821  0.2351 -0.3231
 5077TIP3    H136722   3.858   2.521  14.022  0.3095 -0.2918 -1.9104
 5077TIP3    H236723   3.951   2.633  14.064 -0.7354 -0.3111  0.5312
 5078TIP3   OH236724   1.034   3.235  10.462  0.1256 -0.1619 -0.1639
 5078TIP3    H136725   1.046   3.154  10.412 -3.4464 -0.4170 -0.7730
 5078TIP3    H236726   1.097   3.229  10.534  3.0043 -1.3774 -2.6957
 5079TIP3   OH236727   2.355   6.740   3.029  0.1680  0.2105  0.1842
 5079TIP3    H136728   2.409   6.760   3.105  0.8642  0.1729 -0.2935
 5079TIP3    H236729   2.305   6.662   3.055  1.9728 -1.0897 -0.1542
 5080TIP3   OH236730   0.116   3.293  13.404 -0.1058  0.2606  0.2512
 5080TIP3    H136731   0.072   3.225  13.353  2.3503 -0.5284 -0.9043
 5080TIP3    H236732   0.147   3.355  13.339 -0.1644  1.2038  1.1156
 5081TIP3   OH236733   1.775   6.666   2.929  0.2330 -0.2426  0.4735
 5081TIP3    H136734   1.701   6.665   2.868  0.8057 -1.8386 -0.2186
 5081TIP3    H236735   1.829   6.739   2.899 -0.7055  0.4994  0.5641
 5082TIP3   OH236736   2.866   6.536   1.051 -0.4272 -0.0759  0.3321
 5082TIP3    H136737   2.890   6.473   0.982 -2.9259 -1.9439  1.0901
 5082TIP3    H236738   2.816   6.604   1.005 -2.6040 -1.6288  0.3411
 5083TIP3   OH236739   1.519   2.506  10.462  0.7117 -0.1335  0.7116
 5083TIP3    H136740   1.462   2.555  10.521 -1.1110  0.1421 -1.2225
 5083TIP3    H236741   1.462   2.438  10.425  1.8724 -0.4180 -0.5823
 5084TIP3   OH236742   1.281   1.823  14.811 -0.1987 -0.1760 -0.8694
 5084TIP3    H136743   1.297   1.766  14.886 -0.3059 -1.6686 -1.9635
 5084TIP3    H236744   1.330   1.902  14.831  1.0231 -1.1435  0.0737
 5085TIP3   OH236745   4.581   1.724   3.707 -0.2701 -0.3856  0.4421
 5085TIP3    H136746   4.600   1.724   3.800 -0.2768  1.3395  0.4631
 5085TIP3    H236747   4.574   1.632   3.683  1.0316 -0.8575  1.8765
 5086TIP3   OH236748   2.803   4.753  15.037  0.0819 -0.2120  0.0854
 5086TIP3    H136749   2.818   4.665  15.002 -2.2502 -1.6799  2.5963
 5086TIP3    H236750   2.722   4.782  14.996  0.4450  0.4879 -0.1573
 5087TIP3   OH236751   1.235   0.718  12.813  0.0498  0.5230 -0.4636
 5087TIP3    H136752   1.251   0.792  12.871 -1.2820  1.8193 -1.6975
 5087TIP3    H236753   1.275   0.744  12.730  0.2151 -0.4578 -0.6934
 5088TIP3   OH236754   6.597   1.580  16.452  0.3575  0.8262 -0.4284
 5088TIP3    H136755   6.543   1.501  16.453  1.8665 -0.2467 -0.8835
 5088TIP3    H236756   6.588   1.617  16.540 -1.4000  0.8747 -0.6268
 5089TIP3   OH236757   3.348   3.256  17.175  0.5105 -0.4567 -0.4091
 5089TIP3    H136758   3.342   3.297  17.261 -0.2992 -0.0875 -0.6328
 5089TIP3    H236759   3.298   3.175  17.184 -0.7905  0.2716 -0.9218
 5090TIP3   OH236760   1.062   4.026   4.549  0.0464 -0.0046  0.1075
 5090TIP3    H136761   1.005   3.969   4.497  0.7057  0.1127 -0.7557
 5090TIP3    H236762   1.083   3.974   4.627 -0.0771 -0.5941 -0.2473
 5091TIP3   OH236763   5.034   2.329  16.200 -0.3048 -0.3699  0.0300
 5091TIP3    H136764   5.070   2.263  16.141  0.4919 -1.1501  1.3585
 5091TIP3    H236765   4.945   2.298  16.219 -1.5061  1.2222 -2.7466
 5092TIP3   OH236766   6.015   4.070   2.947  0.0054  0.0163 -0.4466
 5092TIP3    H136767   6.007   3.986   2.901  0.6913 -1.2929  1.7168
 5092TIP3    H236768   6.020   4.136   2.878 -0.2657 -1.7552 -2.1917
 5093TIP3   OH236769   3.515   2.942  15.114 -0.1950  0.1185  0.1554
 5093TIP3    H136770   3.572   2.872  15.082  0.6367  0.9006 -0.0933
 5093TIP3    H236771   3.519   2.935  15.209 -0.1237 -0.1755  0.1317
 5094TIP3   OH236772   5.058   3.019   3.069  0.1617 -0.5746  0.2431
 5094TIP3    H136773   5.115   3.095   3.071 -1.0078  0.3059  0.9064
 5094TIP3    H236774   5.020   3.019   2.981 -0.5283  0.1435  0.5359
 5095TIP3   OH236775   5.400   6.704   1.329  0.2490  0.1055  0.1304
 5095TIP3    H136776   5.480   6.719   1.279  0.2610 -2.6681 -0.7606
 5095TIP3    H236777   5.428   6.649   1.403 -0.7848 -0.8006 -0.1387
 5096TIP3   OH236778   1.725   6.065   5.383 -0.0711  0.2973 -0.6405
 5096TIP3    H136779   1.660   6.128   5.413 -0.8568 -0.7262 -0.1605
 5096TIP3    H236780   1.773   6.039   5.462 -0.8658 -0.9522 -0.5536
 5097TIP3   OH236781   5.321   1.866   2.376  0.0341  0.0187 -0.4144
 5097TIP3    H136782   5.297   1.773   2.382 -0.1750  0.2397  3.2704
 5097TIP3    H236783   5.252   1.911   2.424  1.0003  1.9629 -0.8230
 5098TIP3   OH236784   6.317   6.139  15.495 -0.4596  0.2929  0.4858
 5098TIP3    H136785   6.393   6.195  15.477  0.4291 -1.3748 -1.1189
 5098TIP3    H236786   6.246   6.200  15.512  0.6000  1.9295 -0.7450
 5099TIP3   OH236787   0.475   0.636  16.953 -0.1401 -0.4791  0.7842
 5099TIP3    H136788   0.454   0.638  16.860  0.9027 -1.6189  0.5244
 5099TIP3    H236789   0.536   0.709  16.966 -2.2847  1.3472  1.0992
 5100TIP3   OH236790   4.419   1.519  15.148  0.1954 -0.3840  0.3053
 5100TIP3    H136791   4.431   1.448  15.085  2.5206 -0.8755  1.2534
 5100TIP3    H236792   4.492   1.579  15.131 -0.4939  0.6630  0.9890
 5101TIP3   OH236793   1.190   2.941  11.968 -0.3927 -0.0998  0.0898
 5101TIP3    H136794   1.101   2.974  11.960 -0.8940 -0.4795  3.3707
 5101TIP3    H236795   1.179   2.851  11.998  1.0945 -0.6663 -0.9931
 5102TIP3   OH236796   1.075   6.544  12.776 -0.0467  0.2023 -0.9649
 5102TIP3    H136797   1.076   6.528  12.681 -0.4850  0.2310 -0.9773
 5102TIP3    H236798   0.983   6.533  12.800  0.3603 -1.7646 -0.2215
 5103TIP3   OH236799   4.277   0.782  11.149  0.3524  0.3220  0.5309
 5103TIP3    H136800   4.319   0.861  11.114  0.2309  0.7976  1.4414
 5103TIP3    H236801   4.325   0.763  11.229  0.9908 -1.0905 -0.1632
 5104TIP3   OH236802   0.704   5.467   3.836  0.4512 -0.6383  0.4220
 5104TIP3    H136803   0.658   5.435   3.758 -0.4836  1.0639  0.2467
 5104TIP3    H236804   0.683   5.560   3.839  1.4015 -0.4671  2.0944
 5105TIP3   OH236805   2.473   0.048   0.073 -0.3445  0.1181  0.1006
 5105TIP3    H136806   2.480   0.116   0.141 -2.0627 -0.1583  0.5989
 5105TIP3    H236807   2.467   0.097  -0.009 -2.5514  0.6440  0.5335
 5106TIP3   OH236808   2.197   5.493   0.682 -0.1866  0.8430 -0.2329
 5106TIP3    H136809   2.165   5.552   0.751  0.7180  1.4311 -0.3006
 5106TIP3    H236810   2.165   5.532   0.601  1.2785  1.8302 -0.3524
 5107TIP3   OH236811   5.960   6.660  12.825  0.5303  0.7211 -0.3982
 5107TIP3    H136812   6.039   6.711  12.841 -0.0913  0.8287  2.5678
 5107TIP3    H236813   5.888   6.715  12.856 -0.6101  0.0774 -1.8182
 5108TIP3   OH236814   4.749   1.092   0.928  0.2622 -0.3752  0.2124
 5108TIP3    H136815   4.760   1.124   0.838  0.5549 -0.0293  0.3691
 5108TIP3    H236816   4.693   1.158   0.969  1.1325  0.1069  0.6292
 5109TIP3   OH236817   4.807   4.193  14.242 -0.8447 -0.6711  0.0460
 5109TIP3    H136818   4.760   4.258  14.188 -0.4809 -0.3567  0.1020
 5109TIP3    H236819   4.743   4.167  14.308 -0.2987  1.3022  1.3949
 5110TIP3   OH236820   2.478   3.757  11.274  0.5724  0.3349 -0.0031
 5110TIP3    H136821   2.476   3.845  11.236 -0.3930  0.3285  0.0281
 5110TIP3    H236822   2.560   3.755  11.325  0.1451  1.5437  0.7599
 5111TIP3   OH236823   4.686   3.103   3.070  0.2120  0.2828  0.0707
 5111TIP3    H136824   4.666   3.038   3.004  1.3066  0.1453 -0.1351
 5111TIP3    H236825   4.641   3.072   3.149 -0.9783  0.3792 -0.5579
 5112TIP3   OH236826   1.416   1.557   3.110  0.0661 -0.4622  0.2727
 5112TIP3    H136827   1.420   1.634   3.168  1.7066 -1.1814  1.1332
 5112TIP3    H236828   1.376   1.489   3.164 -0.0705 -0.6196 -0.0285
 5113TIP3   OH236829   4.382   0.794   5.638 -0.4362  0.1949  0.3759
 5113TIP3    H136830   4.387   0.701   5.615  0.9337  0.7562 -1.7878
 5113TIP3    H236831   4.473   0.824   5.634 -0.6477  1.2602  2.7624
 5114TIP3   OH236832   5.683   2.988   3.564  0.1196  0.2867  0.2927
 5114TIP3    H136833   5.600   2.941   3.571 -0.0007  0.6692  1.5405
 5114TIP3    H236834   5.670   3.050   3.492 -0.2660 -0.4890 -0.3072
 5115TIP3   OH236835   4.836   4.240  13.538  0.1005  0.2664  0.3817
 5115TIP3    H136836   4.806   4.287  13.461  1.1631 -0.0038 -0.2120
 5115TIP3    H236837   4.892   4.302  13.585  0.2658  0.1056  0.4014
 5116TIP3   OH236838   0.485   3.744  12.358 -0.1071 -0.3597 -0.6939
 5116TIP3    H136839   0.432   3.757  12.437  0.6248 -0.2894 -0.2055
 5116TIP3    H236840   0.525   3.829  12.341 -0.5661 -0.2748 -1.3707
 5117TIP3   OH236841   6.575   3.792  13.711  0.4443 -0.5747  0.0434
 5117TIP3    H136842   6.512   3.848  13.665  0.2075 -0.4350  0.5366
 5117TIP3    H236843   6.654   3.796  13.657  0.1825 -0.3796 -0.3307
 5118TIP3   OH236844   3.904   6.075  12.715 -0.0293 -0.7978  0.2042
 5118TIP3    H136845   3.812   6.102  12.719 -0.0524 -0.7449 -0.6151
 5118TIP3    H236846   3.921   6.061  12.622  1.1693  0.4795  0.2300
 5119TIP3   OH236847   3.257   3.113   3.334 -0.5449 -0.3183 -0.7094
 5119TIP3    H136848   3.346   3.147   3.336 -0.0106 -1.7073 -0.6315
 5119TIP3    H236849   3.217   3.158   3.259  1.1327 -1.9169 -2.6247
 5120TIP3   OH236850   3.322   5.702   3.867 -0.0552  0.2037  0.3161
 5120TIP3    H136851   3.285   5.614   3.860  0.6198  0.0330 -1.6674
 5120TIP3    H236852   3.260   5.758   3.821  0.3187  0.4855  0.1494
 5121TIP3   OH236853   6.626   1.487   5.339  0.5672  0.1459 -0.3984
 5121TIP3    H136854   6.557   1.532   5.289 -0.7389 -1.3058  0.0536
 5121TIP3    H236855   6.676   1.558   5.379 -2.0079  1.2478  1.0527
 5122TIP3   OH236856   3.901   5.669   2.056  0.7656  0.7289  0.2133
 5122TIP3    H136857   3.881   5.748   2.005  0.1207  0.5119  0.1281
 5122TIP3    H236858   3.952   5.702   2.130  1.1789  1.1243 -0.2393
 5123TIP3   OH236859   4.150   6.525  16.799  0.2146 -0.2316 -0.7218
 5123TIP3    H136860   4.101   6.449  16.767  1.9409 -1.1304 -1.3006
 5123TIP3    H236861   4.129   6.595  16.738 -1.5809 -0.1410 -0.0543
 5124TIP3   OH236862   1.934   6.434  16.465 -0.5631  0.0154 -0.7151
 5124TIP3    H136863   1.990   6.479  16.402  1.4620  0.2352  1.1671
 5124TIP3    H236864   1.919   6.348  16.428 -0.1454  0.4455 -1.8914
 5125TIP3   OH236865   1.803   5.442  16.945 -0.1459 -0.5022  0.2567
 5125TIP3    H136866   1.844   5.356  16.939 -1.5293 -1.0617 -1.4538
 5125TIP3    H236867   1.719   5.432  16.901 -1.0341  1.3075  1.4612
 5126TIP3   OH236868   2.184   2.676  13.099  0.6822 -0.2484  0.1883
 5126TIP3    H136869   2.246   2.608  13.074  1.0536  0.2957 -0.3927
 5126TIP3    H236870   2.179   2.670  13.195  2.3089  0.2679  0.3309
 5127TIP3   OH236871   4.415   1.781   1.342 -0.4121  0.3569 -0.3262
 5127TIP3    H136872   4.491   1.763   1.288  0.1982 -0.8298  0.9135
 5127TIP3    H236873   4.450   1.816   1.423 -1.1658 -0.4934  0.3762
 5128TIP3   OH236874   5.696   2.887  16.407 -0.2383  0.6868 -0.2500
 5128TIP3    H136875   5.732   2.935  16.481 -0.3628 -1.2703  1.1159
 5128TIP3    H236876   5.772   2.874  16.349  0.3676  0.2279  0.6291
 5129TIP3   OH236877   2.153   5.599  13.680  0.1284 -0.4203  0.1898
 5129TIP3    H136878   2.110   5.635  13.603 -1.9350 -5.8868 -1.4978
 5129TIP3    H236879   2.242   5.578  13.650  0.0766 -0.3533 -0.0091
 5130TIP3   OH236880   5.620   4.646  16.107  0.0043  0.7472 -0.4729
 5130TIP3    H136881   5.660   4.585  16.168  0.5111  0.9610 -0.5861
 5130TIP3    H236882   5.647   4.616  16.020 -1.1568  0.1233 -0.6340
 5131TIP3   OH236883   1.632   0.263  10.624  0.0166 -0.1044 -0.7881
 5131TIP3    H136884   1.713   0.236  10.668 -0.1545 -1.8440 -1.5048
 5131TIP3    H236885   1.576   0.294  10.695  1.5687  1.8630 -0.3741
 5132TIP3   OH236886   4.475   1.170  16.664  0.2340 -0.1364  0.7214
 5132TIP3    H136887   4.465   1.229  16.739 -0.0944 -0.9677  1.3388
 5132TIP3    H236888   4.400   1.112  16.669  0.6178 -0.6820  0.1835
 5133TIP3   OH236889   1.321   1.747  12.362  0.5221  0.1774 -0.0514
 5133TIP3    H136890   1.388   1.679  12.356  0.4068  0.0400  0.2277
 5133TIP3    H236891   1.294   1.746  12.454  2.2191  2.1965  0.5164
 5134TIP3   OH236892   0.501   3.510  14.708  0.7164 -1.0113  0.1938
 5134TIP3    H136893   0.536   3.541  14.791 -1.9195 -0.8125  1.2907
 5134TIP3    H236894   0.518   3.581  14.646  1.5364 -0.6138  0.8649
 5135TIP3   OH236895   0.860   1.313  13.144 -0.0270 -0.1455  0.7641
 5135TIP3    H136896   0.814   1.270  13.217 -0.2328  0.0653  0.7579
 5135TIP3    H236897   0.900   1.240  13.096 -0.8177 -0.3754  0.4529
 5136TIP3   OH236898   1.690   1.863  15.848 -0.0990  0.5560 -0.7966
 5136TIP3    H136899   1.757   1.889  15.785 -0.0418  1.4760 -0.3759
 5136TIP3    H236900   1.613   1.914  15.824 -0.6180 -0.4302 -1.2211
 5137TIP3   OH236901   1.330   3.344  17.035 -0.7304 -0.1618  0.4729
 5137TIP3    H136902   1.271   3.269  17.036  0.7818 -1.3889 -0.3710
 5137TIP3    H236903   1.298   3.399  16.963  1.0176 -2.3953 -2.0959
 5138TIP3   OH236904   4.379   3.404   5.019 -0.0025 -0.5718  0.0715
 5138TIP3    H136905   4.383   3.355   4.937  0.1021 -0.7544  0.1852
 5138TIP3    H236906   4.313   3.472   5.004  1.2454  0.5010 -0.7687
 5139TIP3   OH236907   0.392   5.749  14.027  0.2151 -0.5984  0.7478
 5139TIP3    H136908   0.420   5.721  14.114 -0.1539  1.1996  1.4661
 5139TIP3    H236909   0.337   5.825  14.043 -1.4353 -1.3943 -0.9459
 5140TIP3   OH236910   2.213   2.676   0.695  0.9329  0.0037  0.0507
 5140TIP3    H136911   2.145   2.698   0.758  1.1355 -0.7962  0.5554
 5140TIP3    H236912   2.281   2.741   0.709 -0.5927  2.0802 -1.8668
 5141TIP3   OH236913   4.720   4.680   5.667 -0.0370  0.2793 -0.4504
 5141TIP3    H136914   4.717   4.707   5.575  0.5668  1.1496 -0.2223
 5141TIP3    H236915   4.731   4.585   5.664  0.8222  0.4051 -1.2824
 5142TIP3   OH236916   3.965   4.778   2.086  0.0269  0.1493 -0.6714
 5142TIP3    H136917   4.045   4.777   2.139  0.2774  0.3659 -1.0413
 5142TIP3    H236918   3.994   4.749   1.999 -0.7585 -2.2614 -0.1686
 5143TIP3   OH236919   0.105   5.007  12.610 -0.1284 -0.7207 -0.0686
 5143TIP3    H136920   0.133   4.924  12.648  1.1380 -0.9744 -1.5109
 5143TIP3    H236921   0.078   4.985  12.521 -0.3220  0.3187 -0.2710
 5144TIP3   OH236922   3.906   4.138   0.488  0.2490  0.3706  0.0516
 5144TIP3    H136923   3.931   4.225   0.455 -1.2314  0.4173 -1.0153
 5144TIP3    H236924   3.819   4.122   0.450  0.1073 -1.1888  0.9796
 5145TIP3   OH236925   6.362   3.727   1.329 -0.2574  0.1619 -0.6082
 5145TIP3    H136926   6.432   3.786   1.360 -0.4785 -0.2576  0.7194
 5145TIP3    H236927   6.408   3.648   1.303  0.0706  0.9813 -2.6529
 5146TIP3   OH236928   6.244   1.216   5.722  0.3626 -0.3920 -0.2296
 5146TIP3    H136929   6.323   1.229   5.669  0.1470 -1.8732 -0.9520
 5146TIP3    H236930   6.253   1.127   5.756 -0.8044 -0.4300  0.0006
 5147TIP3   OH236931   6.407   5.491  13.847 -0.4685 -0.0249  0.2460
 5147TIP3    H136932   6.399   5.442  13.765 -1.3410 -1.9185  1.4379
 5147TIP3    H236933   6.498   5.478  13.874 -0.9056 -1.7136  0.9777
 5148TIP3   OH236934   2.921   1.534  15.749 -0.2534  0.5480  0.0830
 5148TIP3    H136935   2.949   1.618  15.713 -0.3762  1.3210  1.7455
 5148TIP3    H236936   2.922   1.547  15.844 -1.7640 -0.8392  0.3145
 5149TIP3   OH236937   2.961   3.382  14.453  0.2294  0.4124  0.0095
 5149TIP3    H136938   3.018   3.311  14.424  1.1629  1.5323 -0.9382
 5149TIP3    H236939   2.873   3.356  14.425  0.8254  0.4921 -1.9689
 5150TIP3   OH236940   1.830   3.145  14.971 -0.6778  0.0961  0.2830
 5150TIP3    H136941   1.820   3.076  15.037 -2.9129 -1.7027 -1.8332
 5150TIP3    H236942   1.744   3.150  14.929  0.7870  0.9376 -2.6996
 5151TIP3   OH236943   1.278   1.480   5.580 -0.0043 -0.0734  0.1542
 5151TIP3    H136944   1.266   1.575   5.585 -0.1559 -0.1429  1.1246
 5151TIP3    H236945   1.360   1.469   5.531  1.1310  0.6178  1.8559
 5152TIP3   OH236946   4.981   0.656  14.943  0.0178  0.0033  0.0600
 5152TIP3    H136947   5.048   0.616  14.888  1.7730  0.8662  1.5597
 5152TIP3    H236948   4.917   0.586  14.956  0.9741 -1.0508 -0.7642
 5153TIP3   OH236949   3.033   3.238   4.728  0.3531 -0.6849 -0.1181
 5153TIP3    H136950   3.056   3.196   4.811 -0.3367 -1.8779 -0.5222
 5153TIP3    H236951   2.995   3.168   4.675  0.4370  0.1488 -1.3090
 5154TIP3   OH236952   2.620   3.819   1.944  0.0995 -0.2101 -0.0394
 5154TIP3    H136953   2.598   3.888   1.881 -2.0476  2.4604  3.3864
 5154TIP3    H236954   2.712   3.834   1.965  0.6556 -0.7285 -1.9950
 5155TIP3   OH236955   2.581   0.044  13.512  0.3542 -0.1298 -0.5450
 5155TIP3    H136956   2.603  -0.022  13.578 -0.2499  2.4374  2.3535
 5155TIP3    H236957   2.661   0.055  13.461  0.9664 -1.8880  0.0114
 5156TIP3   OH236958   0.683   2.081  15.218  0.7127 -0.7195  0.6651
 5156TIP3    H136959   0.648   2.009  15.166  1.2570 -0.7572  0.3533
 5156TIP3    H236960   0.605   2.122  15.258  0.3515 -1.0622  0.3130
 5157TIP3   OH236961   0.040   1.285  13.492 -0.2194  0.8586 -0.2030
 5157TIP3    H136962  -0.015   1.270  13.415 -0.4562  0.6983 -0.0041
 5157TIP3    H236963   0.051   1.380  13.496 -0.2251  0.8680 -0.4218
 5158TIP3   OH236964   5.410   1.461  15.765 -0.4255  0.3135  0.2544
 5158TIP3    H136965   5.458   1.543  15.781  1.1124 -0.8775  1.8836
 5158TIP3    H236966   5.388   1.429  15.853  2.3357 -2.9705 -0.1608
 5159TIP3   OH236967   5.931   0.494  16.251  0.3615  0.4278 -0.3012
 5159TIP3    H136968   5.934   0.511  16.346 -0.8391  1.1163 -0.3758
 5159TIP3    H236969   5.935   0.399  16.244  1.2044  0.3961  0.4041
 5160TIP3   OH236970   2.436   5.660  11.575  0.0684  0.3646  0.3865
 5160TIP3    H136971   2.369   5.594  11.557  0.3250  0.5497 -1.2993
 5160TIP3    H236972   2.503   5.645  11.508  0.9780  1.1782  1.1089
 5161TIP3   OH236973   3.457   3.541  17.251 -0.3167  0.3698  0.0297
 5161TIP3    H136974   3.493   3.615  17.301 -0.5807 -0.5442  1.6323
 5161TIP3    H236975   3.445   3.472  17.317  0.7492 -1.4124 -1.5948
 5162TIP3   OH236976   4.969   0.838  15.592 -0.4676  0.3979  0.1986
 5162TIP3    H136977   4.988   0.915  15.646 -1.9237  0.4503  0.6645
 5162TIP3    H236978   5.035   0.774  15.616 -0.7718  0.6207  1.6471
 5163TIP3   OH236979   2.295   1.842  12.757 -0.0634 -0.1550 -0.1087
 5163TIP3    H136980   2.213   1.798  12.733 -0.5702  0.1368  1.0263
 5163TIP3    H236981   2.359   1.772  12.764  0.1801 -0.2146 -2.5838
 5164TIP3   OH236982   5.379   2.978   1.477  0.4244 -0.2197  0.1646
 5164TIP3    H136983   5.459   3.029   1.491  1.7095 -1.8988 -0.8426
 5164TIP3    H236984   5.410   2.890   1.456 -1.6808 -0.7554 -0.8552
 5165TIP3   OH236985   5.267   1.516  12.092  0.1750  0.0668 -0.2935
 5165TIP3    H136986   5.316   1.576  12.148 -2.2873  1.9225 -0.0727
 5165TIP3    H236987   5.193   1.567  12.059  0.7582 -1.3807 -4.1447
 5166TIP3   OH236988   4.418   4.850   0.394  0.3725 -0.2187  0.4003
 5166TIP3    H136989   4.483   4.803   0.342 -0.5545 -0.9018 -0.1622
 5166TIP3    H236990   4.358   4.781   0.425  0.1050  0.3603  1.1864
 5167TIP3   OH236991   3.297   4.242  14.288  0.6043 -0.2017  0.1756
 5167TIP3    H136992   3.324   4.327  14.254  1.7106 -1.4609 -2.1982
 5167TIP3    H236993   3.340   4.236  14.374  2.0695  0.8603 -0.4548
 5168TIP3   OH236994   1.563   1.172  15.728 -0.2043  0.1424  0.1581
 5168TIP3    H136995   1.547   1.220  15.647  0.4495  0.2145  0.0689
 5168TIP3    H236996   1.575   1.081  15.700  0.9225  0.3087  0.0697
 5169TIP3   OH236997   3.410   4.259  11.652 -0.8551  0.1281  0.1633
 5169TIP3    H136998   3.459   4.339  11.673  0.4784  0.1336 -2.7384
 5169TIP3    H236999   3.438   4.196  11.719 -0.6119  1.5634  1.4511
 5170TIP3   OH237000   3.345   4.484  14.799 -0.2336 -0.1155  0.0750
 5170TIP3    H137001   3.299   4.405  14.828 -0.6235  0.2238  0.3940
 5170TIP3    H237002   3.436   4.457  14.789 -0.3540 -0.5900  0.2451
 5171TIP3   OH237003   3.653   5.223   5.470  0.0666 -0.1173  0.2565
 5171TIP3    H137004   3.607   5.187   5.546 -3.1275  0.9022 -1.0825
 5171TIP3    H237005   3.647   5.155   5.403  2.8178 -0.9912  0.8680
 5172TIP3   OH237006   4.119   1.637  13.172 -0.4161  0.0859  0.4365
 5172TIP3    H137007   4.160   1.723  13.161  2.3387 -1.2509 -0.0960
 5172TIP3    H237008   4.054   1.633  13.101  0.7038  1.0123 -0.6780
 5173TIP3   OH237009   6.133   5.243   5.403 -0.0261 -0.2115  0.0076
 5173TIP3    H137010   6.210   5.191   5.378 -0.0644 -0.3102  0.0926
 5173TIP3    H237011   6.140   5.322   5.350 -0.6498 -0.8643 -1.0807
 5174TIP3   OH237012   1.088   5.922  13.182  0.2478  0.5956  0.1059
 5174TIP3    H137013   1.020   5.917  13.250  0.7134 -1.4049  0.4670
 5174TIP3    H237014   1.157   5.975  13.222  0.9212 -1.3294  1.6189
 5175TIP3   OH237015   3.418   5.287  11.805  0.0660 -0.2235  0.1452
 5175TIP3    H137016   3.452   5.366  11.846 -1.0224 -0.0367  0.6956
 5175TIP3    H237017   3.468   5.279  11.724  0.8239  0.5142  0.5261
 5176TIP3   OH237018   1.786   6.274  12.389  0.3626 -0.1804 -0.7235
 5176TIP3    H137019   1.743   6.212  12.331  1.2665 -1.6570  0.1531
 5176TIP3    H237020   1.860   6.226  12.425 -0.3290  0.5923  1.8759
 5177TIP3   OH237021   3.821   4.561  16.350 -0.4665  0.0119  0.5234
 5177TIP3    H137022   3.772   4.610  16.416  0.0552  0.2189  0.7622
 5177TIP3    H237023   3.862   4.490  16.398 -0.5990 -0.2075  0.3083
 5178TIP3   OH237024   5.039   1.263   6.505  0.1589 -0.4990  0.2831
 5178TIP3    H137025   5.042   1.187   6.447 -0.5820 -0.9504  0.8257
 5178TIP3    H237026   5.002   1.230   6.587 -2.5646  0.9435 -0.2863
 5179TIP3   OH237027   1.535   6.061  15.634 -0.6441 -0.2992  0.2703
 5179TIP3    H137028   1.468   6.128  15.651  0.7207  0.9155  0.9937
 5179TIP3    H237029   1.522   5.997  15.704 -0.2130  0.6167  1.2099
 5180TIP3   OH237030   1.900   5.757   5.935 -0.0603 -0.1591 -0.1695
 5180TIP3    H137031   1.908   5.824   5.868  0.2669 -0.4164 -0.3902
 5180TIP3    H237032   1.912   5.804   6.018 -0.1284  0.1019 -0.3100
 5181TIP3   OH237033   3.398   6.724   2.948  0.0957  0.4984 -0.0425
 5181TIP3    H137034   3.342   6.676   2.887  1.1040  0.7091 -1.1430
 5181TIP3    H237035   3.374   6.690   3.034 -0.6893 -0.4588 -0.6321
 5182TIP3   OH237036   1.871   1.185  15.608  0.2865 -0.0730  0.0081
 5182TIP3    H137037   1.802   1.137  15.653 -0.6377 -0.2099 -1.5199
 5182TIP3    H237038   1.926   1.117  15.569  1.1766  0.0419  1.0268
 5183TIP3   OH237039   6.080   0.892  13.418  0.5873 -0.0192 -0.1722
 5183TIP3    H137040   6.080   0.851  13.331 -0.8638 -2.4940  0.9553
 5183TIP3    H237041   6.159   0.858  13.460 -1.6076 -3.3037  1.4602
 5184TIP3   OH237042   5.381   2.571  14.341 -0.5771  0.4059 -0.6686
 5184TIP3    H137043   5.357   2.655  14.379  2.9727  1.0184  0.4069
 5184TIP3    H237044   5.428   2.525  14.411  2.2024 -0.2479 -2.8525
 5185TIP3   OH237045   3.471   4.868   5.164  0.8837  0.7298 -0.0881
 5185TIP3    H137046   3.488   4.802   5.098 -1.4044  0.8736 -0.8750
 5185TIP3    H237047   3.462   4.819   5.246  0.8328  0.2423 -0.3889
 5186TIP3   OH237048   2.444   5.710   3.873 -0.3705  0.3446 -0.4805
 5186TIP3    H137049   2.502   5.714   3.948 -1.0975  0.2836  0.0885
 5186TIP3    H237050   2.498   5.675   3.802 -0.2141 -1.4708  0.5254
 5187TIP3   OH237051   5.848   6.236  13.684 -0.0060  0.5444  0.5659
 5187TIP3    H137052   5.819   6.182  13.757  0.5059 -0.7058 -0.1466
 5187TIP3    H237053   5.815   6.192  13.606  1.5919  0.4923 -0.0960
 5188TIP3   OH237054   2.235   2.918   5.449  0.2711 -0.3303 -0.1443
 5188TIP3    H137055   2.268   2.994   5.496  0.5695 -0.7955  0.3967
 5188TIP3    H237056   2.173   2.954   5.385 -0.9182  0.1974  1.2907
 5189TIP3   OH237057   6.380   6.316   6.027 -0.1245  0.0964 -0.2770
 5189TIP3    H137058   6.407   6.275   6.110 -0.2868 -1.4044 -0.9563
 5189TIP3    H237059   6.285   6.327   6.036  0.1143  1.6640  0.4812
 5190TIP3   OH237060   5.265   6.702  15.606  0.2004 -0.6298  0.0371
 5190TIP3    H137061   5.262   6.617  15.649 -1.4895 -0.8382 -0.4889
 5190TIP3    H237062   5.338   6.747  15.649 -0.1505 -1.5984  1.6850
 5191TIP3   OH237063   2.657   2.177  13.666 -0.3637  0.3169  0.7212
 5191TIP3    H137064   2.605   2.111  13.619 -0.8858  1.5382 -0.4457
 5191TIP3    H237065   2.620   2.261  13.639  0.2038  1.0955  2.3066
 5192TIP3   OH237066   1.211   3.333  15.158 -0.4795  0.0326 -0.1209
 5192TIP3    H137067   1.207   3.310  15.251  0.5106  0.1568 -0.0395
 5192TIP3    H237068   1.299   3.369  15.146 -1.0584  1.2472 -0.8325
 5193TIP3   OH237069   5.190   4.247  12.479  0.4822  0.1564 -0.0171
 5193TIP3    H137070   5.098   4.227  12.460  0.8092 -1.1963 -0.1635
 5193TIP3    H237071   5.232   4.253  12.394  0.8723 -0.8360  0.1032
 5194TIP3   OH237072   4.065   5.101   3.854  0.5585  0.1713 -0.1740
 5194TIP3    H137073   4.090   5.184   3.895  1.0629 -0.1006  0.0704
 5194TIP3    H237074   4.148   5.054   3.842  0.0705 -1.2013  1.6125
 5195TIP3   OH237075   2.674   0.103   6.523 -0.2398  0.1665  0.6069
 5195TIP3    H137076   2.581   0.084   6.539 -0.6493  1.9987  0.4513
 5195TIP3    H237077   2.707   0.023   6.481 -1.9681 -0.1484 -0.2118
 5196TIP3   OH237078   0.159   1.409  13.171 -0.3077 -0.4954  0.3429
 5196TIP3    H137079   0.199   1.490  13.201  0.9787 -0.7209 -0.7356
 5196TIP3    H237080   0.233   1.355  13.142 -1.4353 -0.5460 -2.5862
 5197TIP3   OH237081   5.624   6.014  14.752  0.3673  0.2324  0.0454
 5197TIP3    H137082   5.618   6.075  14.678 -0.1296  0.7982  0.5446
 5197TIP3    H237083   5.557   5.948  14.733 -1.1568  1.4759  0.9768
 5198TIP3   OH237084   1.815   4.518  17.254 -0.3014 -0.3309 -1.0284
 5198TIP3    H137085   1.892   4.576  17.252  0.1577 -0.8228  0.9715
 5198TIP3    H237086   1.839   4.450  17.317 -2.4234 -0.4284 -0.2920
 5199TIP3   OH237087   4.553   3.352   3.015  0.3034  0.3039 -0.4854
 5199TIP3    H137088   4.617   3.364   3.085 -1.3987 -0.8368  1.2851
 5199TIP3    H237089   4.579   3.270   2.973 -0.0997 -0.2427  0.3345
 5200TIP3   OH237090   1.555   0.924   5.853  0.2228 -0.6094 -0.3829
 5200TIP3    H137091   1.561   0.876   5.936  2.5642 -0.3070 -0.3663
 5200TIP3    H237092   1.461   0.942   5.844  0.0060  0.0763  2.6067
 5201TIP3   OH237093   2.243   1.497  17.080  0.4803 -0.3358 -0.0065
 5201TIP3    H137094   2.203   1.515  16.994  0.2482 -0.0007  0.1684
 5201TIP3    H237095   2.215   1.408  17.101  1.3249 -0.7722 -0.7118
 5202TIP3   OH237096   2.745   6.805  12.165  0.4495  0.4658 -0.0448
 5202TIP3    H137097   2.760   6.832  12.256 -1.6883  0.5735  0.3026
 5202TIP3    H237098   2.721   6.713  12.171 -0.6223  0.7174 -0.4075
 5203TIP3   OH237099   0.375   0.502  15.988  0.1340  0.0107 -0.0635
 5203TIP3    H137100   0.297   0.456  16.020  0.8811  1.2758  3.7954
 5203TIP3    H237101   0.447   0.441  16.003  0.5690  0.8298  1.2672
 5204TIP3   OH237102   1.990   3.358   5.139  0.0867 -0.2239  0.0433
 5204TIP3    H137103   1.912   3.405   5.170 -0.0692 -0.0610 -0.6003
 5204TIP3    H237104   2.046   3.426   5.102 -0.2861 -0.5778 -1.2006
 5205TIP3   OH237105   4.493   6.427   0.968  0.0583 -0.5019  0.6284
 5205TIP3    H137106   4.492   6.487   1.042 -0.6337 -1.3570  1.3190
 5205TIP3    H237107   4.578   6.383   0.974 -0.1906 -0.9136  1.2050
 5206TIP3   OH237108   6.122   5.486   5.301 -0.2966 -0.2596  0.0894
 5206TIP3    H137109   6.039   5.502   5.345 -0.6463 -1.7283 -0.0140
 5206TIP3    H237110   6.143   5.569   5.258 -1.6109  0.1736  0.2716
 5207TIP3   OH237111   0.087   2.478   3.124  0.0060 -0.6763 -0.1882
 5207TIP3    H137112   0.112   2.421   3.196 -0.3564  0.3920  0.7867
 5207TIP3    H237113   0.010   2.436   3.086  0.3553 -1.3816 -0.1417
 5208TIP3   OH237114   3.187   0.441  11.885  0.2754 -0.3455  0.6423
 5208TIP3    H137115   3.186   0.521  11.937  0.6111  0.1840 -0.1510
 5208TIP3    H237116   3.273   0.401  11.903  2.2221  2.0222 -2.7172
 5209TIP3   OH237117   5.444   6.015  16.440  0.2853 -0.2713 -0.3205
 5209TIP3    H137118   5.428   6.071  16.364 -0.4891  0.0276  0.0616
 5209TIP3    H237119   5.417   5.928  16.411 -0.6020 -0.0436 -0.1866
 5210TIP3   OH237120   4.643   0.184  17.162 -0.2749 -0.0749  0.5259
 5210TIP3    H137121   4.555   0.168  17.196  0.1482 -2.2677  0.6625
 5210TIP3    H237122   4.693   0.215  17.238 -0.5283 -0.4460  0.8476
 5211TIP3   OH237123   1.805   1.562  12.400  0.2874 -0.3704  0.1862
 5211TIP3    H137124   1.827   1.502  12.329 -2.0163 -1.8420  0.6798
 5211TIP3    H237125   1.810   1.509  12.480 -0.3258  0.4648  0.7967
 5212TIP3   OH237126   4.528   5.153   5.735 -0.2680 -0.3840  0.6008
 5212TIP3    H137127   4.587   5.111   5.672  0.2267  1.4323 -0.1621
 5212TIP3    H237128   4.583   5.170   5.811  0.6589  2.8333 -0.7367
 5213TIP3   OH237129   2.935   2.636  15.967 -0.1394 -0.1753 -0.4981
 5213TIP3    H137130   2.929   2.728  15.994 -0.9255 -0.3441 -0.0720
 5213TIP3    H237131   2.975   2.592  16.042 -0.8424 -0.3751 -0.2392
 5214TIP3   OH237132   2.210   5.444  14.593  0.1614  0.1418  0.1340
 5214TIP3    H137133   2.146   5.510  14.568 -2.1499 -0.9017  3.0108
 5214TIP3    H237134   2.224   5.458  14.687  1.4677 -1.9275  0.2963
 5215TIP3   OH237135   5.059   1.687  15.980 -0.3462  0.2614 -0.0306
 5215TIP3    H137136   5.027   1.604  16.014  0.2814  0.2359  0.5301
 5215TIP3    H237137   5.139   1.664  15.932 -0.5320  0.4562 -0.4283
 5216TIP3   OH237138   2.301   0.863  16.221 -0.0756  0.0291  0.2181
 5216TIP3    H137139   2.270   0.773  16.231 -1.3503 -0.0246 -3.3771
 5216TIP3    H237140   2.225   0.917  16.241  0.2152  0.2492  0.7312
 5217TIP3   OH237141   3.042   3.884  11.853  0.1611 -0.4751 -0.3571
 5217TIP3    H137142   2.970   3.946  11.865  0.3268 -0.1688 -0.9414
 5217TIP3    H237143   3.000   3.806  11.817  0.0698 -0.4232 -0.3635
 5218TIP3   OH237144   5.951   0.904  10.949 -0.4714 -0.1889 -0.9734
 5218TIP3    H137145   5.910   0.829  10.991  1.6721 -0.0517  1.4608
 5218TIP3    H237146   6.020   0.867  10.894  1.4867  0.0125  1.2764
 5219TIP3   OH237147   3.319   0.273  14.560  0.2712 -0.6130 -0.8554
 5219TIP3    H137148   3.365   0.191  14.580  3.2936  1.5742  1.8742
 5219TIP3    H237149   3.256   0.283  14.631  0.0560 -0.5072 -1.0639
 5220TIP3   OH237150   0.547   4.800   6.190  0.3912  0.1402 -0.3275
 5220TIP3    H137151   0.471   4.752   6.223 -0.3296 -0.3631 -2.6485
 5220TIP3    H237152   0.619   4.774   6.248 -1.1793  0.6163  1.8789
 5221TIP3   OH237153   5.802   3.544   2.827  0.3497 -0.2627  0.6605
 5221TIP3    H137154   5.817   3.482   2.899  0.1793  0.7104  1.5497
 5221TIP3    H237155   5.890   3.572   2.801  0.5128 -2.1386 -0.8816
 5222TIP3   OH237156   3.828   1.406   0.793  0.3023 -0.0882 -0.1075
 5222TIP3    H137157   3.763   1.456   0.744  1.6393 -1.1677 -3.1029
 5222TIP3    H237158   3.912   1.444   0.767  1.0425 -0.1923  1.9850
 5223TIP3   OH237159   1.652   2.154  16.634 -0.3126 -0.2530 -0.2140
 5223TIP3    H137160   1.661   2.149  16.539  0.0886  0.9199 -0.2506
 5223TIP3    H237161   1.739   2.136  16.668 -0.0069  1.2640 -0.1573
 5224TIP3   OH237162   4.351   6.333  13.854 -0.2270  0.1376  0.7000
 5224TIP3    H137163   4.314   6.420  13.871 -0.8817  0.0216 -0.0657
 5224TIP3    H237164   4.442   6.339  13.884 -0.1848  1.1755  0.3915
 5225TIP3   OH237165   2.923   4.018  15.430  0.3177  0.0293 -0.1521
 5225TIP3    H137166   2.995   3.988  15.485 -0.1886 -0.6175  0.1718
 5225TIP3    H237167   2.864   4.062  15.491 -0.9338 -1.9207  0.0919
 5226TIP3   OH237168   5.888   2.704  14.708  0.4734  0.0026  0.0075
 5226TIP3    H137169   5.909   2.757  14.631 -2.3205  0.2036 -0.6649
 5226TIP3    H237170   5.908   2.760  14.782  0.5526  0.8299 -0.6353
 5227TIP3   OH237171   1.922   5.195  11.723 -0.3696 -0.0859 -0.6657
 5227TIP3    H137172   2.001   5.150  11.693 -0.4390 -0.7190  0.0810
 5227TIP3    H237173   1.940   5.217  11.814 -0.6281  0.7399 -0.8148
 5228TIP3   OH237174   3.014   0.639  10.902 -0.1034  0.2041 -0.0839
 5228TIP3    H137175   2.990   0.563  10.956 -1.3661 -0.0658 -0.9854
 5228TIP3    H237176   2.931   0.687  10.891 -0.0034 -0.0994 -2.3098
 5229TIP3   OH237177   1.159   6.142  11.443  0.0217  0.2413  0.4199
 5229TIP3    H137178   1.191   6.069  11.497 -3.2340 -1.0469  0.7186
 5229TIP3    H237179   1.173   6.114  11.353 -2.6154 -1.4884  0.5031
 5230TIP3   OH237180   3.973   4.152   2.779 -0.7175 -0.2301  0.1184
 5230TIP3    H137181   4.030   4.098   2.833  0.4419  1.1962  0.3401
 5230TIP3    H237182   3.944   4.222   2.837 -0.7031  0.4426 -0.6819
 5231TIP3   OH237183   5.751   6.404   1.464 -0.2600  0.2331 -0.0099
 5231TIP3    H137184   5.738   6.312   1.442 -1.4689  0.6560 -1.1238
 5231TIP3    H237185   5.666   6.444   1.447  0.2870  1.5753  0.3972
 5232TIP3   OH237186   4.173   2.395   0.418  0.4887  0.2634 -0.1234
 5232TIP3    H137187   4.115   2.411   0.493 -0.9063  1.4863 -1.4375
 5232TIP3    H237188   4.141   2.453   0.349  3.2627  0.9156 -0.9187
 5233TIP3   OH237189   3.185   4.892   1.912 -0.1782  0.2791 -0.2755
 5233TIP3    H137190   3.175   4.971   1.965 -0.4961 -0.3968  0.6883
 5233TIP3    H237191   3.231   4.921   1.833 -3.0337  2.0381 -1.3828
 5234TIP3   OH237192   6.020   5.138   3.506  0.3523 -0.2441  0.2555
 5234TIP3    H137193   5.925   5.124   3.503  0.4945 -1.1271 -3.3633
 5234TIP3    H237194   6.057   5.051   3.519  0.6884 -0.1308  0.0768
 5235TIP3   OH237195   5.413   6.199  14.837  0.2431  0.0676  0.5637
 5235TIP3    H137196   5.492   6.159  14.802  0.5629  0.1797  1.1515
 5235TIP3    H237197   5.394   6.270  14.776 -1.4921 -2.2107 -1.6431
 5236TIP3   OH237198   2.739   3.930  11.910  0.2904 -0.1989 -0.2801
 5236TIP3    H137199   2.789   4.011  11.913 -1.7703  1.2727 -2.6969
 5236TIP3    H237200   2.656   3.951  11.954 -0.1146 -1.0931 -0.5936
 5237TIP3   OH237201   5.206   2.363  16.418 -0.2946  0.0928 -0.7460
 5237TIP3    H137202   5.196   2.454  16.446 -0.7495 -0.0689 -0.3875
 5237TIP3    H237203   5.142   2.352  16.348 -0.6942 -0.1453 -0.3393
 5238TIP3   OH237204   3.944   0.283  15.500 -0.1216 -0.3868 -0.1859
 5238TIP3    H137205   3.996   0.363  15.496 -2.0790  0.9093 -0.6699
 5238TIP3    H237206   3.860   0.307  15.459 -0.6163 -2.7861 -0.6685
 5239TIP3   OH237207   5.967   0.881  13.846  0.3984  0.4265  0.2071
 5239TIP3    H137208   6.061   0.893  13.862  0.3629  0.2147  0.5927
 5239TIP3    H237209   5.933   0.850  13.930 -0.1917  1.4843  0.3704
 5240TIP3   OH237210   5.119   0.710   6.162 -0.1548  0.6613  0.4847
 5240TIP3    H137211   5.091   0.797   6.134 -1.5995  0.0396 -0.0428
 5240TIP3    H237212   5.159   0.672   6.083 -0.8454  0.3041  0.3064
 5241TIP3   OH237213   6.793   3.165  17.164 -0.3275  0.2564  0.1176
 5241TIP3    H137214   6.852   3.121  17.103 -0.7932  1.0738 -0.9345
 5241TIP3    H237215   6.718   3.105  17.172 -0.8110  0.7016 -1.0512
 5242TIP3   OH237216   3.207   0.482   3.832 -0.4387 -0.1792  0.6178
 5242TIP3    H137217   3.187   0.534   3.910 -1.8071 -1.3426  1.0671
 5242TIP3    H237218   3.301   0.466   3.838 -0.0814  1.7883  0.7336
 5243TIP3   OH237219   3.848   0.682   2.053 -0.3729  0.2581 -0.1955
 5243TIP3    H137220   3.810   0.730   2.126  1.8981 -2.0319  2.5943
 5243TIP3    H237221   3.846   0.590   2.080 -0.1693 -0.7632 -3.3502
 5244TIP3   OH237222   2.711   5.926   2.312  0.3986 -0.2581 -0.1394
 5244TIP3    H137223   2.705   6.016   2.281 -0.4596 -0.1631  0.2784
 5244TIP3    H237224   2.757   5.931   2.395 -2.2636  0.1795  1.3777
 5245TIP3   OH237225   5.102   5.883  14.994 -0.6308  0.7737  0.0967
 5245TIP3    H137226   5.091   5.788  15.002  0.2504  0.8912  3.3208
 5245TIP3    H237227   5.021   5.920  15.031 -2.0315  1.3006 -3.3342
 5246TIP3   OH237228   3.097   5.880  13.112 -0.1746  0.0336  0.8683
 5246TIP3    H137229   3.152   5.805  13.092  2.6692  2.5293 -1.0399
 5246TIP3    H237230   3.123   5.906  13.201  1.7329  1.1307  0.0218
 5247TIP3   OH237231   3.503   1.992   1.959  0.1152  0.2316  0.0921
 5247TIP3    H137232   3.461   1.991   1.873  0.5137 -0.2540 -0.1012
 5247TIP3    H237233   3.463   1.920   2.006 -1.0501  1.3168  0.7809
 5248TIP3   OH237234   6.575   5.924  11.545  0.1422  0.3063 -0.3396
 5248TIP3    H137235   6.541   5.849  11.498  0.2790  0.6000 -0.9079
 5248TIP3    H237236   6.515   5.996  11.524 -0.0639  0.3318  0.3019
 5249TIP3   OH237237   6.595   6.061   2.873 -0.3020 -0.0830 -0.0546
 5249TIP3    H137238   6.549   6.089   2.794 -1.2589  0.3885  0.6510
 5249TIP3    H237239   6.687   6.063   2.850 -0.4882  1.4003 -0.7444
 5250TIP3   OH237240   4.439   3.220   3.737 -0.1224  0.2574 -0.6384
 5250TIP3    H137241   4.531   3.228   3.761 -0.8847  2.1505  1.9182
 5250TIP3    H237242   4.405   3.153   3.796 -0.8030  0.9926 -0.1844
 5251TIP3   OH237243   2.302   6.112  13.993 -0.0762 -0.5372  0.7068
 5251TIP3    H137244   2.315   6.206  14.006  0.7603 -0.4914 -0.2997
 5251TIP3    H237245   2.237   6.107  13.923 -0.9508 -0.7206  1.5337
 5252TIP3   OH237246   5.435   0.532  12.958  0.3733  0.6015 -0.1717
 5252TIP3    H137247   5.519   0.493  12.984  0.6340  1.5072  0.3780
 5252TIP3    H237248   5.454   0.626  12.952 -0.4962  0.7574 -0.4804
 5253TIP3   OH237249   1.171   3.469   3.202 -0.3738  0.3116  0.4923
 5253TIP3    H137250   1.209   3.387   3.233 -0.4944  1.5293  4.0915
 5253TIP3    H237251   1.092   3.480   3.254 -1.2115  1.9390 -1.0864
 5254TIP3   OH237252   4.634   3.618  16.161  0.1346  0.3667  0.3068
 5254TIP3    H137253   4.722   3.645  16.189 -1.0578  3.4920  1.2326
 5254TIP3    H237254   4.636   3.627  16.066  0.5489  1.3423  0.3982
 5255TIP3   OH237255   2.289   3.764   0.639 -0.2900  0.2760  0.2799
 5255TIP3    H137256   2.213   3.783   0.585 -0.1359 -1.2752 -0.5225
 5255TIP3    H237257   2.363   3.798   0.589 -0.3797  1.0950  0.6995
 5256TIP3   OH237258   3.140   3.228   0.821 -0.3893  0.5174  0.1150
 5256TIP3    H137259   3.224   3.268   0.843 -0.1812 -0.7103  1.6105
 5256TIP3    H237260   3.120   3.262   0.734  0.8722  2.0858  0.4070
 5257TIP3   OH237261   3.431   5.084  13.072  0.7674  0.3697 -0.4450
 5257TIP3    H137262   3.464   4.997  13.047  1.1345  0.8275 -1.5903
 5257TIP3    H237263   3.337   5.072  13.081  0.8719 -0.2573 -0.1278
 5258TIP3   OH237264   2.681   4.765   2.205 -0.1254  0.5288 -0.1730
 5258TIP3    H137265   2.652   4.675   2.188  0.2162  0.7987 -2.2379
 5258TIP3    H237266   2.775   4.758   2.219  0.0207  0.6664 -1.0891
 5259TIP3   OH237267   2.419   2.526   1.398 -0.9416 -0.0945 -0.2135
 5259TIP3    H137268   2.447   2.437   1.420 -0.8374 -1.0120 -3.7205
 5259TIP3    H237269   2.500   2.575   1.386 -0.9324 -0.3574 -1.3028
 5260TIP3   OH237270   3.869   5.008   2.292 -0.0060 -0.1022 -0.3616
 5260TIP3    H137271   3.922   4.941   2.248  0.0753  1.3957 -2.6712
 5260TIP3    H237272   3.782   4.998   2.254 -1.0852 -1.6290  2.3884
 5261TIP3   OH237273   6.212   1.325  12.508 -0.8405 -0.3846 -0.1905
 5261TIP3    H137274   6.265   1.319  12.428 -0.3980 -0.1590  0.0861
 5261TIP3    H237275   6.161   1.406  12.496 -1.1855 -0.6424 -0.4907
 5262TIP3   OH237276   2.627   3.065   4.999  0.2702  0.2512 -0.3301
 5262TIP3    H137277   2.705   3.010   4.991 -0.0342 -0.3769  0.8112
 5262TIP3    H237278   2.556   3.009   4.968 -0.2521 -0.5519  2.2216
 5263TIP3   OH237279   5.120   5.374   3.548 -0.0011  0.6109 -0.2397
 5263TIP3    H137280   5.034   5.405   3.522 -0.7133 -0.3143  0.9506
 5263TIP3    H237281   5.164   5.355   3.465 -1.8838 -1.3664 -0.8499
 5264TIP3   OH237282   3.070   6.044  12.624 -0.2700 -0.0088 -0.2725
 5264TIP3    H137283   3.033   5.963  12.590  0.5277 -0.3135 -0.4455
 5264TIP3    H237284   3.130   6.074  12.556  0.5155 -0.0416  0.3829
 5265TIP3   OH237285   2.137   1.560  12.586  0.7612 -0.1706  0.0703
 5265TIP3    H137286   2.154   1.466  12.578  1.4002  0.0631 -1.4257
 5265TIP3    H237287   2.219   1.596  12.619  0.5844 -0.0947  0.4349
 5266TIP3   OH237288   4.480   1.799  14.944  0.3433  0.1035  0.0395
 5266TIP3    H137289   4.495   1.724  14.887  1.3303  1.0289 -0.9649
 5266TIP3    H237290   4.448   1.867  14.885 -2.8896 -0.2411  1.3389
 5267TIP3   OH237291   3.844   5.451  15.753 -0.3247  0.2632 -0.5018
 5267TIP3    H137292   3.824   5.493  15.837 -1.6972 -1.0860 -0.1331
 5267TIP3    H237293   3.917   5.502  15.718 -2.3753  3.4642 -0.4112
 5268TIP3   OH237294   0.543   4.835   3.131 -0.1755  0.0543 -0.1385
 5268TIP3    H137295   0.551   4.831   3.226  2.1408 -1.9933 -0.3668
 5268TIP3    H237296   0.602   4.905   3.104 -1.4880  1.2212 -0.0265
 5269TIP3   OH237297   3.581   6.765  12.080  0.2738  0.8071 -0.3480
 5269TIP3    H137298   3.501   6.735  12.037  0.8635 -0.7951 -0.3238
 5269TIP3    H237299   3.581   6.721  12.165  1.5897  0.1705 -0.6670
 5270TIP3   OH237300   6.588   6.142   1.504  0.5966  0.2798 -0.4968
 5270TIP3    H137301   6.654   6.134   1.573 -0.0885 -0.9832  0.0140
 5270TIP3    H237302   6.636   6.127   1.423  0.7175 -1.7695 -0.0518
 5271TIP3   OH237303   3.192   1.115   2.037 -0.3929 -0.5027  0.5154
 5271TIP3    H137304   3.278   1.102   2.078  0.2030 -2.4926 -1.2942
 5271TIP3    H237305   3.208   1.108   1.943 -2.3126  0.5398  0.0848
 5272TIP3   OH237306   1.725   2.059  11.828  0.0789 -0.2162  0.0462
 5272TIP3    H137307   1.651   2.000  11.820  0.0163 -0.0958 -0.2541
 5272TIP3    H237308   1.686   2.142  11.856 -0.1652  0.4807 -2.2826
 5273TIP3   OH237309   1.655   0.591   4.760  0.2992 -0.4377 -0.2259
 5273TIP3    H137310   1.720   0.596   4.690  1.8130  2.0471  1.2843
 5273TIP3    H237311   1.678   0.511   4.807  0.4108 -1.1388 -1.4357
 5274TIP3   OH237312   0.492   5.977  13.528  0.4757 -0.2659  0.3750
 5274TIP3    H137313   0.586   5.990  13.542  0.5167 -0.3790  0.2076
 5274TIP3    H237314   0.468   5.907  13.588  0.3804  0.1584  0.8323
 5275TIP3   OH237315   3.237   2.045  10.892 -0.5095 -0.0522  0.0777
 5275TIP3    H137316   3.259   1.955  10.868  0.2027  0.2701 -0.4932
 5275TIP3    H237317   3.145   2.054  10.870 -0.6412 -0.7078  0.3426
 5276TIP3   OH237318   2.957   0.089  14.302  0.2540 -0.5028  0.2391
 5276TIP3    H137319   2.892   0.058  14.366 -1.1816  1.1022 -0.3778
 5276TIP3    H237320   2.933   0.045  14.220  0.3988 -0.4858  0.1873
 5277TIP3   OH237321   4.391   4.275   3.972 -0.1961  0.4396  0.5159
 5277TIP3    H137322   4.379   4.354   4.025  0.3888  0.3455  0.7926
 5277TIP3    H237323   4.334   4.210   4.012 -1.6802  1.0920 -0.5027
 5278TIP3   OH237324   1.352   5.102  13.026 -0.3630  0.0095  0.2177
 5278TIP3    H137325   1.434   5.054  13.026  0.0820  0.7521  0.4774
 5278TIP3    H237326   1.359   5.162  12.951 -0.3274  0.6288  0.7089
 5279TIP3   OH237327   0.938   3.858   3.114  0.5362 -0.3534 -0.3051
 5279TIP3    H137328   0.970   3.912   3.042  0.5436 -0.4998 -0.4117
 5279TIP3    H237329   1.017   3.826   3.157  0.5879  2.1512  1.6092
 5280TIP3   OH237330   4.050   2.926   6.129 -0.4577  0.0951  0.7812
 5280TIP3    H137331   4.024   2.866   6.199 -0.9862 -0.1489  0.3824
 5280TIP3    H237332   3.984   2.996   6.131 -0.2990  0.2465  0.7283
 5281TIP3   OH237333   6.750   3.485   1.864 -0.1450 -0.0216 -0.0380
 5281TIP3    H137334   6.677   3.538   1.832  0.6777  1.3694  0.3638
 5281TIP3    H237335   6.750   3.408   1.807 -1.2916  0.4479 -0.6899
 5282TIP3   OH237336   6.503   1.824   6.384 -0.4998 -0.1843  0.3672
 5282TIP3    H137337   6.441   1.808   6.313  2.1631 -0.8953 -1.8883
 5282TIP3    H237338   6.457   1.795   6.463 -2.8807 -1.0174 -1.2757
 5283TIP3   OH237339   0.267   5.057   0.087  0.4803  0.0710 -0.9634
 5283TIP3    H137340   0.264   4.965   0.063  2.2717 -0.8711  2.1129
 5283TIP3    H237341   0.361   5.078   0.087  0.2114  1.3369  0.2487
 5284TIP3   OH237342   5.449   0.531   5.697 -0.1452 -0.0767 -0.0279
 5284TIP3    H137343   5.356   0.550   5.692 -0.3207 -0.9254 -0.1502
 5284TIP3    H237344   5.454   0.435   5.695  0.7457 -0.0312 -0.3511
 5285TIP3   OH237345   0.343   4.217   6.659 -0.3384 -0.0008 -0.0843
 5285TIP3    H137346   0.362   4.124   6.654 -0.5677 -0.0474 -0.1065
 5285TIP3    H237347   0.371   4.243   6.746 -0.3985 -0.1191 -0.0297
 5286TIP3   OH237348   4.138   5.504  14.473 -0.1124  0.2270 -0.5630
 5286TIP3    H137349   4.210   5.532  14.529 -0.3782  3.1348 -1.5785
 5286TIP3    H237350   4.118   5.581  14.419 -1.8203 -1.5421 -2.5703
 5287TIP3   OH237351   1.195   4.843   1.618 -0.1761  0.0126  0.1820
 5287TIP3    H137352   1.215   4.930   1.652 -0.0922  0.3577 -0.7243
 5287TIP3    H237353   1.151   4.798   1.690  0.9413  0.3544  1.0953
 5288TIP3   OH237354   0.347   6.749   2.098 -0.6451  0.3743  0.0025
 5288TIP3    H137355   0.441   6.756   2.118 -0.9857  0.5852  1.5817
 5288TIP3    H237356   0.330   6.820   2.037  0.5901 -0.7713 -1.7322
 5289TIP3   OH237357   4.319   3.974  13.009 -0.3720 -0.2577  0.2478
 5289TIP3    H137358   4.317   4.041  13.077 -0.8467  0.9282 -0.8992
 5289TIP3    H237359   4.233   3.934  13.011 -1.1701  1.3180 -1.1171
 5290TIP3   OH237360   6.029   1.904   5.999 -0.1110 -0.7208 -0.6711
 5290TIP3    H137361   6.026   1.920   6.093  2.0759 -0.8764 -0.5445
 5290TIP3    H237362   5.971   1.830   5.985 -0.8855 -0.3384  0.4767
 5291TIP3   OH237363   3.369   3.988   4.737  0.1057  0.0743  0.2428
 5291TIP3    H137364   3.274   3.989   4.741 -0.0527  1.3326 -2.6599
 5291TIP3    H237365   3.397   4.045   4.809 -1.3703  0.5351  0.4584
 5292TIP3   OH237366   1.666   3.202   4.858 -0.0273  0.4260  0.1535
 5292TIP3    H137367   1.624   3.161   4.783  0.3647 -0.4434  0.4015
 5292TIP3    H237368   1.750   3.156   4.866  0.0943  0.7737  0.8918
 5293TIP3   OH237369   6.443   1.365  12.890 -0.7983  0.2328  0.0860
 5293TIP3    H137370   6.537   1.384  12.885 -0.8795  0.1376 -2.0201
 5293TIP3    H237371   6.414   1.410  12.969  0.7973  1.1826  0.1531
 5294TIP3   OH237372   3.952   0.216   3.587  0.2912 -0.1561  0.0089
 5294TIP3    H137373   3.897   0.219   3.665 -0.0981  0.8640 -0.3063
 5294TIP3    H237374   3.915   0.280   3.527  2.5556  1.4683  0.2723
 5295TIP3   OH237375   1.718   1.935   6.116 -0.0316 -0.2905  0.1350
 5295TIP3    H137376   1.634   1.902   6.148 -0.6276  0.9250 -0.1487
 5295TIP3    H237377   1.781   1.907   6.183 -0.4319 -2.3327 -0.2921
 5296TIP3   OH237378   6.388   5.965  11.914  0.1303 -0.0545 -0.3875
 5296TIP3    H137379   6.445   6.006  11.848 -0.7068  0.6903 -0.6644
 5296TIP3    H237380   6.372   5.877  11.880  0.2030  0.1160 -0.8685
 5297TIP3   OH237381   5.133   1.408   5.695 -0.2210 -0.1008 -0.9131
 5297TIP3    H137382   5.215   1.388   5.650  0.2844  0.3761 -0.2248
 5297TIP3    H237383   5.128   1.345   5.767 -0.5781 -0.2893 -1.1043
 5298TIP3   OH237384   3.351   2.650   3.848 -0.1776 -0.2956  0.5326
 5298TIP3    H137385   3.377   2.724   3.903 -1.1503 -0.7580  1.6405
 5298TIP3    H237386   3.383   2.573   3.896  1.3238 -0.5829 -0.8838
 5299TIP3   OH237387   1.649   2.847  13.013 -0.4148  0.4815  0.3969
 5299TIP3    H137388   1.622   2.812  13.098  0.3877 -1.8110 -0.2368
 5299TIP3    H237389   1.578   2.824  12.954  0.3268 -0.5265 -0.1204
 5300TIP3   OH237390   1.643   2.641  16.683  0.2933 -0.3864 -0.3081
 5300TIP3    H137391   1.644   2.698  16.606  1.1441 -0.1650 -0.1338
 5300TIP3    H237392   1.667   2.555  16.650  1.5402 -0.1058 -0.1470
 5301TIP3   OH237393   6.219   1.846  16.924 -0.6119 -0.2386  0.1219
 5301TIP3    H137394   6.215   1.791  16.846 -0.4675  0.6660 -0.5349
 5301TIP3    H237395   6.300   1.896  16.914 -0.2005 -0.6642  1.2287
 5302TIP3   OH237396   5.249   1.041  12.334  0.3089  0.0941  0.1615
 5302TIP3    H137397   5.195   1.103  12.285 -0.4084  1.5856  2.7514
 5302TIP3    H237398   5.339   1.070  12.319  0.0411  1.0829  0.4398
 5303TIP3   OH237399   2.460   4.583   2.585  0.3716 -0.2114  0.3461
 5303TIP3    H137400   2.516   4.629   2.523  1.2209 -1.8533 -0.1491
 5303TIP3    H237401   2.407   4.525   2.531  1.3032 -1.8587  1.1472
 5304TIP3   OH237402   3.780   2.712  15.736 -0.2538 -0.1475 -0.3450
 5304TIP3    H137403   3.852   2.687  15.793  0.0915  0.0871 -0.6789
 5304TIP3    H237404   3.751   2.797  15.768 -0.4241 -0.2693 -0.1733
 5305TIP3   OH237405   3.344   5.864   1.479 -0.0638  0.2035  0.0079
 5305TIP3    H137406   3.425   5.830   1.440  1.3724 -0.5347  3.4455
 5305TIP3    H237407   3.357   5.958   1.485 -0.0834  0.2597 -0.7842
 5306TIP3   OH237408   2.999   1.570  14.259  0.0082  0.1060  0.2471
 5306TIP3    H137409   2.930   1.568  14.324 -0.7686  0.0739 -0.5662
 5306TIP3    H237410   2.980   1.496  14.201  1.0870 -0.2926  0.3830
 5307TIP3   OH237411   3.801   3.952   3.025  0.2021 -0.3184  0.0502
 5307TIP3    H137412   3.858   3.939   3.101  1.8437 -0.2898 -1.1531
 5307TIP3    H237413   3.721   3.990   3.062  0.5488 -1.2967  1.8939
 5308TIP3   OH237414   1.902   5.781   2.033  0.2401  0.4673  0.1619
 5308TIP3    H137415   1.821   5.826   2.009 -1.3237 -2.1477  0.2397
 5308TIP3    H237416   1.912   5.799   2.126  0.7800  2.3209 -0.2363
 5309TIP3   OH237417   0.333   1.084  13.314 -0.1885  0.2512 -0.3591
 5309TIP3    H137418   0.320   1.132  13.395 -0.2719  0.2747 -0.3872
 5309TIP3    H237419   0.398   1.135  13.266 -0.1352  0.2345 -0.3062
 5310TIP3   OH237420   3.303   2.501  11.631 -0.3795 -0.1746 -0.0456
 5310TIP3    H137421   3.368   2.542  11.689  0.4547 -0.5449 -0.7051
 5310TIP3    H237422   3.245   2.454  11.690  0.7183 -0.8984  0.4743
 5311TIP3   OH237423   0.526   6.810   0.305 -0.4861 -0.4275 -0.5233
 5311TIP3    H137424   0.579   6.751   0.360  1.5567  0.3212 -1.6282
 5311TIP3    H237425   0.589   6.847   0.244 -2.1490  1.3024 -1.2018
 5312TIP3   OH237426   6.320   3.093  11.119 -0.1581 -0.3490  0.1678
 5312TIP3    H137427   6.345   3.032  11.049 -2.8160 -0.6019 -0.6017
 5312TIP3    H237428   6.303   3.176  11.074  0.6540  0.1925  0.8497
 5313TIP3   OH237429   0.053   1.139  17.277  0.6285 -0.3597  0.2271
 5313TIP3    H137430  -0.002   1.082  17.331  0.3107 -0.9504 -0.7177
 5313TIP3    H237431  -0.002   1.163  17.203 -0.4909  4.0694  2.3109
 5314TIP3   OH237432   1.593   5.752  16.094 -0.3722 -0.2864  0.8276
 5314TIP3    H137433   1.603   5.657  16.096 -2.0470 -0.8280 -5.4838
 5314TIP3    H237434   1.503   5.768  16.121 -0.5913 -0.6438  0.3041
 5315TIP3   OH237435   1.977   5.413   3.420 -0.6469 -0.1033 -0.2403
 5315TIP3    H137436   1.973   5.331   3.371 -2.1441 -0.4697  0.4838
 5315TIP3    H237437   1.995   5.480   3.353  0.8908 -1.0460 -0.7819
 5316TIP3   OH237438   6.413   6.392   5.051 -0.0264  0.2597  0.3777
 5316TIP3    H137439   6.356   6.354   4.985  0.0530 -0.7862  0.9049
 5316TIP3    H237440   6.495   6.410   5.004 -0.9289  2.2508 -0.5053
 5317TIP3   OH237441   1.854   2.056   3.987  0.5216 -0.2139 -0.6456
 5317TIP3    H137442   1.788   2.089   4.049  1.1037 -1.3579  0.5888
 5317TIP3    H237443   1.805   2.044   3.905 -1.4241 -3.4282  0.9120
 5318TIP3   OH237444   0.268   6.418   1.840  0.4231  0.0620  0.1465
 5318TIP3    H137445   0.216   6.459   1.771 -1.8707 -0.4848  1.4846
 5318TIP3    H237446   0.318   6.489   1.879 -1.3901  1.1000  0.6144
 5319TIP3   OH237447   1.032   3.355   3.525  0.0701 -0.2996  0.1580
 5319TIP3    H137448   1.119   3.370   3.560  0.1155 -0.8433  0.2761
 5319TIP3    H237449   1.009   3.266   3.553  0.2847 -0.9213 -1.5479
 5320TIP3   OH237450   3.098   3.720  13.810  0.1135  0.1787 -0.2535
 5320TIP3    H137451   3.080   3.792  13.870  2.1961 -0.6865  1.4575
 5320TIP3    H237452   3.097   3.642  13.865 -0.7090 -0.9567 -1.8448
 5321TIP3   OH237453   5.523   5.442  14.548  0.3480 -0.2503 -0.0902
 5321TIP3    H137454   5.448   5.409  14.499 -0.0877  2.2088 -1.1021
 5321TIP3    H237455   5.485   5.491  14.620  1.0002  0.1001  0.0173
 5322TIP3   OH237456   5.699   2.071   2.424 -0.1174 -0.1770 -0.3389
 5322TIP3    H137457   5.713   1.977   2.424 -0.3771 -0.2157 -1.2258
 5322TIP3    H237458   5.683   2.093   2.516 -0.8256 -1.1095 -0.2373
 5323TIP3   OH237459   1.150   5.795  16.573 -0.4754 -0.2461  0.0548
 5323TIP3    H137460   1.179   5.796  16.664  1.7880 -1.6755 -0.6128
 5323TIP3    H237461   1.057   5.819  16.577 -0.5157 -0.6995  2.7728
 5324TIP3   OH237462   5.495   2.165   4.369  0.7034 -0.2002 -0.5843
 5324TIP3    H137463   5.457   2.245   4.333  0.4006  0.1755  0.5311
 5324TIP3    H237464   5.492   2.102   4.297 -0.5023  0.3237 -1.0150
 5325TIP3   OH237465   3.496   5.224   5.713 -0.5830  0.6811  0.2327
 5325TIP3    H137466   3.555   5.285   5.758 -1.1223  1.3171  0.0876
 5325TIP3    H237467   3.434   5.196   5.781  1.4208 -1.9801  1.0235
 5326TIP3   OH237468   2.672   4.654  11.098 -0.0716  0.0283 -0.2832
 5326TIP3    H137469   2.704   4.645  11.009  1.1662  1.1124  0.0375
 5326TIP3    H237470   2.699   4.573  11.142 -0.2282 -0.2748 -0.7487
 5327TIP3   OH237471   1.764   4.278   3.790 -0.0751  0.1206  0.1352
 5327TIP3    H137472   1.716   4.196   3.779 -1.7930  0.6653  3.0205
 5327TIP3    H237473   1.793   4.301   3.701  0.2298 -3.4430 -0.7499
 5328TIP3   OH237474   6.577   1.991  11.737 -0.5033  0.0197  0.2733
 5328TIP3    H137475   6.526   1.996  11.657  0.0754  1.4999 -0.0105
 5328TIP3    H237476   6.665   1.963  11.709  0.2046  2.2956  0.1528
 5329TIP3   OH237477   3.270   0.898  17.052 -0.1621  0.0367 -0.2299
 5329TIP3    H137478   3.209   0.825  17.046 -0.3146  0.1534 -0.1131
 5329TIP3    H237479   3.354   0.858  17.076 -0.5374  0.0256  1.1114
 5330TIP3   OH237480   2.283   2.691  16.283 -0.0648 -0.0689  0.7904
 5330TIP3    H137481   2.338   2.651  16.216 -0.5015  0.4027  0.1447
 5330TIP3    H237482   2.341   2.701  16.359 -0.1831 -2.7686  1.2814
 5331TIP3   OH237483   2.972   3.584  15.777 -0.1806 -0.6245  0.3440
 5331TIP3    H137484   3.039   3.578  15.845  0.3904  0.3009 -0.1274
 5331TIP3    H237485   3.010   3.541  15.701 -0.0597  0.0332  0.0315
 5332TIP3   OH237486   0.905   5.148   2.816  0.3890 -0.2689  0.0262
 5332TIP3    H137487   0.994   5.135   2.850  1.1973  0.2764 -1.7819
 5332TIP3    H237488   0.865   5.061   2.817  0.8112 -0.4554  1.1899
 5333TIP3   OH237489   1.422   2.360   3.434 -0.4877  0.2114  0.1857
 5333TIP3    H137490   1.461   2.344   3.520 -1.7219  1.3331  0.9705
 5333TIP3    H237491   1.403   2.273   3.400  0.6917 -0.2677  0.7137
 5334TIP3   OH237492   5.626   3.606   0.822  0.7847 -0.2179  0.1795
 5334TIP3    H137493   5.675   3.590   0.902  0.5464  0.0250  0.3751
 5334TIP3    H237494   5.652   3.535   0.763 -0.5955 -1.6274  1.1993
 5335TIP3   OH237495   2.467   5.939  15.305 -0.3748 -0.6807  0.7158
 5335TIP3    H137496   2.396   5.929  15.242  0.1648  0.0693 -0.0193
 5335TIP3    H237497   2.442   6.013  15.359  0.0043 -0.1871  0.2262
 5336TIP3   OH237498   0.269   2.225  14.466 -0.0774 -0.7249  0.2337
 5336TIP3    H137499   0.289   2.296  14.528 -1.8760 -0.3771  0.4319
 5336TIP3    H237500   0.198   2.176  14.507  0.8507 -2.4075 -0.1092
 5337TIP3   OH237501   4.845   3.248   1.754 -0.3221 -0.2063  0.2944
 5337TIP3    H137502   4.937   3.236   1.780 -0.4865 -0.1242  0.9264
 5337TIP3    H237503   4.840   3.211   1.666  0.3232 -0.2015  0.2533
 5338TIP3   OH237504   2.796   3.530  12.658 -1.0000 -0.2120  0.8657
 5338TIP3    H137505   2.750   3.612  12.678 -2.2039 -0.5691 -0.4089
 5338TIP3    H237506   2.740   3.461  12.693 -0.6177 -0.5729  0.7790
 5339TIP3   OH237507   2.514   1.241   1.795  0.3329  0.1283  0.0326
 5339TIP3    H137508   2.456   1.168   1.776 -0.4066  0.7921 -0.2863
 5339TIP3    H237509   2.592   1.225   1.741  0.0546 -0.2733 -0.2494
 5340TIP3   OH237510   3.841   0.066  12.744  0.4736  0.4643 -0.1026
 5340TIP3    H137511   3.840  -0.015  12.693 -0.0952  0.1949  0.3246
 5340TIP3    H237512   3.754   0.070  12.784  0.1810  1.7388 -0.8357
 5341TIP3   OH237513   0.882   1.773   6.669 -0.0030  0.5592 -0.3765
 5341TIP3    H137514   0.970   1.745   6.696 -0.6894 -0.9459  0.3267
 5341TIP3    H237515   0.825   1.745   6.741 -1.0353  1.7526 -0.7169
 5342TIP3   OH237516   2.332   3.505  12.612 -0.2446 -0.0626  0.3228
 5342TIP3    H137517   2.381   3.550  12.681 -0.2234  1.3686 -0.6051
 5342TIP3    H237518   2.364   3.545  12.531  0.5219 -2.4916 -0.5939
 5343TIP3   OH237519   1.516   2.537   4.398 -0.0282  0.5057  0.5696
 5343TIP3    H137520   1.463   2.491   4.463  0.0051  1.2669  1.1363
 5343TIP3    H237521   1.510   2.482   4.319 -1.6692  0.5926  0.6183
 5344TIP3   OH237522   4.628   0.273  15.183  0.2337  0.0569 -0.9680
 5344TIP3    H137523   4.549   0.319  15.155 -0.0091 -0.3524 -0.9501
 5344TIP3    H237524   4.602   0.228  15.263  0.9884  1.4199  0.0675
 5345TIP3   OH237525   1.608   4.590   5.116 -0.9843  0.2948  0.7437
 5345TIP3    H137526   1.590   4.544   5.198  2.0277 -1.2566  0.6087
 5345TIP3    H237527   1.620   4.520   5.051 -0.7253  1.4151 -0.4397
 5346TIP3   OH237528   1.931   2.935   4.043 -0.0196  0.3016  0.5166
 5346TIP3    H137529   1.893   2.928   3.955  0.4876  0.0669  0.3131
 5346TIP3    H237530   1.866   2.893   4.100 -0.9333  1.5633  0.4288
 5347TIP3   OH237531   2.830   1.785   2.663 -0.2860 -0.7730 -0.0457
 5347TIP3    H137532   2.827   1.696   2.628 -0.7367 -0.3935 -1.0136
 5347TIP3    H237533   2.762   1.788   2.729 -1.1881 -0.7730 -0.9560
 5348TIP3   OH237534   3.995   3.672  14.354  0.1773  0.0687  0.2031
 5348TIP3    H137535   3.961   3.721  14.429  3.4838  0.5692  1.4640
 5348TIP3    H237536   4.072   3.722  14.325  1.1586 -2.1316 -1.1567
 5349TIP3   OH237537   4.557   3.660   3.925 -0.4207  0.1122 -0.0163
 5349TIP3    H137538   4.577   3.669   3.832 -0.9148 -2.0736 -0.3624
 5349TIP3    H237539   4.467   3.692   3.934 -0.6649 -0.4531 -0.4356
 5350TIP3   OH237540   5.858   3.483   1.952  0.3074  0.1810 -0.1243
 5350TIP3    H137541   5.908   3.525   2.022 -1.3951 -0.2123  1.3792
 5350TIP3    H237542   5.889   3.392   1.951 -0.1486  0.0107  0.6103
 5351TIP3   OH237543   1.728   5.424  14.523  0.4929 -0.4494  0.0321
 5351TIP3    H137544   1.806   5.475  14.499  0.7973 -0.4166  1.0872
 5351TIP3    H237545   1.660   5.490  14.539  1.1698 -0.2816  2.4449
 5352TIP3   OH237546   5.307   0.308   0.867 -0.1546 -0.3110  0.1931
 5352TIP3    H137547   5.266   0.391   0.843 -0.4702 -0.4815  0.1264
 5352TIP3    H237548   5.235   0.244   0.862  0.3971 -0.8429 -1.2095
 5353TIP3   OH237549   1.332   4.529   2.148  0.4418  0.0179 -0.1709
 5353TIP3    H137550   1.259   4.534   2.086 -0.9671  1.1473  1.5365
 5353TIP3    H237551   1.408   4.558   2.098 -0.2219 -1.4358 -2.0546
 5354TIP3   OH237552   4.389   0.752  13.275 -0.0819 -0.0574 -0.0323
 5354TIP3    H137553   4.323   0.731  13.342 -0.9961  2.0180 -0.2303
 5354TIP3    H237554   4.440   0.823  13.314  0.8880 -0.4356 -0.6117
 5355TIP3   OH237555   2.065   3.537  16.939  0.4122 -0.4973 -0.3615
 5355TIP3    H137556   2.043   3.444  16.931 -1.0269 -0.2635  0.5576
 5355TIP3    H237557   2.064   3.553  17.034  0.4023  0.5045 -0.5311
 5356TIP3   OH237558   2.195   3.281   2.239  0.0639 -0.6125  0.0187
 5356TIP3    H137559   2.105   3.275   2.208  0.2656 -0.8244 -0.5338
 5356TIP3    H237560   2.244   3.221   2.183  0.4675 -0.8441  0.6171
 5357TIP3   OH237561   0.874   0.841  13.551 -0.9534  0.6449  0.5397
 5357TIP3    H137562   0.798   0.878  13.506  0.3101  3.6140  0.7366
 5357TIP3    H237563   0.936   0.914  13.557  1.0344 -1.1357  2.3293
 5358TIP3   OH237564   5.064   6.682  16.536  0.3014  0.1226  0.1943
 5358TIP3    H137565   5.046   6.769  16.570  0.3742  0.5552 -0.8701
 5358TIP3    H237566   4.979   6.637  16.538  0.2342  0.2639  0.5944
 5359TIP3   OH237567   4.131   3.614  13.690 -0.4294  0.4972 -0.2876
 5359TIP3    H137568   4.168   3.696  13.722  0.0106  0.4127 -0.5692
 5359TIP3    H237569   4.043   3.637  13.659 -0.9439  0.5409  1.1673
 5360TIP3   OH237570   3.990   4.725  11.395 -0.5251  0.3878 -0.0872
 5360TIP3    H137571   3.922   4.738  11.329  0.8809 -0.5694 -1.7540
 5360TIP3    H237572   4.023   4.636  11.379  0.3921  0.4544  1.3567
 5361TIP3   OH237573   2.492   3.494   4.843 -0.1611 -0.1131  0.3175
 5361TIP3    H137574   2.408   3.447   4.845  0.0831 -0.5681 -0.0526
 5361TIP3    H237575   2.557   3.427   4.864  0.0981  0.2787  0.7911
 5362TIP3   OH237576   5.240   6.357  12.794  0.4416  0.3815  0.2242
 5362TIP3    H137577   5.206   6.387  12.710 -1.2168  0.6225  0.9730
 5362TIP3    H237578   5.227   6.262  12.792 -0.5933  0.5105  0.6429
 5363TIP3   OH237579   5.196   2.186   5.978 -0.3988  0.4446 -0.0048
 5363TIP3    H137580   5.186   2.091   5.976  0.5803  0.3343 -0.1959
 5363TIP3    H237581   5.184   2.210   6.070  1.8356 -0.1731  0.4856
 5364TIP3   OH237582   1.822   5.967   1.520 -0.1183  0.1258 -0.0238
 5364TIP3    H137583   1.879   5.901   1.562 -2.0375 -0.4929  1.6953
 5364TIP3    H237584   1.824   6.041   1.581 -0.2128  0.5663 -0.5585
 5365TIP3   OH237585   1.519   1.678  16.685 -0.0917 -0.1564 -0.0503
 5365TIP3    H137586   1.481   1.667  16.597 -0.6293 -0.2205  0.1853
 5365TIP3    H237587   1.521   1.772  16.698  1.4063 -0.0884 -0.7402
 5366TIP3   OH237588   3.265   2.555  15.480 -0.2511 -0.2223  0.3131
 5366TIP3    H137589   3.280   2.558  15.575 -0.8881  0.9329  0.3936
 5366TIP3    H237590   3.179   2.514  15.470 -1.5474  2.3682  0.4244
 5367TIP3   OH237591   1.768   6.557   1.439  0.7685 -0.7898 -0.3434
 5367TIP3    H137592   1.774   6.463   1.425 -1.5139 -0.7941 -1.5964
 5367TIP3    H237593   1.675   6.577   1.425  0.5166  1.1003  3.4480
 5368TIP3   OH237594   6.280   0.575  14.254  0.4039  0.5361  0.5307
 5368TIP3    H137595   6.211   0.633  14.222  0.5593  0.9239  0.8960
 5368TIP3    H237596   6.243   0.487  14.245  0.0698  0.7040  0.2162
 5369TIP3   OH237597   3.917   4.827  15.578  0.5953 -0.1012 -0.2739
 5369TIP3    H137598   3.982   4.892  15.605 -2.1629  1.7279  2.2156
 5369TIP3    H237599   3.905   4.772  15.656 -2.6297  1.1402  0.1664
 5370TIP3   OH237600   6.058   6.057  15.870 -0.3676  0.4680  0.0936
 5370TIP3    H137601   6.153   6.051  15.867 -0.3624  0.9826 -0.8067
 5370TIP3    H237602   6.027   5.991  15.808 -0.6172 -0.2206  0.9424
 5371TIP3   OH237603   0.806   2.879  15.977 -0.0425 -0.6347 -0.3994
 5371TIP3    H137604   0.775   2.799  16.020  1.4474 -1.7732 -1.4154
 5371TIP3    H237605   0.740   2.945  15.999 -3.0868 -2.9077 -2.3133
 5372TIP3   OH237606   1.905   1.535  13.665 -0.0484  0.0114  0.2794
 5372TIP3    H137607   1.909   1.441  13.646  4.4516  0.1547 -0.0054
 5372TIP3    H237608   1.863   1.573  13.588  2.3945 -1.3143 -1.7943
 5373TIP3   OH237609   4.356   2.203   6.002  0.1110 -0.0249  0.1582
 5373TIP3    H137610   4.320   2.163   5.923  0.7039 -0.3346  0.0363
 5373TIP3    H237611   4.293   2.182   6.071  0.2995 -0.9905  0.0459
 5374TIP3   OH237612   1.337   0.318   0.726  0.1518 -0.2557  0.2350
 5374TIP3    H137613   1.389   0.238   0.719 -0.2752 -0.7629  2.3609
 5374TIP3    H237614   1.401   0.386   0.748  0.4511 -0.0888 -1.1189
 5375TIP3   OH237615   4.763   1.033  11.116  0.3546  0.8089 -0.1131
 5375TIP3    H137616   4.823   0.972  11.073 -1.7626 -1.6340  0.2258
 5375TIP3    H237617   4.754   0.998  11.205 -0.9421  1.5922  0.0695
 5376TIP3   OH237618   1.169   3.809   2.616  0.3687 -0.5611  0.5465
 5376TIP3    H137619   1.189   3.859   2.537  0.0019 -1.2319  0.0279
 5376TIP3    H237620   1.254   3.777   2.647  0.6022  0.3208  0.8521
 5377TIP3   OH237621   3.929   6.789   2.974  0.1452 -0.4738 -0.2540
 5377TIP3    H137622   3.959   6.848   3.043  2.0622 -0.7939 -0.7578
 5377TIP3    H237623   3.949   6.701   3.007  1.1485 -0.6235 -1.2074
 5378TIP3   OH237624   4.037   3.914   0.588  0.3474  0.4529 -0.2261
 5378TIP3    H137625   4.003   3.999   0.561 -1.2222  0.4754  1.6830
 5378TIP3    H237626   3.970   3.880   0.648  1.0367 -2.0533 -0.8573
 5379TIP3   OH237627   6.132   6.153   6.048 -0.1903  0.1680 -0.1666
 5379TIP3    H137628   6.114   6.076   6.102 -0.5087 -0.4357 -1.1056
 5379TIP3    H237629   6.119   6.122   5.958 -1.0094  1.5086 -0.5262
 5380TIP3   OH237630   6.256   5.039   0.483  0.6562  0.1202 -0.6483
 5380TIP3    H137631   6.268   4.948   0.509 -0.6744 -0.5744 -2.3697
 5380TIP3    H237632   6.201   5.078   0.551  1.8096 -0.1437  0.4600
 5381TIP3   OH237633   3.040   6.355  12.612 -0.3341 -0.1251 -0.4217
 5381TIP3    H137634   3.089   6.294  12.667  0.0265 -0.7417 -1.4161
 5381TIP3    H237635   3.039   6.315  12.526 -0.6259  0.9816 -0.9483
 5382TIP3   OH237636   0.033   3.669   5.696 -0.6005  0.3403  0.3650
 5382TIP3    H137637   0.109   3.620   5.665  1.3791  0.3294  4.8563
 5382TIP3    H237638   0.063   3.760   5.698 -0.3617  0.2364  2.9378
 5383TIP3   OH237639   3.138   0.737   0.158  0.1764  0.0527  0.0670
 5383TIP3    H137640   3.150   0.654   0.203 -1.3445 -0.6193 -0.7304
 5383TIP3    H237641   3.226   0.774   0.153  1.5026 -3.1787 -2.7460
 5384TIP3   OH237642   5.502   1.818  13.043  0.0133  0.1823 -0.1391
 5384TIP3    H137643   5.448   1.749  13.004 -0.8374  1.8855 -2.0484
 5384TIP3    H237644   5.438   1.879  13.081  0.6737  1.0544 -0.4249
 5385TIP3   OH237645   2.296   3.566   2.801  0.4169  0.1289 -0.1325
 5385TIP3    H137646   2.254   3.629   2.744 -0.5355  0.5312  0.9908
 5385TIP3    H237647   2.362   3.524   2.746  1.9631  3.0032 -0.5513
 5386TIP3   OH237648   6.104   2.731  16.882 -0.4644  0.2271  0.2912
 5386TIP3    H137649   6.171   2.786  16.843 -0.1244  0.1758  0.7965
 5386TIP3    H237650   6.139   2.642  16.877  0.2850  0.3850  2.1146
 5387TIP3   OH237651   5.526   2.285   2.356 -0.0438 -0.1541  0.9707
 5387TIP3    H137652   5.587   2.229   2.308 -1.0981  0.2116 -0.8401
 5387TIP3    H237653   5.578   2.324   2.426  1.5032 -0.7854  0.1802
 5388TIP3   OH237654   6.175   2.539  16.359 -0.1987  0.0858 -0.0942
 5388TIP3    H137655   6.184   2.465  16.418  0.8030  1.3793  1.4315
 5388TIP3    H237656   6.084   2.535  16.329  0.2956 -2.7006 -1.3786
 5389TIP3   OH237657   3.737   4.524  14.407  0.0951  0.7872  0.0496
 5389TIP3    H137658   3.712   4.497  14.318 -1.8676  0.9784  0.5180
 5389TIP3    H237659   3.705   4.453  14.463 -0.3876  1.5823  0.7882
 5390TIP3   OH237660   1.612   5.589  16.455  0.4603 -0.5169  0.7574
 5390TIP3    H137661   1.565   5.506  16.442  1.0693 -0.8041  0.3589
 5390TIP3    H237662   1.692   5.564  16.501  0.0758  0.0115  1.7077
 5391TIP3   OH237663   5.569   2.268   1.614 -0.0117 -0.3181  0.5064
 5391TIP3    H137664   5.530   2.183   1.597 -1.3160 -0.3185  3.2437
 5391TIP3    H237665   5.540   2.323   1.541 -1.2056 -1.5862  0.0145
 5392TIP3   OH237666   3.031   3.540   3.706  0.6983 -0.3148 -0.5718
 5392TIP3    H137667   3.044   3.635   3.710  1.7443 -0.5216  2.3793
 5392TIP3    H237668   2.953   3.524   3.760  0.2496 -1.1042 -1.4393
 5393TIP3   OH237669   0.697   6.567   3.051 -0.1430 -0.0082  0.3133
 5393TIP3    H137670   0.727   6.510   2.980  1.0843  0.4050  0.4816
 5393TIP3    H237671   0.767   6.632   3.061  0.0648 -0.4946  2.3867
 5394TIP3   OH237672   6.761   2.599   4.990 -0.0586  0.0319 -0.1915
 5394TIP3    H137673   6.777   2.607   5.084 -1.4156  1.1705 -0.0318
 5394TIP3    H237674   6.825   2.657   4.949  1.9772 -2.0969 -0.1401
 5395TIP3   OH237675   4.823   3.704  11.265 -0.2547 -0.0010 -0.0676
 5395TIP3    H137676   4.887   3.764  11.304 -0.5973 -1.1566  2.3277
 5395TIP3    H237677   4.745   3.757  11.254  0.9739  1.3577 -2.7888
 5396TIP3   OH237678   0.103   3.523  15.241  0.3512 -0.1710 -0.1467
 5396TIP3    H137679   0.042   3.549  15.310 -0.5437 -2.1475 -0.1577
 5396TIP3    H237680   0.100   3.428  15.241  0.7407 -0.2151 -2.5598
 5397TIP3   OH237681   4.379   3.511   1.549  0.2001  0.2663  0.0634
 5397TIP3    H137682   4.464   3.472   1.528 -0.2030 -1.6842  1.8755
 5397TIP3    H237683   4.398   3.603   1.568  1.5655  0.3791 -1.7154
 5398TIP3   OH237684   0.464   5.896  11.277  0.2491 -0.1600 -0.2008
 5398TIP3    H137685   0.503   5.861  11.198 -0.6456  0.0139 -0.7332
 5398TIP3    H237686   0.504   5.847  11.349 -0.2213 -1.5280 -0.8678
 5399TIP3   OH237687   5.605   4.982   1.813  0.5373 -0.1700  0.0433
 5399TIP3    H137688   5.668   5.003   1.745  0.3480 -0.1578 -0.1289
 5399TIP3    H237689   5.593   5.064   1.861  0.2804 -0.0450 -0.2306
 5400TIP3   OH237690   5.571   2.079   6.133  0.1835 -0.3168  0.3186
 5400TIP3    H137691   5.596   2.078   6.225  3.3574  0.9269 -0.4844
 5400TIP3    H237692   5.650   2.055   6.085 -0.8216  1.1339 -2.2023
 5401TIP3   OH237693   5.983   4.730   1.780  0.1843  0.2987  0.5757
 5401TIP3    H137694   5.986   4.784   1.859 -0.8536  0.3136  0.6098
 5401TIP3    H237695   6.001   4.792   1.709 -0.2691  0.5544  0.6811
 5402TIP3   OH237696   2.867   6.579  16.770  0.2388 -0.9364 -0.0124
 5402TIP3    H137697   2.949   6.628  16.764 -0.3381 -0.2061 -2.4187
 5402TIP3    H237698   2.861   6.530  16.688 -1.2823 -1.7092  0.5229
 5403TIP3   OH237699   4.548   1.261   0.225  0.1452  0.5942 -0.2793
 5403TIP3    H137700   4.605   1.193   0.187  0.2767  0.6718 -0.2212
 5403TIP3    H237701   4.598   1.295   0.299 -0.5889 -0.3296  0.6474
 5404TIP3   OH237702   5.318   6.793  11.318 -0.0958  0.5677  0.6502
 5404TIP3    H137703   5.301   6.866  11.378 -1.9576 -0.3605  1.2880
 5404TIP3    H237704   5.372   6.732  11.368 -0.3975  0.4842  0.8743
 5405TIP3   OH237705   1.740   4.782  12.925 -0.7644  0.2720  0.2029
 5405TIP3    H137706   1.680   4.839  12.877 -1.4289 -0.3889  0.2494
 5405TIP3    H237707   1.807   4.757  12.861 -0.1961  1.4830  0.3056
 5406TIP3   OH237708   2.982   4.850  17.193 -0.5760  0.3634 -0.1401
 5406TIP3    H137709   2.887   4.840  17.186 -0.3282 -1.1702 -1.3951
 5406TIP3    H237710   3.017   4.810  17.114  1.2529 -1.0273  1.3315
 5407TIP3   OH237711   3.276   2.955  12.702 -0.4058 -0.5909 -0.6737
 5407TIP3    H137712   3.318   3.032  12.740  0.7866 -1.4201 -0.2574
 5407TIP3    H237713   3.293   2.962  12.608 -2.2364  0.7939 -0.9157
 5408TIP3   OH237714   5.126   1.002  12.952 -0.0204  0.2397  0.5926
 5408TIP3    H137715   5.196   1.000  12.887 -0.3401  0.9165  0.2208
 5408TIP3    H237716   5.061   0.939  12.919 -1.7403  3.0262 -1.5476
 5409TIP3   OH237717   5.938   5.497  14.308 -0.2369 -0.2264 -0.1463
 5409TIP3    H137718   5.915   5.576  14.357 -0.9947  0.5206 -1.6751
 5409TIP3    H237719   5.868   5.435  14.329 -1.3429  0.5767 -1.3712
 5410TIP3   OH237720   4.044   3.115   1.671  0.5495  0.1455  0.2288
 5410TIP3    H137721   4.023   3.021   1.671 -0.9562  0.4761 -1.1425
 5410TIP3    H237722   4.105   3.125   1.598 -0.0231  0.3869 -0.2196
 5411TIP3   OH237723   4.774   4.537   3.245 -0.3137 -0.3849 -0.2020
 5411TIP3    H137724   4.862   4.516   3.277 -0.0314  1.1016  0.0317
 5411TIP3    H237725   4.760   4.477   3.171  0.4406 -1.3972  0.4566
 5412TIP3   OH237726   4.813   5.055  10.816  0.5715  0.3332  0.0396
 5412TIP3    H137727   4.885   5.119  10.812 -0.1064  1.1708  1.0015
 5412TIP3    H237728   4.736   5.105  10.787  0.0223 -0.0337  0.8681
 5413TIP3   OH237729   2.936   1.085   0.173 -0.5265 -0.3718  0.0969
 5413TIP3    H137730   2.998   1.028   0.128 -0.9072  0.3537 -1.3940
 5413TIP3    H237731   2.921   1.157   0.111  1.6250  2.5151  2.7622
 5414TIP3   OH237732   4.194   2.042   3.001  0.1303 -0.1532 -0.1085
 5414TIP3    H137733   4.271   2.091   3.030 -0.0053 -0.1796  0.3059
 5414TIP3    H237734   4.125   2.068   3.062  0.0533 -0.8489  0.1106
 5415TIP3   OH237735   3.074   3.317   6.430  0.1646 -0.9423 -0.2088
 5415TIP3    H137736   3.101   3.226   6.422 -0.1035 -0.9393 -1.1865
 5415TIP3    H237737   2.983   3.313   6.460  0.4794 -0.9764  0.7669
 5416TIP3   OH237738   3.185   5.059  16.546  0.0122 -0.6598 -0.4753
 5416TIP3    H137739   3.129   5.052  16.623  0.2121  1.7920 -0.0701
 5416TIP3    H237740   3.174   4.975  16.500 -2.0583 -1.1464  0.8731
 5417TIP3   OH237741   0.451   2.466  13.183  0.2767 -0.2355 -0.1613
 5417TIP3    H137742   0.537   2.504  13.204 -0.6234  2.0598 -0.4579
 5417TIP3    H237743   0.413   2.528  13.121 -1.3272 -1.6022 -0.5721
 5418TIP3   OH237744   4.039   2.411  15.455 -0.1491 -0.0192  0.2825
 5418TIP3    H137745   3.952   2.377  15.436  0.0602 -1.4845  1.8242
 5418TIP3    H237746   4.039   2.427  15.549  0.9787  0.7999  0.1607
 5419TIP3   OH237747   4.431   0.026   1.714  0.0074 -0.0790 -0.0113
 5419TIP3    H137748   4.359   0.024   1.777  0.3263 -0.0121  0.3565
 5419TIP3    H237749   4.442  -0.066   1.688  1.5404 -0.4852  1.9419
 5420TIP3   OH237750   0.068   6.205   2.444  0.1910  0.1040 -0.1635
 5420TIP3    H137751   0.063   6.228   2.352 -0.7910 -1.2733 -0.4790
 5420TIP3    H237752  -0.019   6.171   2.465  0.6915 -0.4875  1.0137
 5421TIP3   OH237753   4.864   0.669   3.741 -0.1933  0.0674  0.1994
 5421TIP3    H137754   4.904   0.619   3.812 -0.4758  1.0100  1.0354
 5421TIP3    H237755   4.908   0.755   3.744 -1.4511  0.7191  0.3928
 5422TIP3   OH237756   4.955   1.546   5.452  0.2989 -0.1884  0.0404
 5422TIP3    H137757   4.992   1.475   5.399  2.5979  0.3514  0.8734
 5422TIP3    H237758   4.981   1.626   5.406 -0.4461  0.1940  0.2750
 5423TIP3   OH237759   5.560   4.247  12.020  0.4756 -0.0419  0.1141
 5423TIP3    H137760   5.481   4.250  12.074  0.0567  1.3377 -0.5514
 5423TIP3    H237761   5.615   4.317  12.055  1.4204 -0.9750  0.5550
 5424TIP3   OH237762   1.549   3.411   1.854 -0.2930  0.3721  0.2585
 5424TIP3    H137763   1.505   3.434   1.936 -0.7628  2.6050 -0.5758
 5424TIP3    H237764   1.514   3.473   1.790  1.4002 -0.1708 -1.2365
 5425TIP3   OH237765   5.164   1.006   1.735 -0.1035 -0.2095 -0.0850
 5425TIP3    H137766   5.155   0.984   1.642  2.3017 -1.4027 -0.0688
 5425TIP3    H237767   5.247   1.053   1.740 -0.1616 -0.2719  1.5002
 5426TIP3   OH237768   5.665   6.331   2.849  0.0998  0.3968  0.1655
 5426TIP3    H137769   5.724   6.406   2.840  0.2866  0.2981  0.5239
 5426TIP3    H237770   5.720   6.262   2.887 -0.6655  0.8667  2.2243
 5427TIP3   OH237771   6.287   5.370  15.741 -0.4091  0.0016 -0.0800
 5427TIP3    H137772   6.266   5.430  15.670  0.0991 -0.7854 -0.9107
 5427TIP3    H237773   6.202   5.345  15.778 -0.7580 -0.5068 -1.1947
 5428TIP3   OH237774   1.568   1.471  11.586 -0.1757 -0.0710  0.3283
 5428TIP3    H137775   1.515   1.399  11.550 -1.6319  2.6544 -3.2863
 5428TIP3    H237776   1.657   1.452  11.556 -0.5227 -0.4487 -0.4743
 5429TIP3   OH237777   0.500   3.399   2.517 -0.7673 -0.1353 -0.0803
 5429TIP3    H137778   0.548   3.316   2.524 -0.4943  0.0065 -0.2739
 5429TIP3    H237779   0.480   3.423   2.607 -2.0664 -1.1284 -0.0886
 5430TIP3   OH237780   0.166   0.641   3.649  0.6010  0.1517 -0.5923
 5430TIP3    H137781   0.124   0.592   3.579  0.3074  1.8590 -1.6217
 5430TIP3    H237782   0.198   0.574   3.709 -0.3513 -1.2747 -1.6592
 5431TIP3   OH237783   6.107   3.414   0.180  0.5263 -0.3357 -0.3792
 5431TIP3    H137784   6.105   3.443   0.271  0.2239 -0.2913 -0.3991
 5431TIP3    H237785   6.017   3.425   0.150  1.1580  2.2117 -1.4783
 5432TIP3   OH237786   4.834   1.388   0.241 -0.3585  0.0016  0.0515
 5432TIP3    H137787   4.876   1.338   0.311  0.0474 -0.5669 -0.5993
 5432TIP3    H237788   4.781   1.454   0.287 -1.0584 -1.1488  0.9265
 5433TIP3   OH237789   3.083   5.663  16.504  0.6772  0.8183  0.0403
 5433TIP3    H137790   3.161   5.655  16.559  0.3899 -1.2817  0.2132
 5433TIP3    H237791   3.117   5.659  16.415  0.7530 -0.4839  0.1173
 5434TIP3   OH237792   2.709   3.378   0.019  0.0817  0.0577  0.7969
 5434TIP3    H137793   2.722   3.433  -0.058 -0.6399 -0.8317  0.0146
 5434TIP3    H237794   2.688   3.439   0.089 -0.1030  0.8213  0.0897
 5435TIP3   OH237795   2.204   0.714   6.193  0.2070  0.1709 -0.0887
 5435TIP3    H137796   2.246   0.729   6.278 -0.1175  2.6996 -0.3428
 5435TIP3    H237797   2.260   0.649   6.150  2.3359  1.4303  0.6848
 5436TIP3   OH237798   1.771   0.785   2.728 -0.0384 -0.4793  0.4869
 5436TIP3    H137799   1.729   0.833   2.657  0.8821 -1.2563 -0.5980
 5436TIP3    H237800   1.864   0.797   2.714  0.2002 -2.1427  0.4873
 5437TIP3   OH237801   0.597   0.965  13.163 -0.2979 -0.5699  0.1271
 5437TIP3    H137802   0.673   0.987  13.110  1.9161 -0.9725  3.0176
 5437TIP3    H237803   0.576   0.875  13.138  1.4513 -1.1645  0.7870
 5438TIP3   OH237804   4.219   5.651   0.133 -0.1699  0.0014 -0.3696
 5438TIP3    H137805   4.240   5.659   0.226 -1.0605 -2.8799  0.1227
 5438TIP3    H237806   4.187   5.737   0.108 -0.5158  0.6365  2.1459
 5439TIP3   OH237807   5.139   5.088  15.289 -0.0370 -0.0077 -0.4846
 5439TIP3    H137808   5.144   5.178  15.257 -0.1874 -0.5224 -1.9993
 5439TIP3    H237809   5.187   5.036  15.224  0.3523 -0.9782  0.5562
 5440TIP3   OH237810   1.662   0.924   6.294 -0.0851  0.2845  0.1049
 5440TIP3    H137811   1.666   0.942   6.387  0.9574  0.5190  0.0290
 5440TIP3    H237812   1.738   0.867   6.277 -1.4713 -1.5202 -0.2250
 5441TIP3   OH237813   0.912   4.189   0.628 -0.1868 -0.1439 -0.8525
 5441TIP3    H137814   0.904   4.184   0.723  0.1589 -0.2560 -0.8298
 5441TIP3    H237815   0.822   4.184   0.596 -0.3220  0.1464 -0.5193
 5442TIP3   OH237816   0.763   2.374   1.285 -0.1642 -0.0767 -0.7933
 5442TIP3    H137817   0.779   2.469   1.290 -3.4485  0.5044 -0.5314
 5442TIP3    H237818   0.815   2.337   1.357 -0.6187  1.7816  0.5245
 5443TIP3   OH237819   4.356   3.976  16.588 -0.1783  0.0657 -0.1866
 5443TIP3    H137820   4.323   4.004  16.503 -1.1347 -0.1777  0.0971
 5443TIP3    H237821   4.337   3.882  16.592  2.8657 -0.6565 -1.0678
 5444TIP3   OH237822   0.526   2.879  13.977 -0.1592  0.3933  1.1890
 5444TIP3    H137823   0.478   2.944  14.028 -1.6590 -1.4388  2.1510
 5444TIP3    H237824   0.490   2.888  13.888 -2.4267 -1.0363  1.9234
 5445TIP3   OH237825   5.239   4.861   1.857  0.1608 -0.1207  0.1041
 5445TIP3    H137826   5.197   4.927   1.912 -0.3378 -0.4018  0.0703
 5445TIP3    H237827   5.171   4.833   1.796  0.5401 -0.2371 -0.2725
 5446TIP3   OH237828   1.477   6.553  14.033  0.0489 -0.3098  1.0317
 5446TIP3    H137829   1.456   6.500  14.110  0.1635  0.1260  1.3643
 5446TIP3    H237830   1.394   6.593  14.008  0.5231  1.7858  2.6295
 5447TIP3   OH237831   0.149   0.835   4.154  0.1655  0.8453  0.5299
 5447TIP3    H137832   0.242   0.844   4.135  0.2328  1.4919  1.1078
 5447TIP3    H237833   0.105   0.868   4.076  0.4206  1.0493  0.4723
 5448TIP3   OH237834   1.580   4.639  16.642 -0.3651  0.5149 -0.2518
 5448TIP3    H137835   1.566   4.721  16.595 -0.4507  0.2424 -0.7088
 5448TIP3    H237836   1.555   4.571  16.579 -1.0995  0.1649  0.4033
 5449TIP3   OH237837   3.786   3.828   1.822 -0.3865 -0.5960  0.5906
 5449TIP3    H137838   3.815   3.896   1.883 -3.2566  0.0697  1.2756
 5449TIP3    H237839   3.799   3.746   1.869  0.3400 -0.3253  0.8742
 5450TIP3   OH237840   1.069   6.778  15.537 -0.4421 -0.3496  0.0834
 5450TIP3    H137841   0.979   6.744  15.543 -0.4842 -0.2568 -0.0057
 5450TIP3    H237842   1.075   6.813  15.448 -0.3001 -0.3995  0.0743
 5451TIP3   OH237843   2.075   0.406   3.080 -0.6332 -0.0059 -0.6133
 5451TIP3    H137844   2.140   0.440   3.018  1.3974 -0.7609  1.0466
 5451TIP3    H237845   1.996   0.458   3.063  0.5243  1.2294 -2.3777
 5452TIP3   OH237846   6.081   0.309  16.719 -0.0526  0.1574 -0.0764
 5452TIP3    H137847   6.043   0.352  16.643 -2.2394 -0.4715  0.6150
 5452TIP3    H237848   6.019   0.239  16.741  2.1333 -1.7311  0.3620
 5453TIP3   OH237849   1.311   1.560  15.328  0.1814  0.1426  0.4559
 5453TIP3    H137850   1.293   1.558  15.422 -0.2328  1.0553  0.4009
 5453TIP3    H237851   1.266   1.639  15.297  2.4072  1.2366 -0.0732
 5454TIP3   OH237852   0.701   1.332   1.115  0.1026  0.4088  0.3479
 5454TIP3    H137853   0.665   1.420   1.116 -1.4151 -0.1869 -0.4096
 5454TIP3    H237854   0.629   1.276   1.143  0.6241 -0.7314 -0.5183
 5455TIP3   OH237855   3.812   3.306   4.080  0.1300  0.1265  0.0305
 5455TIP3    H137856   3.719   3.285   4.094  0.5493 -0.8997  1.4163
 5455TIP3    H237857   3.847   3.318   4.168  1.3609  0.2785 -0.4771
 5456TIP3   OH237858   1.554   2.715  15.854 -0.9178  0.1571 -0.8105
 5456TIP3    H137859   1.562   2.797  15.904  0.1792 -1.2185  1.3200
 5456TIP3    H237860   1.460   2.701  15.846 -1.1115  0.3265  1.0038
 5457TIP3   OH237861   1.343   3.381  12.858  0.4542 -0.2664  0.0272
 5457TIP3    H137862   1.400   3.305  12.877  0.8316  0.1408  0.5395
 5457TIP3    H237863   1.365   3.404  12.768  2.0979  0.7229  0.6562
 5458TIP3   OH237864   3.279   1.974   1.010  0.0427  0.0586  0.3267
 5458TIP3    H137865   3.279   1.900   1.071 -0.2028 -0.3883 -0.2110
 5458TIP3    H237866   3.228   2.042   1.053 -1.2349 -0.7222  0.0562
 5459TIP3   OH237867   1.166   0.849  11.614  0.0770  0.0349 -0.0098
 5459TIP3    H137868   1.229   0.921  11.608 -0.2231  0.3030  0.0081
 5459TIP3    H237869   1.197   0.784  11.552  0.9029 -0.2480  0.6836
 5460TIP3   OH237870   6.329   2.546  13.829  0.0078  0.0055 -0.5778
 5460TIP3    H137871   6.317   2.601  13.752  0.3643  1.3888  0.3409
 5460TIP3    H237872   6.416   2.508  13.819 -0.5517 -1.0437 -1.6042
 5461TIP3   OH237873   5.341   4.298   6.012  0.2550  0.6776 -0.0346
 5461TIP3    H137874   5.427   4.324   5.981  0.1805  1.1614  0.1627
 5461TIP3    H237875   5.290   4.284   5.932  0.4082  0.7553 -0.1458
 5462TIP3   OH237876   2.412   1.699   3.116  0.2126  0.2910  0.3283
 5462TIP3    H137877   2.345   1.717   3.050 -0.5759 -0.5820  0.8811
 5462TIP3    H237878   2.464   1.627   3.080  0.7973  0.8963 -0.0528
 5463TIP3   OH237879   5.936   3.449   2.450 -0.4514  0.7545 -0.3739
 5463TIP3    H137880   5.908   3.358   2.447  1.3436  0.1658  0.1464
 5463TIP3    H237881   5.966   3.469   2.361 -1.2356  0.9700 -0.5916
 5464TIP3   OH237882   5.194   6.129  13.257 -0.1033 -0.1451 -0.6437
 5464TIP3    H137883   5.202   6.217  13.220 -3.1346  0.1825 -0.6014
 5464TIP3    H237884   5.258   6.077  13.207  1.5704  1.9816 -0.8136
 5465TIP3   OH237885   1.866   4.402   5.258 -0.3468 -0.1386  0.7601
 5465TIP3    H137886   1.773   4.405   5.234 -0.5259  2.5089  1.5559
 5465TIP3    H237887   1.867   4.365   5.346 -0.6637 -0.0032  0.8203
 5466TIP3   OH237888   6.556   5.153  11.359  0.0533  0.5376 -0.0901
 5466TIP3    H137889   6.617   5.219  11.327 -2.1873  2.2295 -0.9182
 5466TIP3    H237890   6.507   5.125  11.282 -1.6176  0.6559  0.9180
 5467TIP3   OH237891   1.345   2.158   1.903  0.5554  0.0190 -0.1270
 5467TIP3    H137892   1.302   2.124   1.981 -1.5141  0.8740 -0.8350
 5467TIP3    H237893   1.350   2.253   1.917  1.8046 -0.0212 -0.2587
 5468TIP3   OH237894   5.396   3.207   5.077 -0.1998 -0.1686  0.3438
 5468TIP3    H137895   5.416   3.205   5.170  1.3552  2.1902  0.0833
 5468TIP3    H237896   5.336   3.281   5.066  1.6507  1.1941 -0.8825
 5469TIP3   OH237897   2.052   0.789   1.472 -0.0848  0.1216  0.9301
 5469TIP3    H137898   2.047   0.827   1.385 -0.1197  0.9678  1.2982
 5469TIP3    H237899   1.982   0.723   1.473  0.3696 -0.3753  0.0914
 5470TIP3   OH237900   5.754   2.632  15.518 -0.5540 -0.2082 -0.1327
 5470TIP3    H137901   5.810   2.575  15.467 -1.0734 -1.4040  0.6182
 5470TIP3    H237902   5.712   2.689  15.453 -0.1431 -0.7675 -0.8936
 5471TIP3   OH237903   5.256   3.534  15.335  0.5847 -0.6962  0.1777
 5471TIP3    H137904   5.309   3.488  15.400  0.3257 -0.4991  0.5365
 5471TIP3    H237905   5.171   3.489  15.337 -1.1251  2.3857  3.6301
 5472TIP3   OH237906   1.492   3.610  13.485  0.4493 -0.4016  0.0948
 5472TIP3    H137907   1.454   3.660  13.412  0.8374 -0.3860 -0.1004
 5472TIP3    H237908   1.585   3.634  13.483  0.1379  0.9810  1.7152
 5473TIP3   OH237909   0.287   2.293  12.241  0.0432  0.2305 -0.3092
 5473TIP3    H137910   0.354   2.248  12.294  0.1258  0.0323 -0.5817
 5473TIP3    H237911   0.337   2.350  12.183 -0.0345  0.2549 -0.3522
 5474TIP3   OH237912   0.555   0.745  15.091 -0.5365  0.4507  0.9398
 5474TIP3    H137913   0.505   0.827  15.097 -0.1465  0.8260 -0.7269
 5474TIP3    H237914   0.565   0.716  15.182 -0.8343  2.1602  1.5312
 5475TIP3   OH237915   6.061   3.067   5.298 -0.2276  0.2678 -0.5384
 5475TIP3    H137916   6.003   3.043   5.226  0.3688  0.9491 -1.2624
 5475TIP3    H237917   6.108   2.986   5.320 -1.0446 -0.1472 -0.3245
 5476TIP3   OH237918   4.052   6.243   3.261  0.0646 -0.3056 -0.1111
 5476TIP3    H137919   4.092   6.292   3.333 -0.8508 -1.4939  1.2359
 5476TIP3    H237920   4.107   6.164   3.253  0.8321  0.3475 -1.4789
 5477TIP3   OH237921   1.272   2.250   1.396  0.0233  0.5457  0.1302
 5477TIP3    H137922   1.350   2.245   1.340 -0.0076 -0.9105  0.2090
 5477TIP3    H237923   1.287   2.184   1.464  0.0883  2.3197  1.8977
 5478TIP3   OH237924   3.841   3.975  16.807 -0.4051 -0.3106  0.2765
 5478TIP3    H137925   3.918   3.939  16.851  0.0007 -0.2048 -0.3412
 5478TIP3    H237926   3.766   3.941  16.857  0.0150 -1.0177  0.4298
 5479TIP3   OH237927   2.635   3.643  10.943  0.1364 -0.0123 -0.3911
 5479TIP3    H137928   2.590   3.718  10.905  3.8517  0.7126 -3.6924
 5479TIP3    H237929   2.632   3.658  11.037 -2.5488  2.2508 -0.7865
 5480TIP3   OH237930   6.431   6.247   3.802  0.0445  0.4480  0.1162
 5480TIP3    H137931   6.447   6.195   3.723 -0.6418 -1.3212  1.1143
 5480TIP3    H237932   6.496   6.217   3.865  0.3532  1.6006  0.3663
 5481TIP3   OH237933   0.390   0.914   1.733 -0.0769 -0.5310  0.0283
 5481TIP3    H137934   0.357   0.953   1.652 -1.1680  1.2397  1.2855
 5481TIP3    H237935   0.343   0.959   1.802  0.8867 -1.9774  1.6716
 5482TIP3   OH237936   1.479   5.100   3.519 -0.0037  0.5436  0.1157
 5482TIP3    H137937   1.559   5.151   3.530  2.3550 -2.8914 -0.0461
 5482TIP3    H237938   1.478   5.042   3.595 -3.0988  1.4549  0.8047
 5483TIP3   OH237939   4.915   3.214  13.682  0.3666  0.6680 -0.1274
 5483TIP3    H137940   4.992   3.169  13.646  0.0868 -0.3304  0.4966
 5483TIP3    H237941   4.841   3.168  13.643  0.0718  0.2201  0.9524
 5484TIP3   OH237942   0.342   2.588  15.442 -0.2148  0.2771  0.5509
 5484TIP3    H137943   0.285   2.664  15.454 -0.7722  0.3919 -2.4077
 5484TIP3    H237944   0.422   2.625  15.404  0.5173 -0.3051  1.5173
 5485TIP3   OH237945   4.942   0.551  11.371 -0.7743  0.5499 -0.4083
 5485TIP3    H137946   4.852   0.548  11.341 -0.1751 -0.7384 -2.1030
 5485TIP3    H237947   4.936   0.585  11.461 -2.9136  0.4980 -0.5145
 5486TIP3   OH237948   1.898   0.710   4.919 -0.4054 -0.2746 -0.3657
 5486TIP3    H137949   1.870   0.655   4.845 -0.7829  0.0323 -0.4524
 5486TIP3    H237950   1.820   0.717   4.974  0.3869 -2.0656  1.0363
 5487TIP3   OH237951   5.336   4.518  15.792 -0.5360 -0.3014 -0.2504
 5487TIP3    H137952   5.402   4.462  15.750 -1.3470 -0.4480 -1.3766
 5487TIP3    H237953   5.274   4.456  15.831 -1.8525 -0.2584 -2.1534
 5488TIP3   OH237954   6.217   1.661   4.774 -0.7714  0.1680  0.2792
 5488TIP3    H137955   6.145   1.724   4.785 -2.2540 -1.7469  1.7801
 5488TIP3    H237956   6.212   1.635   4.682 -2.3512 -0.3792  0.5155
 5489TIP3   OH237957   1.932   4.047   1.189 -0.4344  0.0870 -0.1224
 5489TIP3    H137958   1.883   4.104   1.248 -0.2827  0.3310 -0.2324
 5489TIP3    H237959   1.870   4.028   1.118 -0.5873 -0.1339  0.0693
 5490TIP3   OH237960   4.187   3.863  12.416 -0.1393  0.0287 -0.3712
 5490TIP3    H137961   4.132   3.816  12.353 -0.6447  0.6679 -0.4040
 5490TIP3    H237962   4.214   3.942  12.370 -1.4573  1.0684  0.6212
 5491TIP3   OH237963   4.880   2.471   3.082 -0.4660  0.4739 -0.0098
 5491TIP3    H137964   4.787   2.485   3.101 -0.4736 -0.7035  0.9315
 5491TIP3    H237965   4.898   2.384   3.118  0.4798 -0.2384 -2.1504
 5492TIP3   OH237966   5.671   0.614  16.492  0.0633  0.0635  1.0399
 5492TIP3    H137967   5.624   0.535  16.466  2.4051 -1.6104  1.7344
 5492TIP3    H237968   5.664   0.616  16.588 -2.2837  2.2263  0.8932
 5493TIP3   OH237969   1.540   0.938  15.149 -0.1229  0.5429  0.0887
 5493TIP3    H137970   1.475   0.901  15.090  0.0411  0.5897 -0.1204
 5493TIP3    H237971   1.624   0.909  15.114 -0.0828 -0.6279  1.1043
 5494TIP3   OH237972   6.094   1.553  12.454  0.1306  0.7406 -0.7247
 5494TIP3    H137973   6.094   1.649  12.451  0.7842  0.7192 -2.1971
 5494TIP3    H237974   6.038   1.531  12.528 -0.6155  2.2536 -0.8131
 5495TIP3   OH237975   4.791   4.528  10.871  0.0841 -0.1361  0.1258
 5495TIP3    H137976   4.793   4.621  10.850 -0.3446 -0.2521 -0.4416
 5495TIP3    H237977   4.788   4.484  10.786 -1.1075 -0.6251  0.4022
 5496TIP3   OH237978   3.374   1.381  14.144 -0.3934  0.0600  0.4506
 5496TIP3    H137979   3.331   1.430  14.214 -1.3778  0.5661 -0.4991
 5496TIP3    H237980   3.442   1.439  14.111  0.0336 -0.1566  0.9576
 5497TIP3   OH237981   4.336   4.861   1.472 -0.3847 -0.7414  0.2138
 5497TIP3    H137982   4.425   4.872   1.437 -0.3312 -1.1069  0.2277
 5497TIP3    H237983   4.282   4.844   1.395 -0.7759  1.3787 -0.0016
 5498TIP3   OH237984   0.260   3.240   2.423  0.1332  0.3477 -0.1222
 5498TIP3    H137985   0.239   3.318   2.371  0.9894  1.1337  0.7061
 5498TIP3    H237986   0.340   3.206   2.383  0.5637  0.7192  0.4186
 5499TIP3   OH237987   5.673   4.685   5.373 -0.0060  0.0830  0.0051
 5499TIP3    H137988   5.706   4.596   5.388  0.1049  0.0391 -0.4943
 5499TIP3    H237989   5.705   4.708   5.286 -0.0008  0.6300  0.1491
 5500TIP3   OH237990   6.790   5.908   4.724  0.1639  0.4201  0.1210
 5500TIP3    H137991   6.750   5.968   4.661 -1.0783 -0.2668  0.2421
 5500TIP3    H237992   6.848   5.854   4.671  0.2371  0.8086 -0.2051
 5501TIP3   OH237993   5.464   2.516   3.411 -0.3364  0.2039  0.0734
 5501TIP3    H137994   5.401   2.461   3.458 -0.3610  1.7943  1.9793
 5501TIP3    H237995   5.550   2.482   3.437 -0.2825  2.2704  2.9488
 5502TIP3   OH237996   4.377   5.929   1.835  0.1010  0.4422  0.2315
 5502TIP3    H137997   4.365   6.010   1.884  1.7741  0.6887  0.2671
 5502TIP3    H237998   4.349   5.860   1.896  0.4961  0.8670  0.8994
 5503TIP3   OH237999   5.009   2.283   2.698 -0.3366  0.9614  0.8990
 5503TIP3    H138000   5.062   2.294   2.618  1.3052  0.4173  1.8832
 5503TIP3    H238001   5.018   2.367   2.743  1.7432  0.0694  2.2438
 5504TIP3   OH238002   2.251   4.540   4.477  0.0508  0.4445 -0.4928
 5504TIP3    H138003   2.286   4.548   4.566  0.4648  1.1546 -0.7140
 5504TIP3    H238004   2.290   4.460   4.442  0.3232  0.4642 -0.2320
 5505TIP3   OH238005   5.279   2.007   3.808  0.0920  0.0553  0.0284
 5505TIP3    H138006   5.235   2.015   3.723 -0.3730  0.5593  0.3058
 5505TIP3    H238007   5.350   1.945   3.793 -0.6275 -0.6630 -0.4754
 5506TIP3   OH238008   5.499   4.399  11.624 -0.1538  0.3859  0.4334
 5506TIP3    H138009   5.554   4.437  11.555  0.1677 -1.2821 -0.2622
 5506TIP3    H238010   5.561   4.355  11.682 -0.2707  3.0326  2.6772
 5507TIP3   OH238011   6.753   4.536   5.264  0.9452 -0.0522 -0.3552
 5507TIP3    H138012   6.818   4.472   5.292 -0.3284 -0.2854  2.2006
 5507TIP3    H238013   6.754   4.604   5.331  1.1332  1.8503 -2.2006
 5508TIP3   OH238014   6.663   0.338  14.985  0.0719 -0.4552  0.7496
 5508TIP3    H138015   6.610   0.323  15.064  0.6684 -1.0014  1.0493
 5508TIP3    H238016   6.651   0.431  14.966  0.5525 -0.1374  1.9463
 5509TIP3   OH238017   1.591   6.712   2.441 -0.2774 -0.1076  0.3330
 5509TIP3    H138018   1.669   6.659   2.457 -0.1958 -0.1008 -0.0284
 5509TIP3    H238019   1.520   6.648   2.435 -0.0065 -0.2891 -1.2477
 5510TIP3   OH238020   2.884   6.686   6.013 -0.3542 -0.0986  0.6547
 5510TIP3    H138021   2.816   6.737   5.970 -0.6208 -1.0615 -0.1004
 5510TIP3    H238022   2.880   6.600   5.970  0.4055 -0.5964  1.5580
 5511TIP3   OH238023   3.095   5.167   1.658  0.0957  0.5273 -0.2888
 5511TIP3    H138024   3.129   5.252   1.688 -1.8889  0.3020  2.8894
 5511TIP3    H238025   3.150   5.103   1.703  0.4420  0.1219 -1.2808
 5512TIP3   OH238026   6.179   5.147   2.877  0.6126 -0.2889 -0.5869
 5512TIP3    H138027   6.238   5.136   2.803  0.7098  0.2186 -0.5813
 5512TIP3    H238028   6.126   5.066   2.877  1.3482 -0.7721 -0.5399
 5513TIP3   OH238029   4.742   1.922  15.179 -0.2462  0.2365  0.3846
 5513TIP3    H138030   4.682   1.942  15.107  0.4118  2.5375  0.4186
 5513TIP3    H238031   4.810   1.867  15.139 -1.0408 -0.3030 -0.2343
 5514TIP3   OH238032   0.010   5.449   1.839  0.0696 -0.2034 -0.1644
 5514TIP3    H138033   0.076   5.405   1.894 -1.2707 -1.3128  0.5830
 5514TIP3    H238034  -0.062   5.468   1.899  0.3136  2.3644 -0.6505
 5515TIP3   OH238035   3.161   3.978   5.306  0.1921  0.3264  0.0234
 5515TIP3    H138036   3.202   4.053   5.349 -1.5575 -0.3905  3.0783
 5515TIP3    H238037   3.230   3.912   5.303  1.7585  1.9785 -2.7195
 5516TIP3   OH238038   1.122   5.869  14.826  0.2469  0.0391  0.2385
 5516TIP3    H138039   1.176   5.790  14.836  1.4922  0.8127 -0.2807
 5516TIP3    H238040   1.185   5.939  14.809 -1.0453  0.6107 -2.4182
 5517TIP3   OH238041   6.728   1.043  16.299  0.1495 -0.6924 -0.3872
 5517TIP3    H138042   6.738   0.949  16.283 -0.7346 -1.3020  2.4689
 5517TIP3    H238043   6.648   1.067  16.251  0.5913 -1.2846 -1.4440
 5518TIP3   OH238044   5.208   1.888  14.556 -0.1549  0.4284 -0.0389
 5518TIP3    H138045   5.167   1.849  14.634  0.8637 -1.2836 -0.3253
 5518TIP3    H238046   5.281   1.939  14.590  0.3619 -0.4147  0.1392
 5519TIP3   OH238047   4.347   1.850  14.679 -0.4305 -0.2621 -0.3100
 5519TIP3    H138048   4.411   1.856  14.608  1.5896 -2.4503  1.2226
 5519TIP3    H238049   4.320   1.940  14.695  0.1457  0.4001 -2.9050
 5520TIP3   OH238050   0.655   4.563   6.738 -0.3655 -0.1178  0.1961
 5520TIP3    H138051   0.672   4.476   6.775 -0.6768  0.4133  1.6255
 5520TIP3    H238052   0.593   4.547   6.667  0.5654 -1.2129 -0.3776
 5521TIP3   OH238053   4.736   6.693   2.662  0.4973  0.6209 -0.7872
 5521TIP3    H138054   4.828   6.670   2.677  0.3247 -0.1450 -0.8805
 5521TIP3    H238055   4.737   6.787   2.641  1.1883  0.7493 -0.1719
 5522TIP3   OH238056   4.106   4.617   4.165 -0.1054 -0.2161  0.1699
 5522TIP3    H138057   4.016   4.641   4.186  0.2850  0.4198  1.1333
 5522TIP3    H238058   4.137   4.572   4.243  0.9248  0.9907  0.4682
 5523TIP3   OH238059   4.222   5.859  11.972 -0.0917  0.0010 -0.4700
 5523TIP3    H138060   4.228   5.793  11.903  0.0671 -1.5061  0.9455
 5523TIP3    H238061   4.311   5.866  12.007 -0.2325  0.5058 -0.2053
 5524TIP3   OH238062   2.357   0.058  16.919  0.1391 -0.0798  0.1384
 5524TIP3    H138063   2.441   0.038  16.877 -0.0040 -1.1086  0.3295
 5524TIP3    H238064   2.292   0.011  16.865  0.1168 -2.9590  2.5336
 5525TIP3   OH238065   1.894   4.623  11.381  0.5420 -0.2683 -0.1753
 5525TIP3    H138066   1.965   4.677  11.416  0.8684  0.6530 -2.1710
 5525TIP3    H238067   1.923   4.599  11.293 -2.2181  1.3533 -1.6111
 5526TIP3   OH238068   4.189   0.016   0.259 -0.4819 -0.0380  0.2474
 5526TIP3    H138069   4.247   0.092   0.257 -1.4411  0.6553 -0.8577
 5526TIP3    H238070   4.135   0.030   0.337  0.2086 -0.2479  0.7788
 5527TIP3   OH238071   2.317   1.555  13.499 -0.3965  0.7600 -0.0897
 5527TIP3    H138072   2.372   1.610  13.443 -0.1660  0.3979 -0.2221
 5527TIP3    H238073   2.353   1.566  13.587  2.1542 -2.2304 -0.6827
 5528TIP3   OH238074   5.724   6.803   4.228  0.6753 -0.4900  0.2755
 5528TIP3    H138075   5.787   6.737   4.256  0.5593 -1.1655 -1.0041
 5528TIP3    H238076   5.651   6.794   4.289  2.5595  1.6028  3.0068
 5529TIP3   OH238077   2.174   1.766   6.478  0.1485  0.1912  0.9903
 5529TIP3    H138078   2.164   1.858   6.451  0.4738 -0.1239 -0.2454
 5529TIP3    H238079   2.105   1.753   6.543 -0.0062  1.2728  1.0518
 5530TIP3   OH238080   0.631   5.786   3.545 -0.0358  0.4669  0.3264
 5530TIP3    H138081   0.554   5.750   3.500  1.4280 -0.6728 -1.3523
 5530TIP3    H238082   0.625   5.880   3.531  0.1137  0.1813 -1.9183
 5531TIP3   OH238083   6.504   2.156   2.458 -0.1074  0.0018  0.2421
 5531TIP3    H138084   6.502   2.180   2.365  0.0041  0.8739  0.4625
 5531TIP3    H238085   6.577   2.094   2.465  2.4270  2.8916  0.4318
 5532TIP3   OH238086   3.481   1.494  11.997  0.5691 -0.2760  0.1245
 5532TIP3    H138087   3.433   1.567  11.957  1.4645 -0.5963 -1.5750
 5532TIP3    H238088   3.529   1.454  11.925  1.5189 -1.4463  1.3730
 5533TIP3   OH238089   6.368   2.438  13.409  0.3799  0.2369  0.2828
 5533TIP3    H138090   6.318   2.519  13.420 -0.3974 -0.1711 -0.1717
 5533TIP3    H238091   6.357   2.391  13.491  0.5688  0.4431  0.4285
 5534TIP3   OH238092   4.890   2.675  14.239  0.5632 -0.3002 -0.3743
 5534TIP3    H138093   4.934   2.617  14.302  0.4824  0.8029  0.7206
 5534TIP3    H238094   4.811   2.704  14.285  0.2341  0.1075 -1.1900
 5535TIP3   OH238095   3.029   0.308   3.969  0.5493  0.2646  0.3097
 5535TIP3    H138096   3.078   0.299   4.050 -0.2608 -0.4656  0.7270
 5535TIP3    H238097   3.089   0.355   3.910  1.2573  0.5180  1.2129
 5536TIP3   OH238098   6.159   3.519  14.749 -0.7184 -0.2997  0.0008
 5536TIP3    H138099   6.099   3.461  14.796 -0.4638 -0.4774  0.1152
 5536TIP3    H238100   6.242   3.509  14.795 -0.7281  0.3344  0.1578
 5537TIP3   OH238101   2.700   6.721  17.103 -0.5633  0.4894  0.2233
 5537TIP3    H138102   2.641   6.672  17.161 -0.4264 -0.0122 -0.0558
 5537TIP3    H238103   2.657   6.719  17.017  0.9558 -1.8786 -0.5262
 5538TIP3   OH238104   0.395   2.915   4.327  0.5818  0.3477  0.2249
 5538TIP3    H138105   0.299   2.912   4.335  0.5792 -0.3576 -0.0769
 5538TIP3    H238106   0.427   2.872   4.406  0.6440  0.0842  0.0558
 5539TIP3   OH238107   2.592   2.144  16.331 -0.4484  0.3776 -0.8314
 5539TIP3    H138108   2.571   2.140  16.424 -1.3132  1.4477 -0.9805
 5539TIP3    H238109   2.533   2.080  16.290  1.8258 -2.1417 -0.3353
 5540TIP3   OH238110   5.249   2.860   5.857  0.4936  0.0547  0.9034
 5540TIP3    H138111   5.277   2.777   5.819  1.5993 -0.3934  2.6723
 5540TIP3    H238112   5.318   2.922   5.832 -0.1938  0.3947 -0.1842
 5541TIP3   OH238113   1.826   2.190   6.034 -0.1773  0.2717  0.6649
 5541TIP3    H138114   1.914   2.163   6.058  0.1989  0.6388 -0.2529
 5541TIP3    H238115   1.790   2.115   5.987  1.0567  1.4614 -2.3477
 5542TIP3   OH238116   3.752   5.834  15.401 -0.0097 -0.4014 -0.2617
 5542TIP3    H138117   3.764   5.928  15.384  0.9130 -0.4202  0.2463
 5542TIP3    H238118   3.751   5.794  15.314 -1.1514  0.1643 -0.5171
 5543TIP3   OH238119   2.184   0.410   5.564  0.1650 -0.3111  0.2078
 5543TIP3    H138120   2.104   0.454   5.534  0.4780 -0.6618 -1.1682
 5543TIP3    H238121   2.188   0.429   5.658 -0.6851  1.0667 -0.0143
 5544TIP3   OH238122   3.230   4.101   6.117  0.8408  0.1678 -0.3823
 5544TIP3    H138123   3.243   4.125   6.208 -1.0010  2.1590 -0.6147
 5544TIP3    H238124   3.318   4.103   6.079  1.4114  0.9799  0.9527
 5545TIP3   OH238125   5.385   2.548   4.375  0.7230  0.1348 -0.1129
 5545TIP3    H138126   5.307   2.572   4.325  1.1422  1.8745  0.0356
 5545TIP3    H238127   5.352   2.535   4.464  0.0415 -2.5921 -0.7309
 5546TIP3   OH238128   5.875   5.520  13.400 -0.1925  0.7168  0.2443
 5546TIP3    H138129   5.916   5.535  13.314  1.9679 -3.6738  0.3935
 5546TIP3    H238130   5.781   5.523  13.382  0.2136 -1.2152 -2.5488
 5547TIP3   OH238131   4.605   2.807  17.196 -0.0692 -0.2521  0.0031
 5547TIP3    H138132   4.590   2.732  17.138  2.4863  0.1358 -1.2248
 5547TIP3    H238133   4.656   2.868  17.143 -0.9577  1.7746  1.4383
 5548TIP3   OH238134   5.205   6.362  13.095 -0.2558 -0.2968 -0.0147
 5548TIP3    H138135   5.239   6.383  13.008 -0.6839 -0.9205 -0.3369
 5548TIP3    H238136   5.217   6.442  13.145 -0.2796  0.1623 -0.7342
 5549TIP3   OH238137   0.010   0.265  15.367  0.5299 -0.0923 -0.1008
 5549TIP3    H138138  -0.022   0.216  15.292 -0.1231 -1.4638  1.0581
 5549TIP3    H238139   0.044   0.347  15.330 -3.1397  0.8740 -1.5200
 5550TIP3   OH238140   3.766   3.539   1.476  0.1210  0.8871 -0.7469
 5550TIP3    H138141   3.759   3.629   1.445 -0.2974  1.5774  1.2594
 5550TIP3    H238142   3.713   3.537   1.556  1.7383 -0.6104  0.3329
 5551TIP3   OH238143   3.575   0.953  11.866  0.1146  0.3269  0.3723
 5551TIP3    H138144   3.493   0.931  11.911  1.3944 -0.3921  2.4380
 5551TIP3    H238145   3.601   1.038  11.903 -1.0578  1.8995 -2.2708
 5552TIP3   OH238146   5.627   5.948  11.590 -0.0525 -0.6016 -0.5596
 5552TIP3    H138147   5.592   5.985  11.509 -3.1226  2.0242  1.8615
 5552TIP3    H238148   5.675   6.021  11.630  1.1991 -1.7970  0.1402
 5553TIP3   OH238149   2.810   1.868   2.191  0.4403 -0.7707  0.0069
 5553TIP3    H138150   2.879   1.805   2.175  1.3622 -0.2957  1.9595
 5553TIP3    H238151   2.817   1.930   2.118  2.5534 -0.3134  0.5729
 5554TIP3   OH238152   6.641   2.576   4.733  0.3726 -0.3560  0.3075
 5554TIP3    H138153   6.683   2.592   4.818  0.5871 -1.0287  0.3340
 5554TIP3    H238154   6.574   2.644   4.726 -1.1977 -1.6788  2.0550
 5555TIP3   OH238155   4.862   4.486  14.680  0.3657  0.1032  0.6007
 5555TIP3    H138156   4.943   4.500  14.632  0.7406 -0.4968  1.0474
 5555TIP3    H238157   4.823   4.573  14.690  0.2366  0.2162 -0.8659
 5556TIP3   OH238158   5.904   4.376   3.684 -0.5473  0.5244  0.3901
 5556TIP3    H138159   5.929   4.365   3.776 -3.4601  2.0273  1.4278
 5556TIP3    H238160   5.935   4.464   3.661  3.0916 -1.0474 -1.1494
 5557TIP3   OH238161   5.043   2.930  12.237  0.6536  0.1094  0.3891
 5557TIP3    H138162   5.120   2.986  12.230  0.0144  0.8194 -1.2625
 5557TIP3    H238163   4.978   2.971  12.180 -1.4148  0.2680  2.7364
 5558TIP3   OH238164   5.321   2.863  14.034  0.5584 -0.2931 -0.3789
 5558TIP3    H138165   5.356   2.929  14.093  1.0726 -0.4901 -0.4604
 5558TIP3    H238166   5.261   2.812  14.089 -0.7709  0.9797 -0.6091
 5559TIP3   OH238167   0.536   5.957  15.302 -0.5608  0.1235  0.4440
 5559TIP3    H138168   0.530   5.976  15.395  1.4372  0.5567  0.4952
 5559TIP3    H238169   0.550   6.042  15.261  1.3602 -0.3769  0.0188
 5560TIP3   OH238170   1.960   6.678  15.530 -0.7831 -0.6700  0.2398
 5560TIP3    H138171   2.007   6.660  15.612 -1.6547  0.7979  1.0754
 5560TIP3    H238172   1.869   6.690  15.557 -0.9570  0.5445 -0.8630
 5561TIP3   OH238173   5.110   1.835   1.159 -0.0453 -0.0032 -0.2692
 5561TIP3    H138174   5.059   1.799   1.086  1.8188  0.4339 -1.8334
 5561TIP3    H238175   5.184   1.775   1.168  1.4957  1.7521 -0.9397
 5562TIP3   OH238176   6.446   4.595   2.240  0.4078  0.0037 -0.3660
 5562TIP3    H138177   6.529   4.572   2.198 -0.7650 -2.0329 -1.6543
 5562TIP3    H238178   6.383   4.532   2.204 -1.2240  0.0230  2.3665
 5563TIP3   OH238179   3.233   3.647   5.426 -1.0431  0.3218 -0.1617
 5563TIP3    H138180   3.276   3.677   5.345 -1.7485  3.0643  0.4167
 5563TIP3    H238181   3.255   3.554   5.432  1.2127  0.6698 -2.1339
 5564TIP3   OH238182   2.456   3.978  12.477 -0.0498  0.1120  0.2861
 5564TIP3    H138183   2.393   3.917  12.440 -0.8524  1.1139 -0.0242
 5564TIP3    H238184   2.508   4.006  12.401 -1.3030  1.7033 -0.0165
 5565TIP3   OH238185   6.504   5.117   1.910  0.0766  0.3983  0.3807
 5565TIP3    H138186   6.594   5.127   1.938  0.4272  0.0105 -0.5803
 5565TIP3    H238187   6.475   5.034   1.949  0.3652  0.1666  0.1029
 5566TIP3   OH238188   3.552   3.766   0.113  0.4688  0.2339  0.8421
 5566TIP3    H138189   3.534   3.851   0.153 -2.0279 -0.6776  1.7993
 5566TIP3    H238190   3.569   3.708   0.187  2.5531 -0.0320  0.1746
 5567TIP3   OH238191   5.980   5.393  11.238  0.0018 -0.2151  1.2190
 5567TIP3    H138192   6.013   5.418  11.324  1.0530  1.4902  0.3375
 5567TIP3    H238193   5.896   5.439  11.229 -0.1371 -0.4406  1.3414
 5568TIP3   OH238194   5.682   0.244   1.182 -0.0035 -0.2471 -0.6293
 5568TIP3    H138195   5.729   0.272   1.103 -0.2758  2.2080  0.0362
 5568TIP3    H238196   5.591   0.238   1.155 -0.3731  2.4664 -0.0577
 5569TIP3   OH238197   1.068   2.133  14.689  0.3440  0.3050 -0.2769
 5569TIP3    H138198   1.136   2.200  14.678  1.4840 -0.8498 -0.3707
 5569TIP3    H238199   1.097   2.061  14.633 -0.0966 -0.8617  0.9887
 5570TIP3   OH238200   0.997   2.210  16.931  0.2957 -0.0300  0.3156
 5570TIP3    H138201   0.987   2.294  16.977 -0.6288 -0.9509  1.8619
 5570TIP3    H238202   0.919   2.160  16.956  0.9078 -1.4075 -0.4708
 5571TIP3   OH238203   3.667   0.799   2.586  0.2691  0.2548 -0.4371
 5571TIP3    H138204   3.606   0.780   2.657 -0.0596  0.1417 -0.7464
 5571TIP3    H238205   3.688   0.892   2.597  0.6961  0.0888  0.1695
 5572TIP3   OH238206   4.846   6.182  14.279 -0.7473  0.1634 -0.0763
 5572TIP3    H138207   4.764   6.229  14.266 -1.3426 -0.8674 -0.1162
 5572TIP3    H238208   4.908   6.249  14.308 -1.8937  0.7679  1.0514
 5573TIP3   OH238209   4.891   2.183   3.245 -0.8137 -0.0465  0.4624
 5573TIP3    H138210   4.975   2.150   3.213 -0.0858  2.4303 -0.2410
 5573TIP3    H238211   4.826   2.132   3.197  0.2593 -1.7132  0.7198
 5574TIP3   OH238212   3.718   3.037   2.741 -0.1088 -0.0677  0.5943
 5574TIP3    H138213   3.782   2.978   2.780 -1.0332 -2.2544 -1.1026
 5574TIP3    H238214   3.767   3.082   2.672  0.1829 -0.0446  0.8142
 5575TIP3   OH238215   4.018   1.039  13.860  0.7973  0.4276  0.3215
 5575TIP3    H138216   3.973   0.967  13.816 -0.3397 -0.8469  3.4421
 5575TIP3    H238217   3.955   1.112  13.857 -0.4629 -0.5347  2.2966
 5576TIP3   OH238218   1.917   4.338   2.188  0.3059 -0.1437 -0.0627
 5576TIP3    H138219   2.002   4.315   2.151  0.1425  0.4119 -0.7798
 5576TIP3    H238220   1.904   4.429   2.163 -1.3266 -0.7536 -1.5318
 5577TIP3   OH238221   1.989   6.355  15.761  0.1082  0.2893  0.0392
 5577TIP3    H138222   1.895   6.356  15.780  0.2048  1.2052  0.5005
 5577TIP3    H238223   2.011   6.448  15.750  0.5871 -0.0395 -1.8885
 5578TIP3   OH238224   2.042   2.652   3.939 -0.0511 -0.4398  0.1285
 5578TIP3    H138225   2.045   2.730   3.883 -2.9595 -0.9237 -0.8196
 5578TIP3    H238226   1.992   2.681   4.015  0.5806 -0.8416  0.6911
 5579TIP3   OH238227   0.816   5.167  16.026 -0.2410 -0.2698 -0.1916
 5579TIP3    H138228   0.747   5.133  16.083 -0.1566 -0.7248 -0.3592
 5579TIP3    H238229   0.873   5.215  16.086  0.1573 -1.2256  0.2132
 5580TIP3   OH238230   2.552   1.882  14.685  0.0386 -0.5600  0.0211
 5580TIP3    H138231   2.595   1.962  14.655 -2.8870  1.4225  0.8667
 5580TIP3    H238232   2.559   1.886  14.781  1.0737 -2.0554  0.0320
 5581TIP3   OH238233   3.747   5.500   0.246 -0.5127  0.0500 -0.5068
 5581TIP3    H138234   3.752   5.488   0.341  1.0248 -0.6645 -0.6672
 5581TIP3    H238235   3.830   5.465   0.212 -1.9632 -1.7570 -2.3217
 5582TIP3   OH238236   0.327   0.799  16.304  0.6037  0.1356 -0.1040
 5582TIP3    H138237   0.402   0.815  16.246  0.7993  2.9768  0.8819
 5582TIP3    H238238   0.258   0.855  16.270 -0.2545 -0.4905  0.5838
 5583TIP3   OH238239   4.680   1.184   5.052  0.4952  0.1298 -0.5031
 5583TIP3    H138240   4.681   1.140   5.136 -0.4952 -0.3136 -0.7128
 5583TIP3    H238241   4.689   1.277   5.074  3.5676 -0.2232 -0.1284
 5584TIP3   OH238242   5.114   3.091  15.313 -0.2381 -0.8392  0.5251
 5584TIP3    H138243   5.068   3.028  15.369 -2.5109 -0.8411 -1.2704
 5584TIP3    H238244   5.204   3.060  15.311 -0.5887 -2.0736  2.4184
 5585TIP3   OH238245   1.711   4.570   3.373  0.3056 -0.3673  0.3002
 5585TIP3    H138246   1.656   4.552   3.449  0.4882 -0.8164  0.3225
 5585TIP3    H238247   1.702   4.665   3.359 -1.2901 -0.6039 -0.3216
 5586TIP3   OH238248   1.676   3.423   3.328 -0.0394  0.1637  0.8229
 5586TIP3    H138249   1.728   3.502   3.340 -0.4720  0.3158  1.8117
 5586TIP3    H238250   1.588   3.455   3.307  0.0359 -0.0718  0.1472
 5587TIP3   OH238251   3.485   2.670  10.810 -0.3353 -0.4999  0.0979
 5587TIP3    H138252   3.426   2.740  10.782 -1.1003 -0.7436  1.0386
 5587TIP3    H238253   3.560   2.715  10.848 -0.5461 -0.1766  0.1342
 5588TIP3   OH238254   4.298   4.912   0.996 -0.3528  0.0486  0.0042
 5588TIP3    H138255   4.369   4.976   1.010  0.6273 -1.1852  0.8328
 5588TIP3    H238256   4.277   4.920   0.903  2.1153 -0.8033 -0.6648
 5589TIP3   OH238257   4.313   4.496   1.355 -0.7314 -0.4158 -0.3291
 5589TIP3    H138258   4.219   4.497   1.336 -1.0726 -1.2315  1.2383
 5589TIP3    H238259   4.355   4.505   1.269 -2.2238  2.2804 -0.8218
 5590TIP3   OH238260   1.154   5.263   2.935  0.3214  0.6850  0.3700
 5590TIP3    H138261   1.248   5.283   2.935  0.5659 -0.4283  0.7532
 5590TIP3    H238262   1.113   5.341   2.897  1.4705  0.8387 -0.5833
 5591TIP3   OH238263   4.128   5.572  16.885 -0.1701 -0.2196 -0.2161
 5591TIP3    H138264   4.043   5.597  16.922 -0.5290 -1.8346  0.0997
 5591TIP3    H238265   4.191   5.629  16.928 -1.0518  0.7210 -0.1607
 5592TIP3   OH238266   1.987   0.420  10.753 -0.2554 -0.3122 -0.1163
 5592TIP3    H138267   2.076   0.421  10.788 -0.2065  0.4973 -0.2633
 5592TIP3    H238268   1.935   0.468  10.817 -0.1686  1.1410 -1.1219
 5593TIP3   OH238269   6.780   6.747  16.837  0.0840 -0.1940 -0.0537
 5593TIP3    H138270   6.729   6.814  16.792  0.9661  0.4770 -0.0820
 5593TIP3    H238271   6.718   6.705  16.896 -1.0632 -1.0041 -1.7968
 5594TIP3   OH238272   3.086   0.898  14.138 -0.2594  0.0069  0.2328
 5594TIP3    H138273   2.999   0.900  14.098 -0.4094  0.7403  0.5905
 5594TIP3    H238274   3.103   0.989  14.163  0.4074 -0.2168  0.5916
 5595TIP3   OH238275   2.596   0.560  16.441  0.5611  0.3962  0.1110
 5595TIP3    H138276   2.561   0.483  16.397 -0.2808 -0.7289  2.6077
 5595TIP3    H238277   2.520   0.617  16.453  1.3268  1.9738 -2.4006
 5596TIP3   OH238278   4.959   2.557   1.860 -0.2222  0.7072 -0.2635
 5596TIP3    H138279   5.043   2.600   1.876  0.8324 -1.7147  0.8051
 5596TIP3    H238280   4.970   2.512   1.776 -0.2176 -0.1475  0.1896
 5597TIP3   OH238281   4.583   2.186   1.265 -0.4023 -0.0706  0.2673
 5597TIP3    H138282   4.557   2.173   1.174  0.2722 -1.8760  0.3093
 5597TIP3    H238283   4.606   2.098   1.296  3.8953  1.0839  0.7785
 5598TIP3   OH238284   3.804   2.841  13.511 -0.0285 -0.0665 -0.3974
 5598TIP3    H138285   3.719   2.823  13.471  0.1728  1.8018 -1.7325
 5598TIP3    H238286   3.864   2.782  13.466 -0.6050 -1.4394  0.5974
 5599TIP3   OH238287   1.985   2.009   1.003  0.5597  0.0987 -0.5061
 5599TIP3    H138288   1.912   2.039   0.949  0.9320  0.1011 -1.0107
 5599TIP3    H238289   1.944   1.960   1.074  0.0804 -0.0685 -0.9006
 5600TIP3   OH238290   5.468   5.522  11.992 -0.2930 -0.0115  0.5186
 5600TIP3    H138291   5.376   5.517  12.018 -0.3158  0.3427  0.5027
 5600TIP3    H238292   5.468   5.494  11.901 -0.4147  0.2030  0.4530
 5601TIP3   OH238293   2.537   3.709   2.198 -0.6775 -0.1682  0.0620
 5601TIP3    H138294   2.558   3.767   2.124 -0.1132 -0.9231 -0.3772
 5601TIP3    H238295   2.584   3.746   2.272  2.5258 -1.9639 -0.9507
 5602TIP3   OH238296   3.617   6.670   6.196  0.8027 -0.5949  0.8499
 5602TIP3    H138297   3.590   6.726   6.268  0.4142  0.8368 -0.3777
 5602TIP3    H238298   3.540   6.615   6.178 -0.6948  2.0350 -1.2647
 5603TIP3   OH238299   1.840   5.660  16.271 -0.2063 -0.1174 -0.3413
 5603TIP3    H138300   1.792   5.743  16.277  0.2954  0.2151 -0.9043
 5603TIP3    H238301   1.774   5.596  16.246 -0.9212 -0.1955  1.6281
 5604TIP3   OH238302   3.327   1.950  15.176  0.3249 -0.3793  0.0305
 5604TIP3    H138303   3.303   1.984  15.089 -0.3881 -1.8786 -0.3708
 5604TIP3    H238304   3.291   2.015  15.237 -2.1538 -1.0050 -0.6799
 5605TIP3   OH238305   4.739   2.418   0.995  0.1201  0.3285  0.1104
 5605TIP3    H138306   4.828   2.429   1.029  0.4705  0.9856 -1.0002
 5605TIP3    H238307   4.752   2.377   0.909 -0.7206 -0.7180  0.4735
 5606TIP3   OH238308   3.216   0.730   4.299 -0.2252  0.3666 -0.0732
 5606TIP3    H138309   3.164   0.649   4.305  0.1061  0.1529 -0.1093
 5606TIP3    H238310   3.292   0.714   4.354 -1.0948  1.3764  1.4729
 5607TIP3   OH238311   3.923   6.217  15.139  0.3700  0.0568 -0.0403
 5607TIP3    H138312   3.950   6.285  15.078  0.7081 -0.4777 -0.4927
 5607TIP3    H238313   3.909   6.139  15.084 -2.0451  0.3036  0.1736
 5608TIP3   OH238314   2.186   4.693  11.431  0.1154 -0.4998 -0.7430
 5608TIP3    H138315   2.267   4.665  11.387 -0.0719 -1.6506 -0.3700
 5608TIP3    H238316   2.199   4.786  11.448  1.3540 -0.6698 -0.7169
 5609TIP3   OH238317   6.237   5.973   4.603  0.5896  1.1792  0.2682
 5609TIP3    H138318   6.246   6.005   4.693  0.4292  0.6429  0.4742
 5609TIP3    H238319   6.292   5.896   4.599 -2.1462 -0.8870  0.9269
 5610TIP3   OH238320   3.566   5.224  14.640 -0.0756  0.3990  0.3795
 5610TIP3    H138321   3.489   5.206  14.585  0.8040 -2.8978  0.1408
 5610TIP3    H238322   3.538   5.202  14.728 -0.1710  1.6849  0.6845
 5611TIP3   OH238323   0.221   0.644  10.735 -0.4824 -0.2198  0.4319
 5611TIP3    H138324   0.198   0.601  10.818  0.4585 -0.7712  0.4109
 5611TIP3    H238325   0.315   0.630  10.726 -0.2710  1.3209  0.1185
 5612TIP3   OH238326   3.553   2.234  13.798 -0.2789 -0.6660  0.1730
 5612TIP3    H138327   3.511   2.234  13.883  1.1199  0.4260  0.8819
 5612TIP3    H238328   3.579   2.325  13.783 -1.2467 -0.6823 -1.7929
 5613TIP3   OH238329   0.696   1.832   1.405 -0.4672  0.0923  0.3763
 5613TIP3    H138330   0.693   1.834   1.500  1.2471  0.9791  0.4128
 5613TIP3    H238331   0.630   1.897   1.378 -0.6395  0.1614  0.9496
 5614TIP3   OH238332   0.117   0.613   4.343 -0.3053 -0.0921 -0.6201
 5614TIP3    H138333   0.120   0.675   4.270 -1.3852  0.5433 -0.1340
 5614TIP3    H238334   0.063   0.656   4.409  0.1064 -0.9556  0.2888
 5615TIP3   OH238335   5.078   3.082   5.015 -0.1185 -0.2719  0.9439
 5615TIP3    H138336   5.130   3.001   5.017  0.1022 -0.1058  2.9848
 5615TIP3    H238337   5.139   3.150   5.042 -0.3015  0.6161 -0.8039
 5616TIP3   OH238338   2.700   2.296   2.306  0.7048  0.4614  0.6567
 5616TIP3    H138339   2.733   2.273   2.393 -2.2359  1.4207  2.1057
 5616TIP3    H238340   2.620   2.244   2.296  0.3857  1.2397 -0.9619
 5617TIP3   OH238341   3.642   1.052   1.235  0.7252 -0.0482 -0.2260
 5617TIP3    H138342   3.555   1.054   1.276  0.0632 -0.5117 -1.5680
 5617TIP3    H238343   3.640   1.125   1.173  0.4497 -1.4380 -1.8904
 5618TIP3   OH238344   2.308   6.385   0.285  0.0689  0.3849  0.2367
 5618TIP3    H138345   2.247   6.353   0.219  2.9283 -0.8209 -1.9546
 5618TIP3    H238346   2.281   6.343   0.367 -2.2961  0.2952 -0.5697
 5619TIP3   OH238347   2.868   6.376   4.616 -0.4033  0.3175  0.1266
 5619TIP3    H138348   2.882   6.309   4.549 -3.0991 -1.8274  1.6230
 5619TIP3    H238349   2.817   6.443   4.572 -0.6906 -0.2677 -0.4394
 5620TIP3   OH238350   4.015   2.315   3.369  0.1957  0.0551  0.2091
 5620TIP3    H138351   4.015   2.406   3.341 -0.5723 -0.6706 -2.2603
 5620TIP3    H238352   4.104   2.299   3.399  0.2119  1.7284  1.1159
 5621TIP3   OH238353   1.807   0.866   0.789 -0.4957  0.4363 -0.0578
 5621TIP3    H138354   1.856   0.863   0.707  1.1023  0.8856  0.8651
 5621TIP3    H238355   1.823   0.781   0.830 -1.7879 -0.0223 -0.4773
 5622TIP3   OH238356   5.875   4.490  14.935 -0.4279  0.4470  0.0716
 5622TIP3    H138357   5.905   4.409  14.893 -0.1831  0.4019  0.3290
 5622TIP3    H238358   5.944   4.511  14.997 -1.8385 -0.7409  2.0966
 5623TIP3   OH238359   4.590   4.667  16.607 -0.1734  0.3962  0.4187
 5623TIP3    H138360   4.509   4.703  16.571 -0.0763 -0.3162 -0.5282
 5623TIP3    H238361   4.561   4.612  16.680 -0.4424  1.1075  0.8533
 5624TIP3   OH238362   1.687   1.442   0.662  0.0797 -0.3914  0.4484
 5624TIP3    H138363   1.762   1.503   0.661 -0.8287  0.7408 -0.4129
 5624TIP3    H238364   1.650   1.449   0.574 -1.3874 -0.5113  1.0406
 5625TIP3   OH238365   5.645   6.027   3.450 -0.1128  0.2345 -0.2609
 5625TIP3    H138366   5.634   6.122   3.461  2.8745  0.4940  0.8124
 5625TIP3    H238367   5.626   5.991   3.537 -0.2889 -0.0569 -0.4204
 5626TIP3   OH238368   0.247   1.744   3.146  0.6625 -0.6152  0.3534
 5626TIP3    H138369   0.182   1.783   3.204 -0.7495  0.2202 -1.7305
 5626TIP3    H238370   0.327   1.793   3.163 -0.0623  0.4682  0.6843
 5627TIP3   OH238371   3.198   1.306   0.897  0.4850 -0.5207  0.0495
 5627TIP3    H138372   3.188   1.212   0.914 -0.8478 -0.2466  0.8367
 5627TIP3    H238373   3.119   1.346   0.934  0.3873  0.7713 -1.5015
 5628TIP3   OH238374   4.884   4.499   5.206  0.3498 -0.9517 -0.6567
 5628TIP3    H138375   4.971   4.527   5.233 -1.0522  1.0587  1.9402
 5628TIP3    H238376   4.869   4.544   5.122  1.9148 -1.6295 -1.3240
 5629TIP3   OH238377   0.032   2.989  16.029  0.0554  0.7735 -0.0918
 5629TIP3    H138378  -0.035   2.932  15.990  1.5861 -0.5608 -0.8394
 5629TIP3    H238379  -0.018   3.060  16.070 -1.7422  0.5251 -1.7673
 5630TIP3   OH238380   6.173   2.343  14.253 -0.5786 -0.2544  0.0221
 5630TIP3    H138381   6.249   2.336  14.194 -0.8477  0.6640 -0.4501
 5630TIP3    H238382   6.098   2.318  14.199 -1.2269  3.5449 -0.9817
 5631TIP3   OH238383   0.172   5.402   5.962 -0.2947 -0.1063 -0.1390
 5631TIP3    H138384   0.087   5.383   5.922 -1.2210  2.1139  0.6777
 5631TIP3    H238385   0.169   5.355   6.046  0.2427 -1.9036 -1.0971
 5632TIP3   OH238386   6.065   0.713   3.165  0.0389 -0.3573  0.4782
 5632TIP3    H138387   6.020   0.774   3.223  2.4351  0.2748  1.7190
 5632TIP3    H238388   6.108   0.651   3.224  0.1774 -1.4056 -0.6923
 5633TIP3   OH238389   0.500   4.478  16.850  0.0575  0.9605  0.1727
 5633TIP3    H138390   0.421   4.517  16.886 -0.6428  0.8007 -1.1521
 5633TIP3    H238391   0.532   4.543  16.787  0.7926  0.8722  0.4435
 5634TIP3   OH238392   0.704   4.278   6.787  0.4452  0.3708  0.0441
 5634TIP3    H138393   0.745   4.264   6.702 -0.0152  2.5703 -0.5822
 5634TIP3    H238394   0.688   4.190   6.821  2.9714 -0.5183 -0.9841
 5635TIP3   OH238395   0.995   3.035   0.229  0.2001 -0.3087  0.0992
 5635TIP3    H138396   0.979   3.129   0.223  1.4199 -0.1541 -1.1505
 5635TIP3    H238397   1.076   3.027   0.280 -0.1762 -0.7052  0.6389
 5636TIP3   OH238398   1.139   1.844  12.142  0.1172 -0.1162 -0.5441
 5636TIP3    H138399   1.129   1.762  12.092 -1.1098 -1.3798  1.6905
 5636TIP3    H238400   1.210   1.825  12.204 -1.4382 -0.1375  1.2393
 5637TIP3   OH238401   1.727   1.407   3.991  0.5603  0.4068 -0.0097
 5637TIP3    H138402   1.654   1.349   3.969  1.0845 -0.6075  0.8531
 5637TIP3    H238403   1.804   1.364   3.953  0.8378  0.9862 -0.1104
 5638TIP3   OH238404   0.467   2.780  14.281  0.0220  0.0125 -0.0768
 5638TIP3    H138405   0.395   2.757  14.223  0.0846 -1.4878  0.4417
 5638TIP3    H238406   0.546   2.760  14.231  0.0868 -2.2405  0.8541
 5639TIP3   OH238407   0.585   4.759  12.555  0.2979  0.3177  0.2378
 5639TIP3    H138408   0.666   4.801  12.528  0.4602  1.4944  2.4036
 5639TIP3    H238409   0.517   4.824  12.538 -0.0196 -0.1834 -0.4071
 5640TIP3   OH238410   5.983   2.910   1.161 -0.5119 -0.2840  0.5588
 5640TIP3    H138411   6.021   2.888   1.076  4.1419  1.4530  2.0485
 5640TIP3    H238412   5.943   2.828   1.190 -1.7713 -1.0563 -3.0080
 5641TIP3   OH238413   5.291   4.045   0.275  0.1813  0.1623 -0.0248
 5641TIP3    H138414   5.344   3.965   0.276 -0.8584 -0.5441  1.1767
 5641TIP3    H238415   5.350   4.113   0.308  0.4458 -0.5528  1.0193
 5642TIP3   OH238416   0.527   0.050   4.238 -0.3649 -0.8216 -0.2689
 5642TIP3    H138417   0.601   0.015   4.189 -0.3853  0.1498 -0.9944
 5642TIP3    H238418   0.449   0.021   4.190 -0.3513  1.2885 -1.6105
 5643TIP3   OH238419   4.847   0.556   6.367 -0.8957 -0.2156  0.1972
 5643TIP3    H138420   4.924   0.514   6.406 -0.9442  0.3663  0.9356
 5643TIP3    H238421   4.842   0.520   6.279  0.0877 -0.4367  0.2290
 5644TIP3   OH238422   6.768   2.672  16.126  0.4844  0.2537  0.3423
 5644TIP3    H138423   6.789   2.601  16.186  1.3627  0.3105  0.1061
 5644TIP3    H238424   6.701   2.635  16.068  2.5458 -1.1348 -1.2251
 5645TIP3   OH238425   3.111   6.093   2.076  0.0005  0.2256  0.1747
 5645TIP3    H138426   3.179   6.064   2.136  0.0612 -0.9541 -0.4535
 5645TIP3    H238427   3.029   6.079   2.123  0.0143 -1.2093 -0.2150
 5646TIP3   OH238428   6.429   2.896  14.385 -0.6020 -0.4217  0.2782
 5646TIP3    H138429   6.499   2.944  14.428  1.1992 -3.0981  0.4198
 5646TIP3    H238430   6.352   2.910  14.441 -0.0954  2.0768  0.4014
 5647TIP3   OH238431   4.796   2.406  14.715  0.5451 -0.0479  0.5240
 5647TIP3    H138432   4.765   2.493  14.691 -0.0220 -0.5253 -0.5291
 5647TIP3    H238433   4.892   2.413  14.712  0.5159  0.7729  1.3406
 5648TIP3   OH238434   6.107   6.518   3.680 -0.0419 -1.0394  0.8642
 5648TIP3    H138435   6.032   6.575   3.660 -0.7578 -1.8846  1.0726
 5648TIP3    H238436   6.127   6.536   3.772  0.9559  0.2538  0.3985
 5649TIP3   OH238437   1.392   4.809   5.392 -0.1272 -0.2815  0.1879
 5649TIP3    H138438   1.337   4.862   5.449 -0.3260 -1.5081  1.1676
 5649TIP3    H238439   1.369   4.836   5.304 -1.7639 -0.2493  0.6067
 5650TIP3   OH238440   4.039   1.496  15.395 -0.2230  0.0524  0.0893
 5650TIP3    H138441   4.110   1.438  15.367  0.6231  0.5854  1.1200
 5650TIP3    H238442   4.039   1.490  15.490 -0.0356  1.8469  0.2181
 5651TIP3   OH238443   1.328   0.281  15.585  0.4048 -0.6974  0.0988
 5651TIP3    H138444   1.391   0.230  15.636  1.6498  1.7725  1.1127
 5651TIP3    H238445   1.251   0.287  15.641  1.3841  1.1079  1.3059
 5652TIP3   OH238446   1.081   2.383   4.592  0.0684  0.5905  0.0928
 5652TIP3    H138447   1.051   2.335   4.669 -0.1622  0.2738 -0.1921
 5652TIP3    H238448   1.013   2.450   4.578 -0.4167 -0.0117 -0.4469
 5653TIP3   OH238449   5.278   4.602   2.365  0.0682  0.0279  0.1282
 5653TIP3    H138450   5.335   4.555   2.304  0.7883  1.6917 -0.5202
 5653TIP3    H238451   5.295   4.561   2.450 -0.3605 -1.7838 -0.6379
 5654TIP3   OH238452   1.271   3.916  12.970  0.3131 -0.4318  0.3336
 5654TIP3    H138453   1.277   3.836  13.022  0.3462 -0.4727  0.2676
 5654TIP3    H238454   1.287   3.886  12.880  0.3395 -0.3486  0.3106
 5655TIP3   OH238455   2.815   3.534  10.746  0.1040 -0.6150 -0.0672
 5655TIP3    H138456   2.751   3.593  10.784 -1.3278 -1.1492 -1.5756
 5655TIP3    H238457   2.806   3.453  10.796  1.3343  0.0631  1.3092
 5656TIP3   OH238458   3.648   2.952  11.581  0.4178  0.2224  0.2908
 5656TIP3    H138459   3.579   3.018  11.590 -0.2634 -0.7930  3.0784
 5656TIP3    H238460   3.729   3.002  11.579 -0.1818  1.2406  0.7252
 5657TIP3   OH238461   3.052   5.904   4.681 -0.8030  0.4017 -0.3331
 5657TIP3    H138462   3.001   5.842   4.629 -0.9149  1.4303 -1.4956
 5657TIP3    H238463   3.044   5.874   4.771 -0.9174 -1.2097 -0.8757
 5658TIP3   OH238464   4.714   1.593  14.091 -0.6696  0.3671 -0.8398
 5658TIP3    H138465   4.736   1.529  14.023 -0.7536 -1.3265  0.6789
 5658TIP3    H238466   4.798   1.613  14.132 -1.2273 -2.5660  1.9132
 5659TIP3   OH238467   4.447   4.400  11.196 -0.0697 -0.2488  0.0205
 5659TIP3    H138468   4.509   4.469  11.218 -0.1678 -0.2584  0.3232
 5659TIP3    H238469   4.439   4.348  11.276  1.2834 -1.6065 -0.6932
 5660TIP3   OH238470   2.278   1.819   4.795  0.4130  0.0239 -0.0327
 5660TIP3    H138471   2.244   1.804   4.707 -1.1657 -1.4696  0.7982
 5660TIP3    H238472   2.365   1.779   4.794  0.3201 -0.1714 -0.8403
 5661TIP3   OH238473   2.129   2.668  12.448 -0.5591  0.4896 -0.0020
 5661TIP3    H138474   2.173   2.716  12.379  0.3604  0.5399  0.6045
 5661TIP3    H238475   2.184   2.590  12.462  0.0647  1.1875  1.6296
 5662TIP3   OH238476   0.214   4.217  10.355  0.1679 -0.4838 -0.3315
 5662TIP3    H138477   0.128   4.258  10.367 -0.3011 -1.8992  1.3376
 5662TIP3    H238478   0.202   4.157  10.282 -1.1400 -2.9415  1.8362
 5663TIP3   OH238479   5.879   0.987  17.125 -0.5806 -0.1061 -0.3867
 5663TIP3    H138480   5.950   1.045  17.098 -0.8519  0.5679  0.3322
 5663TIP3    H238481   5.851   0.943  17.044  1.5333 -1.3637 -0.4709
 5664TIP3   OH238482   1.010   3.755   1.835 -0.5371 -0.2215  0.5278
 5664TIP3    H138483   0.919   3.730   1.849 -0.6743  0.3553  0.6366
 5664TIP3    H238484   1.059   3.674   1.850 -1.1356 -0.8433 -0.7426
 5665TIP3   OH238485   2.062   3.279   0.008 -0.1838 -0.1463 -0.2199
 5665TIP3    H138486   2.092   3.300  -0.080  0.2928 -1.3535 -0.3610
 5665TIP3    H238487   1.966   3.287   0.003 -0.0407  1.5506 -0.3526
 5666TIP3   OH238488   2.240   1.871  17.061  0.2653 -0.0621 -0.0592
 5666TIP3    H138489   2.216   1.804  17.125  0.2843  1.3462  1.4578
 5666TIP3    H238490   2.159   1.919  17.045  0.4400  0.1026 -0.4491
 5667TIP3   OH238491   4.508   4.267  13.131 -0.2617  0.7444 -0.7664
 5667TIP3    H138492   4.460   4.264  13.049 -0.6204  0.6602 -0.5539
 5667TIP3    H238493   4.443   4.294  13.196 -0.5068 -1.3060 -0.1280
 5668TIP3   OH238494   3.917   1.632   3.136 -0.2226  0.0908  0.4143
 5668TIP3    H138495   3.887   1.541   3.141 -0.4712  0.2352  1.7092
 5668TIP3    H238496   4.002   1.631   3.181 -0.4530  0.5898  0.8673
 5669TIP3   OH238497   0.632   5.309  15.226 -0.2911 -0.0624 -0.5506
 5669TIP3    H138498   0.680   5.229  15.204  0.5258  0.3202 -0.2079
 5669TIP3    H238499   0.606   5.346  15.142  0.7923  0.1856 -0.7838
 5670TIP3   OH238500   3.756   1.268   0.105 -0.2736  0.3427 -0.2510
 5670TIP3    H138501   3.826   1.306   0.158 -1.3673 -2.0254  3.0626
 5670TIP3    H238502   3.802   1.211   0.043  0.8080 -0.7114  1.4720
 5671TIP3   OH238503   0.375   4.217  10.578  0.3914 -0.4281  0.0496
 5671TIP3    H138504   0.338   4.297  10.615  0.5015 -1.1703  1.8027
 5671TIP3    H238505   0.339   4.213  10.489 -1.4188  0.3849  0.7113
 5672TIP3   OH238506   4.627   6.758   1.053 -0.0280  0.0992 -0.2158
 5672TIP3    H138507   4.614   6.811   0.975 -1.9933  0.1434  0.1195
 5672TIP3    H238508   4.706   6.793   1.093 -0.1496  1.4118 -1.0972
 5673TIP3   OH238509   6.349   3.374   1.960  0.2295 -0.3985  0.2798
 5673TIP3    H138510   6.409   3.305   1.933 -0.9073 -1.0106 -0.7546
 5673TIP3    H238511   6.327   3.419   1.878 -0.1752  0.2437  0.7417
 5674TIP3   OH238512   5.798   0.968   0.845  0.4359  0.0696  0.0930
 5674TIP3    H138513   5.738   1.033   0.881  1.6010  1.2869 -0.1273
 5674TIP3    H238514   5.871   0.965   0.907  0.5424 -0.7869 -0.0695
 5675TIP3   OH238515   0.407   0.406   6.037  0.0875 -0.1309  0.4723
 5675TIP3    H138516   0.425   0.334   5.977 -1.1508  0.0721 -0.1569
 5675TIP3    H238517   0.357   0.469   5.985 -0.8315  0.1354  1.6644
 5676TIP3   OH238518   2.563   1.511   2.234  0.7304 -0.4349 -0.0545
 5676TIP3    H138519   2.648   1.467   2.236  1.5774  1.1078 -0.6586
 5676TIP3    H238520   2.499   1.441   2.246  2.0616 -1.6981 -0.1465
 5677TIP3   OH238521   4.216   2.425  13.615  0.1059  0.7814  0.2131
 5677TIP3    H138522   4.159   2.502  13.609 -1.0721 -0.2170 -1.5395
 5677TIP3    H238523   4.281   2.449  13.681 -1.0114  2.7925  0.6153
 5678TIP3   OH238524   0.709   2.109  16.310 -0.2088  0.5939  0.2942
 5678TIP3    H138525   0.802   2.126  16.321 -0.3652  0.8349  1.3088
 5678TIP3    H238526   0.667   2.194  16.322 -0.7784  0.0070  2.8071
 5679TIP3   OH238527   3.303   1.956   4.556  0.2826 -0.2292  0.0435
 5679TIP3    H138528   3.252   2.035   4.573 -0.4444 -0.6742 -0.0556
 5679TIP3    H238529   3.247   1.903   4.500  1.0451 -0.5244 -0.4463
 5680TIP3   OH238530   1.895   4.867  15.254  0.1377  0.6070  0.0565
 5680TIP3    H138531   1.850   4.907  15.328  0.1897 -0.2517  0.5555
 5680TIP3    H238532   1.953   4.802  15.293  0.5098  0.4747 -0.7077
 5681TIP3   OH238533   0.799   6.272  14.452 -0.4996 -0.1323 -0.2558
 5681TIP3    H138534   0.800   6.274  14.548 -1.2607  0.6625 -0.2470
 5681TIP3    H238535   0.719   6.225  14.430  0.8390 -2.3598 -0.5226
 5682TIP3   OH238536   4.973   4.507  17.094 -0.3275 -0.0742  0.2709
 5682TIP3    H138537   4.889   4.466  17.073 -0.5593  0.0464  0.9580
 5682TIP3    H238538   4.977   4.506  17.189  1.6085 -2.4086  0.2187
 5683TIP3   OH238539   1.143   1.862   1.815 -0.0288 -0.6986 -0.0116
 5683TIP3    H138540   1.098   1.931   1.864 -0.7118 -0.7700 -0.5246
 5683TIP3    H238541   1.211   1.831   1.874  1.2405  1.3962 -0.2964
 5684TIP3   OH238542   5.904   1.740  17.198 -0.3471  0.4592  0.3023
 5684TIP3    H138543   5.989   1.772  17.169  0.6510 -0.3482  2.3126
 5684TIP3    H238544   5.915   1.646  17.206 -1.3980  0.3669  0.7245
 5685TIP3   OH238545   5.820   1.364  16.221  0.3998 -0.0615  0.1406
 5685TIP3    H138546   5.783   1.292  16.272 -0.2728 -0.2175 -0.5717
 5685TIP3    H238547   5.821   1.332  16.131  0.4494  0.6782 -0.1265
 5686TIP3   OH238548   0.274   6.061  11.403 -0.2298 -0.0505 -0.2343
 5686TIP3    H138549   0.183   6.032  11.401  0.0263 -1.1502  2.0809
 5686TIP3    H238550   0.319   6.001  11.343 -1.0435  0.6988 -1.6330
 5687TIP3   OH238551   1.681   2.160   6.457 -0.5004  0.4040  0.1103
 5687TIP3    H138552   1.776   2.170   6.468 -0.4881  0.2997  0.1061
 5687TIP3    H238553   1.665   2.068   6.478 -0.2907 -0.1238 -1.9737
 5688TIP3   OH238554   3.216   2.642  12.062 -0.1648 -0.1369 -0.2673
 5688TIP3    H138555   3.217   2.679  11.974  3.2946  2.7598  0.9009
 5688TIP3    H238556   3.293   2.586  12.065 -0.3771 -0.3710  0.8805
 5689TIP3   OH238557   2.684   2.502   3.361  0.1531  0.1691 -0.8066
 5689TIP3    H138558   2.734   2.574   3.323  0.9229  0.5732  0.9006
 5689TIP3    H238559   2.592   2.529   3.353  0.2717  0.1408 -2.5085
 5690TIP3   OH238560   4.206   3.519  12.112 -0.4559 -0.1359 -0.0498
 5690TIP3    H138561   4.262   3.491  12.185 -0.9737 -0.3631  0.2629
 5690TIP3    H238562   4.117   3.514  12.147 -0.6230  0.9663 -0.3012
 5691TIP3   OH238563   0.635   4.593   0.456  0.0154 -0.0949  0.0942
 5691TIP3    H138564   0.545   4.605   0.426 -0.2660  2.4417  1.7037
 5691TIP3    H238565   0.683   4.667   0.418  1.7002 -2.0393 -1.6574
 5692TIP3   OH238566   6.405   2.204  12.288  0.5693 -0.5631 -0.2233
 5692TIP3    H138567   6.420   2.166  12.375  1.2448  0.1800 -0.0056
 5692TIP3    H238568   6.432   2.295  12.297  0.6246 -0.4764 -1.2153
 5693TIP3   OH238569   2.767   4.021   0.466  0.5353 -0.4065  0.1445
 5693TIP3    H138570   2.718   4.005   0.547  0.6427 -0.4919  0.1929
 5693TIP3    H238571   2.800   3.934   0.441 -0.2042 -0.5214 -0.4435
 5694TIP3   OH238572   4.524   1.603   2.318 -0.0684  0.5008 -0.4919
 5694TIP3    H138573   4.536   1.511   2.341  1.4426  0.5763 -0.9379
 5694TIP3    H238574   4.451   1.632   2.372 -1.5963 -1.3817 -1.4882
 5695TIP3   OH238575   5.468   0.476  12.643  0.0412  0.3036  0.0964
 5695TIP3    H138576   5.437   0.444  12.558  0.9627 -0.3650  0.0076
 5695TIP3    H238577   5.417   0.556  12.658  0.6944  1.0914 -1.6495
 5696TIP3   OH238578   0.144   4.932   3.452  0.4321  0.4190 -0.0261
 5696TIP3    H138579   0.134   4.839   3.431 -3.2488  0.4297  1.2849
 5696TIP3    H238580   0.192   4.969   3.377 -1.2614 -1.8747 -2.3249
 5697TIP3   OH238581   2.052   1.364   2.111  0.4334  0.5285  0.2714
 5697TIP3    H138582   1.998   1.320   2.045  0.1305  0.4527  0.5707
 5697TIP3    H238583   2.141   1.334   2.093  0.2036 -0.3394  0.5900
 5698TIP3   OH238584   2.366   4.975   3.078 -0.1320  0.4414  0.3023
 5698TIP3    H138585   2.398   4.928   3.002  0.0944 -0.1030  0.7285
 5698TIP3    H238586   2.303   4.915   3.119 -1.8087  1.5590 -0.6040
 5699TIP3   OH238587   0.717   2.752   2.250 -0.1069 -0.3496 -0.2916
 5699TIP3    H138588   0.753   2.703   2.324 -1.6476  0.0854  0.7543
 5699TIP3    H238589   0.778   2.733   2.177  1.7894 -0.2547  1.2242
 5700TIP3   OH238590   5.903   0.714   5.866  0.1218 -0.1653 -0.6959
 5700TIP3    H138591   5.826   0.693   5.919 -0.5227  3.1178 -0.1653
 5700TIP3    H238592   5.912   0.809   5.876  1.4235  0.1824 -4.5786
 5701TIP3   OH238593   4.155   1.009   2.108  1.2764 -0.6280 -0.1907
 5701TIP3    H138594   4.223   1.044   2.166  0.2219  1.6287 -0.2774
 5701TIP3    H238595   4.154   1.069   2.034 -1.9490  0.4125  0.5973
 5702TIP3   OH238596   4.784   0.451  11.624 -0.5146  0.1395  0.3194
 5702TIP3    H138597   4.878   0.434  11.615 -0.6995 -0.4347 -0.6868
 5702TIP3    H238598   4.743   0.377  11.578 -1.4346  0.8195  0.0551
 5703TIP3   OH238599   4.360   0.449   4.641 -0.0911  0.3088  0.0042
 5703TIP3    H138600   4.402   0.452   4.555 -2.5875  2.0024 -1.2092
 5703TIP3    H238601   4.269   0.427   4.622 -0.7317  0.9766  2.1857
 5704TIP3   OH238602   2.170   2.620  15.036 -0.2036  0.1382 -0.5161
 5704TIP3    H138603   2.224   2.632  14.959 -0.6165  0.0208 -0.8299
 5704TIP3    H238604   2.154   2.526  15.039  0.5352  0.0327  0.2105
 5705TIP3   OH238605   0.827   1.005  13.019 -0.2801 -0.0406 -0.3126
 5705TIP3    H138606   0.915   1.040  13.027 -1.2150  2.0462  1.2186
 5705TIP3    H238607   0.840   0.910  13.012  1.9983  0.0454  1.8994
 5706TIP3   OH238608   4.437   3.404   1.264 -0.1612  0.0618 -0.4928
 5706TIP3    H138609   4.465   3.451   1.343  0.0245  0.0765 -0.5665
 5706TIP3    H238610   4.499   3.331   1.256  1.6789  1.7235 -2.2509
 5707TIP3   OH238611   1.779   2.376  11.824 -0.0727  0.2017 -0.0531
 5707TIP3    H138612   1.690   2.341  11.817  1.0857 -2.7247 -0.9787
 5707TIP3    H238613   1.812   2.377  11.734  0.5806  1.9620  0.1930
 5708TIP3   OH238614   5.287   3.102  12.264 -0.0159  0.4809 -0.0676
 5708TIP3    H138615   5.284   3.094  12.359  1.5465  0.7949  0.0238
 5708TIP3    H238616   5.251   3.189  12.247  0.2661  0.6686  0.2834
 5709TIP3   OH238617   6.231   4.610  14.892 -0.3127 -0.2617  0.1541
 5709TIP3    H138618   6.297   4.540  14.897  0.1005  0.2116  1.4805
 5709TIP3    H238619   6.262   4.677  14.952 -2.3222 -0.3105  1.3087
 5710TIP3   OH238620   5.200   0.714  16.919  0.2412  0.0828  0.0060
 5710TIP3    H138621   5.169   0.629  16.889  0.0734 -0.5952  1.9916
 5710TIP3    H238622   5.243   0.752  16.843 -1.1788 -1.0409 -1.3886
 5711TIP3   OH238623   5.964   0.525   5.591 -0.1627  0.1708 -0.0856
 5711TIP3    H138624   5.922   0.470   5.657  0.4376  0.2776  0.3925
 5711TIP3    H238625   6.044   0.478   5.569  1.0746  1.5290  1.3723
 5712TIP3   OH238626   6.752   1.568   3.060  0.3999  0.6748 -0.0320
 5712TIP3    H138627   6.799   1.485   3.053  1.0511  0.8898  1.5724
 5712TIP3    H238628   6.749   1.587   3.154 -0.7324  1.9035 -0.2924
 5713TIP3   OH238629   0.241   6.039   1.572 -0.3351 -0.6359  0.2846
 5713TIP3    H138630   0.189   5.994   1.639 -1.7446  1.7061  0.8188
 5713TIP3    H238631   0.309   6.085   1.621 -1.3984  1.1235  0.1451
 5714TIP3   OH238632   3.847   6.788  12.379  0.3401  0.2003 -0.1230
 5714TIP3    H138633   3.860   6.882  12.368 -1.0487  0.2624 -1.4129
 5714TIP3    H238634   3.887   6.749  12.301 -0.7571 -0.1329 -0.5264
 5715TIP3   OH238635   3.463   2.757   0.629 -0.2890  0.1648 -0.1419
 5715TIP3    H138636   3.394   2.815   0.660 -1.0127 -1.1555  0.7526
 5715TIP3    H238637   3.515   2.737   0.707  0.4797  0.3067 -0.6108
 5716TIP3   OH238638   3.303   2.784  11.827  0.1911  0.2446  0.2777
 5716TIP3    H138639   3.258   2.843  11.765 -0.5481 -0.3899  0.2057
 5716TIP3    H238640   3.359   2.730  11.772  0.2547  0.3316  0.2584
 5717TIP3   OH238641   3.386   6.074  13.077 -0.5064  0.3042  0.1106
 5717TIP3    H138642   3.316   6.027  13.123 -0.9259  1.0909  0.2780
 5717TIP3    H238643   3.392   6.031  12.992  1.6556 -2.5201  1.5788
 5718TIP3   OH238644   1.215   0.593  15.726 -0.1995  0.0240 -0.2490
 5718TIP3    H138645   1.284   0.614  15.662  0.2674 -1.7320 -0.3531
 5718TIP3    H238646   1.203   0.674  15.776  1.0493  0.7296 -1.0670
 5719TIP3   OH238647   1.105   1.306  12.145  0.6105  0.6225  0.4187
 5719TIP3    H138648   1.044   1.344  12.208 -2.7678 -0.3899 -2.1059
 5719TIP3    H238649   1.127   1.221  12.182  1.7163  1.6062  2.0796
 5720TIP3   OH238650   0.536   3.486  12.940 -0.0162  0.1649  0.6034
 5720TIP3    H138651   0.595   3.453  13.007  1.6949 -1.0316 -1.4371
 5720TIP3    H238652   0.591   3.538  12.882 -1.2629  0.3507 -0.4481
 5721TIP3   OH238653   4.616   6.506   4.653  0.5337 -0.3935 -0.1562
 5721TIP3    H138654   4.555   6.459   4.596 -0.6707 -2.5873  2.7874
 5721TIP3    H238655   4.689   6.529   4.596 -1.0925 -1.5229 -2.8129
 5722TIP3   OH238656   3.209   6.497   2.162  0.2331 -0.0993  0.2010
 5722TIP3    H138657   3.275   6.506   2.094  0.0739 -0.9481 -0.0804
 5722TIP3    H238658   3.238   6.421   2.214 -0.2848 -0.2074  0.3388
 5723TIP3   OH238659   3.654   3.503   3.071  0.5477 -0.0326 -0.1884
 5723TIP3    H138660   3.698   3.479   2.989  1.7312  0.5328  0.2604
 5723TIP3    H238661   3.611   3.422   3.100  1.8031 -0.7771 -0.3472
 5724TIP3   OH238662   5.886   0.972  12.624 -0.1776  0.6256 -0.3383
 5724TIP3    H138663   5.949   0.969  12.696  0.6830 -0.4492 -1.1219
 5724TIP3    H238664   5.850   1.060  12.628  3.4404  2.2426 -1.6149
 5725TIP3   OH238665   4.298   4.980   1.911  0.2540 -0.3284 -0.1481
 5725TIP3    H138666   4.331   4.901   1.867  2.5728  0.8303 -0.5477
 5725TIP3    H238667   4.240   5.020   1.846 -1.2408 -1.8650  0.1923
 5726TIP3   OH238668   0.141   2.588   2.669  0.3894 -0.1706  0.0680
 5726TIP3    H138669   0.094   2.597   2.586  0.1668  1.4609  0.3463
 5726TIP3    H238670   0.224   2.634   2.655  1.1132 -1.4009  0.1978
 5727TIP3   OH238671   2.572   1.854   1.778  0.3148 -0.0708  0.6859
 5727TIP3    H138672   2.626   1.821   1.706 -0.8865 -1.0253  0.1986
 5727TIP3    H238673   2.595   1.799   1.853 -1.2293 -1.6723  0.0319
 5728TIP3   OH238674   1.708   4.604   0.781 -0.0854 -0.3420 -0.8421
 5728TIP3    H138675   1.764   4.678   0.759 -0.3424  0.5110  1.2842
 5728TIP3    H238676   1.693   4.560   0.697  0.3582  1.7872 -2.0714
 5729TIP3   OH238677   3.345   5.123  16.947 -0.3423  0.4101  0.2846
 5729TIP3    H138678   3.290   5.202  16.950 -2.5339 -1.0377 -0.1787
 5729TIP3    H238679   3.318   5.079  16.867  1.0101 -0.7199  0.4395
 5730TIP3   OH238680   3.862   5.024  14.871 -0.6469  0.2374 -0.5026
 5730TIP3    H138681   3.792   5.034  14.937 -0.5909  1.5232 -0.6306
 5730TIP3    H238682   3.878   5.113  14.840 -0.1429 -0.2790 -1.7200
 5731TIP3   OH238683   0.013   6.616   0.294  0.1883 -0.1131  0.1431
 5731TIP3    H138684   0.035   6.557   0.222  2.8377 -4.9403  4.5439
 5731TIP3    H238685   0.095   6.662   0.313  0.3187 -0.9569  1.7643
 5732TIP3   OH238686   6.755   2.278   2.030  0.5097  0.2330 -0.3393
 5732TIP3    H138687   6.797   2.295   1.946 -1.1962  2.8643 -0.7338
 5732TIP3    H238688   6.784   2.349   2.086 -0.1370 -0.2652  0.6388
 5733TIP3   OH238689   3.503   1.801  12.697 -0.8085 -0.2976  0.4610
 5733TIP3    H138690   3.517   1.878  12.642  0.5158 -1.1868 -0.4722
 5733TIP3    H238691   3.577   1.743  12.676 -0.3961 -0.7513  2.9875
 5734TIP3   OH238692   4.135   5.667  12.703 -0.1307  0.8463 -0.0542
 5734TIP3    H138693   4.164   5.750  12.666 -0.4437  0.4773 -1.1443
 5734TIP3    H238694   4.181   5.601  12.652 -1.3852  0.3068 -0.5084
 5735TIP3   OH238695   6.029   3.127  13.022 -0.2857 -0.3284 -0.0041
 5735TIP3    H138696   5.963   3.186  13.059 -1.5923 -0.2149 -2.4007
 5735TIP3    H238697   6.113   3.172  13.038 -0.8449 -0.1001  2.3671
 5736TIP3   OH238698   6.709   1.419  16.798 -0.5045 -0.3763  0.1086
 5736TIP3    H138699   6.798   1.399  16.771  0.7695  4.3499  0.4015
 5736TIP3    H238700   6.655   1.389  16.725  1.4917 -1.2906 -1.0361
 5737TIP3   OH238701   0.143   4.919   0.809 -0.6664  0.5192 -0.0127
 5737TIP3    H138702   0.146   4.933   0.714 -0.9293 -2.8249 -0.5922
 5737TIP3    H238703   0.052   4.894   0.826 -0.2422 -0.4660  0.8490
 5738TIP3   OH238704   3.459   4.641  15.135  0.2062  0.6159  0.3730
 5738TIP3    H138705   3.385   4.586  15.160  0.5154  0.8503  1.8674
 5738TIP3    H238706   3.512   4.586  15.077 -1.3301  0.5866 -1.0125
 5739TIP3   OH238707   3.898   2.050  11.793 -0.2438 -0.1052 -0.5481
 5739TIP3    H138708   3.989   2.064  11.768 -0.1142 -0.7559 -0.4550
 5739TIP3    H238709   3.881   1.957  11.774 -1.6193  0.5632 -2.8676
 5740TIP3   OH238710   5.871   4.099   5.772  0.7428  0.4866 -0.5614
 5740TIP3    H138711   5.780   4.075   5.792  0.8383  0.0714 -0.6311
 5740TIP3    H238712   5.864   4.176   5.716  0.3384 -1.7481 -3.7134
 5741TIP3   OH238713   6.311   3.993   0.791 -0.2464  0.5775  0.8126
 5741TIP3    H138714   6.277   4.068   0.743  0.1198  0.7191  0.7674
 5741TIP3    H238715   6.380   4.029   0.847  3.1327 -0.3322 -2.4930
 5742TIP3   OH238716   0.658   3.164  11.111 -0.3083  0.0849 -0.5763
 5742TIP3    H138717   0.678   3.189  11.201  1.2769 -1.3563 -0.4919
 5742TIP3    H238718   0.602   3.087  11.120 -0.8415  0.4385 -0.8337
 5743TIP3   OH238719   4.698   2.775   2.839  0.3361 -0.3586  0.4149
 5743TIP3    H138720   4.732   2.827   2.766  1.5903 -0.6211  0.7992
 5743TIP3    H238721   4.605   2.799   2.844  0.5853  0.8114 -0.2768
 5744TIP3   OH238722   0.514   3.081  11.490  0.8701 -0.3704 -0.1549
 5744TIP3    H138723   0.545   2.998  11.455 -0.6215 -0.7368 -0.6452
 5744TIP3    H238724   0.479   3.060  11.577  0.5241 -0.2495 -0.2633
 5745TIP3   OH238725   2.087   6.406  14.767 -0.3613 -0.0107  0.1409
 5745TIP3    H138726   2.106   6.315  14.746 -0.1033  0.1908 -0.5442
 5745TIP3    H238727   2.121   6.455  14.691  0.0813  0.7026  0.7902
 5746TIP3   OH238728   0.136   2.096   0.580  0.5832  0.0976  0.3544
 5746TIP3    H138729   0.223   2.078   0.545  0.9278  1.8401  0.2997
 5746TIP3    H238730   0.136   2.054   0.667  0.5540 -2.1267 -0.6782
 5747TIP3   OH238731   2.118   1.186   1.656 -0.0300 -0.0536 -0.0934
 5747TIP3    H138732   2.193   1.232   1.618 -1.1613  1.1250 -0.9441
 5747TIP3    H238733   2.044   1.244   1.640 -1.5308 -2.2629 -1.3521
 5748TIP3   OH238734   1.641   2.981   1.636 -0.3598  0.2744  0.3218
 5748TIP3    H138735   1.696   3.039   1.689 -1.6467  2.5096 -0.7231
 5748TIP3    H238736   1.636   2.900   1.687 -2.4557  2.7025  4.2917
 5749TIP3   OH238737   3.935   0.936   5.560  0.3541  0.0435 -0.8552
 5749TIP3    H138738   3.983   1.009   5.521  0.1583  1.1834  0.9584
 5749TIP3    H238739   3.851   0.974   5.587  1.2178 -0.1877  2.3460
 5750TIP3   OH238740   3.153   0.879   5.184 -0.4832  0.0626  0.7106
 5750TIP3    H138741   3.076   0.844   5.137 -0.4681 -0.5523  1.1424
 5750TIP3    H238742   3.191   0.803   5.227  0.1648  0.4359  0.7945
 5751TIP3   OH238743   0.590   3.611  15.780 -0.0691 -0.2345 -0.1201
 5751TIP3    H138744   0.547   3.695  15.762  0.6862  0.0024 -0.8142
 5751TIP3    H238745   0.639   3.627  15.861 -0.0799 -0.0593 -0.1471
 5752TIP3   OH238746   2.497   2.754   3.098  0.2197 -0.5127 -0.2955
 5752TIP3    H138747   2.584   2.745   3.059  1.0871 -2.5779  1.9768
 5752TIP3    H238748   2.498   2.694   3.172 -3.5404 -1.4220 -0.8652
 5753TIP3   OH238749   0.954   6.078   0.635  0.3534  0.4131 -0.5627
 5753TIP3    H138750   0.867   6.118   0.627  0.4687  1.3740  2.3991
 5753TIP3    H238751   1.014   6.149   0.613  0.4425  0.2359 -0.8973
 5754TIP3   OH238752   1.734   2.984  13.712 -0.0921  0.0629 -0.5436
 5754TIP3    H138753   1.728   3.079  13.727  0.7042  0.0753 -0.3268
 5754TIP3    H238754   1.646   2.960  13.681 -0.9106  0.5114  1.3375
 5755TIP3   OH238755   6.502   5.797   4.613  0.9258  0.1243  0.8966
 5755TIP3    H138756   6.512   5.732   4.544 -0.6525 -0.5795  1.2895
 5755TIP3    H238757   6.531   5.751   4.693  0.9558  0.3091  0.9924
 5756TIP3   OH238758   4.458   5.163   3.577 -0.2181  0.1817  0.2891
 5756TIP3    H138759   4.473   5.213   3.497  0.0487  0.8002  0.7182
 5756TIP3    H238760   4.521   5.092   3.574 -0.2735  0.1518 -0.0946
 5757TIP3   OH238761   4.987   1.776   5.297 -0.0029 -0.2857 -0.1838
 5757TIP3    H138762   4.896   1.797   5.279 -0.3330 -1.1937  0.4178
 5757TIP3    H238763   5.019   1.850   5.349 -0.1279  0.4827 -1.1980
 5758TIP3   OH238764   3.260   3.343   5.411  0.2716 -0.8194  0.6268
 5758TIP3    H138765   3.354   3.332   5.397  0.2028 -0.6284 -0.0080
 5758TIP3    H238766   3.244   3.306   5.498  0.6869 -2.2105  0.1293
 5759TIP3   OH238767   2.705   0.180  16.140  0.1160  0.0423  0.7592
 5759TIP3    H138768   2.624   0.134  16.161  0.4788 -0.8484  0.2849
 5759TIP3    H238769   2.751   0.188  16.223 -0.3925  0.3980  1.0004
 5760TIP3   OH238770   3.169   2.769  12.886  0.6737 -0.6903  0.8006
 5760TIP3    H138771   3.203   2.817  12.810 -0.4942  1.0761  1.3596
 5760TIP3    H238772   3.074   2.775  12.877  0.5228 -0.6985  2.2628
 5761TIP3   OH238773   1.404   6.142   1.921 -0.4067 -0.5016 -0.1455
 5761TIP3    H138774   1.477   6.173   1.974 -1.7369  1.0667  0.8192
 5761TIP3    H238775   1.336   6.208   1.933 -1.3449 -0.9916 -2.4571
 5762TIP3   OH238776   4.249   0.685   4.720  0.3573  0.0197 -0.2032
 5762TIP3    H138777   4.168   0.695   4.669  0.0879 -0.1574  0.1825
 5762TIP3    H238778   4.289   0.605   4.686  0.4316  0.1701 -0.4745
 5763TIP3   OH238779   3.184   4.196   3.613  0.4032  0.3221 -0.4773
 5763TIP3    H138780   3.210   4.288   3.608  0.4556  0.1815 -3.7784
 5763TIP3    H238781   3.108   4.190   3.555 -1.0463 -1.2898  1.5072
 5764TIP3   OH238782   5.838   2.626   0.847 -0.2321  0.0707  0.3907
 5764TIP3    H138783   5.835   2.530   0.847  0.3126  0.0577  0.3237
 5764TIP3    H238784   5.803   2.650   0.933  1.0601 -0.2287  1.0045
 5765TIP3   OH238785   0.494   0.692  12.765  0.3835 -0.5285  0.7859
 5765TIP3    H138786   0.468   0.771  12.813  1.2445 -1.0435  2.1120
 5765TIP3    H238787   0.475   0.713  12.673  1.0565  1.4064  1.0670
 5766TIP3   OH238788   4.269   0.203  16.750  0.3874 -0.1573  0.0336
 5766TIP3    H138789   4.334   0.230  16.685 -1.0780  1.4375 -0.7977
 5766TIP3    H238790   4.207   0.149  16.700 -0.3776  0.5260  0.2394
 5767TIP3   OH238791   0.624   2.390  16.327  0.1006 -0.0098  0.0194
 5767TIP3    H138792   0.656   2.401  16.416  0.9414 -0.7132 -0.1888
 5767TIP3    H238793   0.661   2.464  16.279  0.8360 -0.4297 -0.0621
 5768TIP3   OH238794   4.438   0.554   5.514 -0.7234 -0.0604  0.0300
 5768TIP3    H138795   4.398   0.571   5.429  0.9568 -0.1387 -0.7933
 5768TIP3    H238796   4.530   0.536   5.495 -0.6013 -1.4359  1.7293
 5769TIP3   OH238797   4.202   5.609  11.462 -0.0241  0.1543  0.4270
 5769TIP3    H138798   4.224   5.701  11.476  0.4493  0.0318  0.5133
 5769TIP3    H238799   4.107   5.606  11.467  0.0657  0.2772  2.6227
 5770TIP3   OH238800   3.587   0.885   3.784 -0.0564 -0.1214  0.0802
 5770TIP3    H138801   3.539   0.965   3.808 -0.4750  0.0228 -1.1816
 5770TIP3    H238802   3.533   0.814   3.818  0.2730  0.1282  1.1321
 5771TIP3   OH238803   0.762   1.251   2.533  0.2010  0.4828 -0.5316
 5771TIP3    H138804   0.677   1.284   2.564  1.0002  1.8265  0.2797
 5771TIP3    H238805   0.818   1.255   2.611  0.3145 -2.9039 -0.3660
 5772TIP3   OH238806   4.670   2.923  13.208 -0.0170 -0.3370  0.0862
 5772TIP3    H138807   4.593   2.921  13.150 -0.6814 -1.1516  0.9895
 5772TIP3    H238808   4.644   2.979  13.281  0.5915  0.1615 -0.0770
 5773TIP3   OH238809   5.744   0.828  16.228  0.3570 -0.0964 -0.1057
 5773TIP3    H138810   5.730   0.748  16.277 -1.8728  0.3115 -0.0249
 5773TIP3    H238811   5.757   0.896  16.294 -1.6035  0.2710 -0.0866
 5774TIP3   OH238812   5.956   2.459  10.424  0.0930 -0.1637 -0.3481
 5774TIP3    H138813   5.889   2.516  10.462 -0.8714 -1.2082 -0.4755
 5774TIP3    H238814   5.968   2.493  10.336  0.0005  0.2520 -0.2034
 5775TIP3   OH238815   0.782   6.301   6.064  0.1069  0.0859  0.0082
 5775TIP3    H138816   0.778   6.226   6.123  0.2028 -0.5074 -0.7349
 5775TIP3    H238817   0.853   6.356   6.098  0.0923 -0.1996  0.4997
 5776TIP3   OH238818   3.243   5.756  13.708  0.6827 -0.6270 -0.0893
 5776TIP3    H138819   3.174   5.816  13.681 -0.7705 -2.0401  0.3764
 5776TIP3    H238820   3.283   5.797  13.785 -0.5199 -0.4185  0.4240
 5777TIP3   OH238821   5.801   1.030  14.677  0.2915  0.0745 -0.1208
 5777TIP3    H138822   5.792   1.115  14.719  0.2182  0.1406 -0.2700
 5777TIP3    H238823   5.736   1.031  14.606  0.9294  0.2561 -0.7074
 5778TIP3   OH238824   1.814   0.456   1.253  0.0773 -0.2652  0.2397
 5778TIP3    H138825   1.847   0.507   1.327  0.6754 -0.7822  0.3352
 5778TIP3    H238826   1.721   0.479   1.247 -0.1575 -0.8357  1.6382
 5779TIP3   OH238827   6.289   5.591  16.576  0.7075  0.0555 -0.0773
 5779TIP3    H138828   6.339   5.511  16.566  0.4336  0.0910 -1.7456
 5779TIP3    H238829   6.337   5.657  16.526  0.5966  0.8032  0.7648
 5780TIP3   OH238830   2.882   1.177   0.669 -0.7283  0.0936  0.0386
 5780TIP3    H138831   2.828   1.146   0.596 -0.7200  0.3522 -0.0769
 5780TIP3    H238832   2.970   1.143   0.650 -0.9510 -0.7409  0.4784
 5781TIP3   OH238833   1.734   3.192   1.328 -0.4969 -0.5042 -0.1818
 5781TIP3    H138834   1.742   3.287   1.320 -0.9665 -0.5057 -0.6813
 5781TIP3    H238835   1.648   3.178   1.369 -1.3025 -0.7837 -1.9282
 5782TIP3   OH238836   4.060   0.373   4.307 -0.1380  0.5470 -0.0851
 5782TIP3    H138837   4.037   0.445   4.248  0.6876  1.3880  0.5979
 5782TIP3    H238838   3.976   0.334   4.331 -0.7381  2.2744  0.7492
 5783TIP3   OH238839   3.659   2.628   4.221 -0.3578 -0.1029  0.7305
 5783TIP3    H138840   3.669   2.708   4.170 -1.0805  0.6876  1.8131
 5783TIP3    H238841   3.747   2.606   4.250 -0.0039 -0.3101 -0.4725
 5784TIP3   OH238842   6.470   5.781  16.433 -0.1500 -0.2369 -0.1411
 5784TIP3    H138843   6.454   5.722  16.359  1.2227  0.0900 -0.7225
 5784TIP3    H238844   6.478   5.868  16.393  1.7993 -0.2232  0.2184
 5785TIP3   OH238845   6.725   5.090  14.151  0.1342  0.1066 -0.2362
 5785TIP3    H138846   6.738   5.155  14.220  0.3679  0.8595 -0.9858
 5785TIP3    H238847   6.649   5.039  14.180  0.3150  0.3293  0.6395
 5786TIP3   OH238848   2.908   5.389  11.965 -0.4691 -0.1938 -0.1054
 5786TIP3    H138849   2.958   5.385  12.047 -1.0905  2.9177  0.4852
 5786TIP3    H238850   2.974   5.389  11.896  0.1904  0.2060  0.5227
 5787TIP3   OH238851   4.752   3.821  10.753  0.7190  0.0775  0.0692
 5787TIP3    H138852   4.810   3.880  10.706  0.4317 -1.1166 -1.8597
 5787TIP3    H238853   4.804   3.742  10.767 -0.2351 -0.7822 -1.1543
 5788TIP3   OH238854   2.759   4.493   0.832 -0.1199  0.3943  0.2405
 5788TIP3    H138855   2.821   4.514   0.762 -0.2342  1.3588  0.4220
 5788TIP3    H238856   2.813   4.486   0.911  0.1382 -1.6194 -0.0872
 5789TIP3   OH238857   0.361   2.601   5.570  0.2972 -0.1152  0.6295
 5789TIP3    H138858   0.378   2.608   5.476  0.1278 -0.5333  0.5666
 5789TIP3    H238859   0.405   2.520   5.597 -0.5969 -0.5870  0.6897
 5790TIP3   OH238860   0.558   2.352   3.929  0.0459  0.2185  0.5057
 5790TIP3    H138861   0.499   2.378   4.000 -0.1711  2.4186 -0.4494
 5790TIP3    H238862   0.556   2.256   3.930 -2.5155  0.2570  1.3445
 5791TIP3   OH238863   3.263   3.929   5.608 -0.5268  0.0617  0.2347
 5791TIP3    H138864   3.276   4.013   5.564 -0.8817 -1.9461 -4.0533
 5791TIP3    H238865   3.168   3.916   5.610 -0.5475  0.3803  2.2167
 5792TIP3   OH238866   3.366   5.319   2.175 -0.9456  0.0431  0.3523
 5792TIP3    H138867   3.282   5.334   2.131  0.2904 -0.8246 -2.3536
 5792TIP3    H238868   3.366   5.225   2.194  0.3915 -0.3863 -1.7245
 5793TIP3   OH238869   2.816   4.136  15.954 -0.2248 -0.3250  0.1462
 5793TIP3    H138870   2.765   4.216  15.941 -0.2188 -0.5794 -1.6217
 5793TIP3    H238871   2.871   4.155  16.030  1.3000  2.1664 -1.5054
 5794TIP3   OH238872   3.286   4.765  17.063 -0.3592 -0.2647  0.6753
 5794TIP3    H138873   3.249   4.676  17.063 -0.3441 -0.2912 -0.9753
 5794TIP3    H238874   3.256   4.803  16.980 -1.0232  1.5666  1.7281
 5795TIP3   OH238875   3.565   2.469  14.598 -0.6921  0.9589  0.1827
 5795TIP3    H138876   3.566   2.565  14.596 -2.0399  0.9623 -1.1677
 5795TIP3    H238877   3.548   2.443  14.507  0.9690 -0.5935  0.2915
 5796TIP3   OH238878   3.817   0.540   0.618 -0.0989 -0.1746  0.0699
 5796TIP3    H138879   3.868   0.523   0.697  0.1765  0.8424  0.1090
 5796TIP3    H238880   3.825   0.459   0.567  2.5739  0.3750 -0.4624
 5797TIP3   OH238881   4.706   3.012  15.654  0.4371 -0.2703  0.3592
 5797TIP3    H138882   4.745   2.929  15.680  1.2510  0.0751  0.2689
 5797TIP3    H238883   4.734   3.025  15.564  1.4182  0.7354  0.7994
 5798TIP3   OH238884   1.921   0.970  16.727 -0.6120 -0.0928  0.3389
 5798TIP3    H138885   1.904   1.029  16.653  0.2818  0.6695  0.7389
 5798TIP3    H238886   1.915   0.882  16.689 -0.3100  0.2887 -0.6110
 5799TIP3   OH238887   5.181   5.026   3.099  0.0275  0.0081 -0.0468
 5799TIP3    H138888   5.102   5.057   3.056  0.3580  0.3044 -0.4399
 5799TIP3    H238889   5.244   5.098   3.091  0.4866 -0.3964 -0.1426
 5800TIP3   OH238890   4.211   3.751  11.963 -0.0653 -0.0151 -0.1635
 5800TIP3    H138891   4.177   3.673  12.008  2.6629 -1.3721 -0.3335
 5800TIP3    H238892   4.184   3.824  12.019 -1.1600 -1.2257  0.9467
 5801TIP3   OH238893   1.533   3.261   5.590  0.0623  0.7107  0.2531
 5801TIP3    H138894   1.614   3.241   5.544  0.2514 -1.0302  1.2988
 5801TIP3    H238895   1.561   3.285   5.678 -0.6055 -1.2598  1.0361
 5802TIP3   OH238896   1.915   1.556   2.238 -0.0091  0.7876 -0.5265
 5802TIP3    H138897   1.975   1.490   2.202  0.5294  1.5947 -1.1143
 5802TIP3    H238898   1.915   1.627   2.174 -2.6445  0.2386 -1.2033
 5803TIP3   OH238899   4.730   3.838  13.525 -0.3346 -0.0670  0.1489
 5803TIP3    H138900   4.778   3.819  13.445  0.1922 -1.9440  0.8735
 5803TIP3    H238901   4.638   3.837  13.499 -0.0950  1.0672 -0.7632
 5804TIP3   OH238902   1.285   4.234  16.621  0.1464  0.2862  0.0243
 5804TIP3    H138903   1.353   4.169  16.641 -1.3693 -1.6136 -0.8643
 5804TIP3    H238904   1.305   4.262  16.531  0.4877  0.6626  0.2165
 5805TIP3   OH238905   6.371   5.826  14.668 -0.2799  0.1953  0.3896
 5805TIP3    H138906   6.350   5.915  14.638 -0.7117 -0.3160 -0.8588
 5805TIP3    H238907   6.407   5.783  14.591  2.1894 -0.0084  1.6007
 5806TIP3   OH238908   1.178   1.999   0.886  0.0572 -0.0461  0.5350
 5806TIP3    H138909   1.116   1.936   0.924 -0.5829 -1.0834 -2.1013
 5806TIP3    H238910   1.125   2.076   0.867 -0.2664 -0.5842 -0.8374
 5807TIP3   OH238911   2.515   3.268   5.519 -0.0679  0.2131 -0.1864
 5807TIP3    H138912   2.519   3.326   5.443 -1.5198  1.2001  0.4679
 5807TIP3    H238913   2.422   3.257   5.537  0.2360 -0.8782  0.8018
 5808TIP3   OH238914   4.442   6.334   4.478 -0.4077  0.5884 -0.8023
 5808TIP3    H138915   4.394   6.256   4.453  1.2969 -1.2906  1.5365
 5808TIP3    H238916   4.530   6.321   4.441  0.4903  0.3733  1.3160
 5809TIP3   OH238917   4.542   2.184   5.655  0.1793  0.4366 -0.1050
 5809TIP3    H138918   4.449   2.206   5.648 -0.7475 -3.2161 -0.3926
 5809TIP3    H238919   4.568   2.163   5.565  0.6679 -0.6762  0.2824
 5810TIP3   OH238920   2.488   0.186  15.879 -0.4673  0.0522 -0.1110
 5810TIP3    H138921   2.549   0.173  15.806  0.3409  1.1330  0.3704
 5810TIP3    H238922   2.458   0.276  15.869 -0.8055  0.0156  0.5683
 5811TIP3   OH238923   0.304   4.842   0.351 -0.9306 -0.1494  0.2290
 5811TIP3    H138924   0.331   4.832   0.260 -0.3877  0.9966  0.2479
 5811TIP3    H238925   0.331   4.761   0.394  0.7120  0.1654 -0.1789
 5812TIP3   OH238926   1.709   6.184  14.254 -0.1199  0.0569  0.5425
 5812TIP3    H138927   1.694   6.109  14.312 -1.0796 -0.4959 -0.3783
 5812TIP3    H238928   1.623   6.225  14.246 -0.6194 -1.3664 -2.4508
 5813TIP3   OH238929   2.799   2.089   4.753  0.1050  0.4459  0.1293
 5813TIP3    H138930   2.757   2.041   4.681  0.2328  1.4450 -0.6309
 5813TIP3    H238931   2.883   2.046   4.765 -0.7932 -1.0787  1.1338
 5814TIP3   OH238932   0.517   2.025   2.911  0.0775 -0.5748  0.3447
 5814TIP3    H138933   0.457   2.095   2.885 -0.1622 -0.6737  0.6304
 5814TIP3    H238934   0.489   1.949   2.860  1.7180  0.1048 -1.6042
 5815TIP3   OH238935   2.413   4.097   5.456  0.1364 -0.7609  0.3438
 5815TIP3    H138936   2.487   4.037   5.460 -0.7773 -1.9119  0.0104
 5815TIP3    H238937   2.454   4.184   5.459  1.5176 -1.3673 -0.1326
 5816TIP3   OH238938   2.894   5.443   5.753 -0.0435  0.1894 -0.1735
 5816TIP3    H138939   2.899   5.501   5.678  2.5374 -0.6819 -0.7287
 5816TIP3    H238940   2.898   5.501   5.829 -0.5228  0.9336 -0.7158
 5817TIP3   OH238941   2.738   5.774  12.384 -0.1203 -0.0504 -0.0932
 5817TIP3    H138942   2.733   5.791  12.290 -3.0723  1.8811  0.3659
 5817TIP3    H238943   2.649   5.752  12.409 -0.0003  2.4247  2.7919
 5818TIP3   OH238944   2.135   1.351  13.472 -0.0941 -0.2048 -0.6967
 5818TIP3    H138945   2.195   1.425  13.486 -2.8244  1.6064  2.1197
 5818TIP3    H238946   2.177   1.277  13.516  0.7782  0.6751 -0.0262
 5819TIP3   OH238947   0.620   6.018   5.990  0.3254 -0.3232 -0.1483
 5819TIP3    H138948   0.683   6.034   6.060  0.3441  0.3012 -0.3071
 5819TIP3    H238949   0.673   6.003   5.912  0.2984 -0.7373 -0.0872
 5820TIP3   OH238950   5.802   0.459  12.628  0.5790  0.4651 -0.1232
 5820TIP3    H138951   5.800   0.554  12.617 -0.0828  0.7765  2.4745
 5820TIP3    H238952   5.799   0.445  12.723  0.3002 -2.1674 -0.4756
 5821TIP3   OH238953   1.879   0.907  12.544  0.0472  0.1653 -0.3037
 5821TIP3    H138954   1.973   0.924  12.556  0.0799  1.1227 -1.7333
 5821TIP3    H238955   1.838   0.948  12.619  0.6065  1.8287 -0.8615
 5822TIP3   OH238956   5.328   2.529   4.663  0.4365 -0.1036 -0.0634
 5822TIP3    H138957   5.417   2.541   4.697  0.7179  0.3059 -0.9390
 5822TIP3    H238958   5.272   2.567   4.730  1.0504  1.6518 -0.5265
 5823TIP3   OH238959   2.391   2.535   6.276 -0.7568 -0.3241 -0.2267
 5823TIP3    H138960   2.461   2.471   6.285 -0.9812 -0.7289 -1.3097
 5823TIP3    H238961   2.433   2.619   6.293 -0.1075 -0.6105 -0.4094
 5824TIP3   OH238962   1.739   5.236   1.763  0.2520 -0.6188  0.9915
 5824TIP3    H138963   1.684   5.309   1.733  0.9424 -0.6533 -0.4406
 5824TIP3    H238964   1.685   5.158   1.752  0.3416 -0.5782  0.2440
 5825TIP3   OH238965   5.629   5.483   3.138  0.1487  0.2480  0.6640
 5825TIP3    H138966   5.703   5.541   3.118  0.0181  0.6880  1.4617
 5825TIP3    H238967   5.624   5.482   3.233 -1.2620  0.6912  0.5976
 5826TIP3   OH238968   2.498   0.115  12.214  0.0088  0.2997  0.2081
 5826TIP3    H138969   2.590   0.092  12.208  0.2923  1.2928  0.6393
 5826TIP3    H238970   2.461   0.090  12.129  0.5408 -0.6362  0.2384
 5827TIP3   OH238971   1.015   1.842  14.534  0.3736  0.3795  0.2486
 5827TIP3    H138972   1.066   1.895  14.474  0.6121 -1.3063 -1.0705
 5827TIP3    H238973   0.990   1.765  14.483 -2.2621  0.4841  1.2799
 5828TIP3   OH238974   1.046   2.765   2.604 -0.5537  0.4942  0.5836
 5828TIP3    H138975   1.085   2.837   2.554  0.1900 -0.6730 -0.5551
 5828TIP3    H238976   1.114   2.741   2.667  0.4772 -1.3315 -1.1907
 5829TIP3   OH238977   2.611   6.307   3.307  0.0026 -0.7602 -0.1271
 5829TIP3    H138978   2.589   6.322   3.399  1.0116 -0.2833  0.0442
 5829TIP3    H238979   2.570   6.223   3.286 -0.1597 -0.9177  0.7814
 5830TIP3   OH238980   3.448   3.932   2.342 -0.5370 -0.1938 -0.5762
 5830TIP3    H138981   3.408   3.995   2.401  0.7900  0.3860 -0.2755
 5830TIP3    H238982   3.524   3.899   2.391 -1.2526 -2.0693 -0.7010
 5831TIP3   OH238983   2.760   0.794   3.593 -0.0772  0.4887 -0.3351
 5831TIP3    H138984   2.717   0.778   3.677 -1.6514 -0.4038 -1.2766
 5831TIP3    H238985   2.850   0.763   3.606  0.0829  1.6065  1.4186
 5832TIP3   OH238986   1.324   4.584   0.977 -0.2989  0.0425 -0.1234
 5832TIP3    H138987   1.416   4.606   0.992 -0.5578  2.2065 -1.4918
 5832TIP3    H238988   1.311   4.600   0.884 -2.0781 -0.2369  0.0708
 5833TIP3   OH238989   4.244   3.598  16.176 -0.8116  0.5597 -0.0724
 5833TIP3    H138990   4.270   3.673  16.122  1.3129 -0.0300  0.0839
 5833TIP3    H238991   4.172   3.631  16.229 -1.1073  1.9580 -1.2943
 5834TIP3   OH238992   1.920   4.905   2.164  0.8676 -0.3410  1.3325
 5834TIP3    H138993   1.897   4.956   2.087  0.3490 -1.4921  0.7163
 5834TIP3    H238994   1.995   4.950   2.202  1.8217 -0.3845 -0.4678
 5835TIP3   OH238995   4.004   4.349   6.398 -0.2856 -0.1699 -0.0024
 5835TIP3    H138996   4.017   4.444   6.405  2.8649 -0.6557  1.7884
 5835TIP3    H238997   3.909   4.338   6.399 -0.6921  2.8977  1.1161
 5836TIP3   OH238998   4.923   0.486  12.839 -0.2430 -0.4762 -0.4913
 5836TIP3    H138999   4.980   0.491  12.763 -0.6461 -0.8960 -0.8250
 5836TIP3    H239000   4.850   0.431  12.811  0.1847 -1.6169  0.5617
 5837TIP3   OH239001   1.820   0.941  16.997  0.1995  0.0270 -0.0179
 5837TIP3    H139002   1.876   0.980  16.930  1.5675  0.9648  1.6125
 5837TIP3    H239003   1.874   0.874  17.037  0.0485  0.6933  1.3358
 5838TIP3   OH239004   3.773   5.899  11.353  0.1223 -0.2310  0.1615
 5838TIP3    H139005   3.839   5.887  11.421 -0.3162 -0.3710  0.5668
 5838TIP3    H239006   3.738   5.811  11.337  2.2118 -0.6472 -2.2858
 5839TIP3   OH239007   2.652   2.367   0.293 -0.0956 -0.1529  0.5093
 5839TIP3    H139008   2.732   2.315   0.284  1.8355  2.7786 -0.1427
 5839TIP3    H239009   2.607   2.357   0.210  0.0782 -1.0505  0.5156
 5840TIP3   OH239010   1.786   0.793  15.454 -0.7368  0.2036 -0.0867
 5840TIP3    H139011   1.813   0.709  15.491  0.4275  0.3191 -0.6494
 5840TIP3    H239012   1.778   0.777  15.360 -1.0945  0.5761 -0.1215
 5841TIP3   OH239013   5.906   5.616   1.177  0.0393  0.5319  0.1544
 5841TIP3    H139014   5.830   5.626   1.119  0.5150  2.8523 -0.0849
 5841TIP3    H239015   5.903   5.692   1.234  2.3842  0.8185 -0.0786
 5842TIP3   OH239016   1.044   6.469   5.788 -0.4275 -0.1567 -0.1987
 5842TIP3    H139017   0.991   6.402   5.831 -0.9296 -0.0111 -0.5778
 5842TIP3    H239018   1.015   6.467   5.697 -0.4209  0.5545 -0.2197
 5843TIP3   OH239019   6.216   3.648   5.158 -0.6385  0.3218  0.0456
 5843TIP3    H139020   6.195   3.622   5.068  0.9924 -0.1062 -0.2294
 5843TIP3    H239021   6.270   3.727   5.148  1.0563 -0.7487  0.5617
 5844TIP3   OH239022   1.882   6.513   2.678  0.0037  0.3136  0.5198
 5844TIP3    H139023   1.961   6.493   2.727  0.5307 -1.4711 -0.9934
 5844TIP3    H239024   1.812   6.515   2.743  1.1411  1.0084  1.7414
 5845TIP3   OH239025   6.176   3.857  15.243 -0.2197  0.3582 -0.3290
 5845TIP3    H139026   6.191   3.917  15.169  2.6388  0.8210  0.5603
 5845TIP3    H239027   6.181   3.913  15.320 -2.2151 -0.2898  0.3002
 5846TIP3   OH239028   5.784   2.206  16.163  0.1907 -0.1571 -0.8122
 5846TIP3    H139029   5.711   2.251  16.206  0.2446  0.6659 -1.5645
 5846TIP3    H239030   5.856   2.269  16.168  0.9127 -1.0419  0.1028
 5847TIP3   OH239031   4.799   3.958  14.940 -0.1783 -0.0149  0.5353
 5847TIP3    H139032   4.729   3.892  14.940  1.3015 -1.6506  2.0154
 5847TIP3    H239033   4.871   3.916  14.988  1.6115  1.8464 -0.4424
 5848TIP3   OH239034   3.725   3.597  11.163 -0.6713  0.0953  0.2019
 5848TIP3    H139035   3.689   3.671  11.211  1.4364  0.7421  0.8244
 5848TIP3    H239036   3.733   3.628  11.073  2.3655  1.4851  0.8823
 5849TIP3   OH239037   0.964   2.122  15.296 -0.1949  0.0012  0.3979
 5849TIP3    H139038   0.879   2.118  15.252  0.0277 -2.4008  0.0927
 5849TIP3    H239039   0.967   2.043  15.349  2.2628 -0.4993 -0.4065
 5850TIP3   OH239040   0.260   5.866   1.171  0.3718  0.3801  0.3042
 5850TIP3    H139041   0.289   5.777   1.148  0.7708  0.5796  0.0367
 5850TIP3    H239042   0.293   5.921   1.101 -2.7631  0.2904 -1.3101
 5851TIP3   OH239043   3.648   0.039  11.780  0.0207 -0.0430 -0.0589
 5851TIP3    H139044   3.695  -0.039  11.754  0.8308  0.8419 -1.2974
 5851TIP3    H239045   3.555   0.018  11.766  0.3200 -0.3063 -1.6872
 5852TIP3   OH239046   6.059   5.303   2.534  0.0320  0.0966 -0.1240
 5852TIP3    H139047   6.097   5.221   2.566 -1.2601 -0.4686 -0.0124
 5852TIP3    H239048   6.082   5.305   2.441  1.3845  0.3732  0.1989
 5853TIP3   OH239049   3.093   6.606  14.098  0.1755 -0.0027 -0.6232
 5853TIP3    H139050   3.041   6.544  14.150  0.2488  0.4415 -0.0247
 5853TIP3    H239051   3.043   6.687  14.101  1.8214  0.9840  1.5373
 5854TIP3   OH239052   0.445   1.231  11.769  0.1872  0.4066  0.3801
 5854TIP3    H139053   0.411   1.217  11.858  1.1405 -0.0302  0.6815
 5854TIP3    H239054   0.481   1.147  11.743 -0.8785  0.2858 -0.7907
 5855TIP3   OH239055   0.451   0.051  11.882  0.0544  0.1390  0.1209
 5855TIP3    H139056   0.512  -0.020  11.864 -0.1560  0.2544 -1.0774
 5855TIP3    H239057   0.430   0.041  11.975  0.4072 -1.0608  0.0837
 5856TIP3   OH239058   3.960   3.437  12.206 -0.2630 -0.8024  0.6953
 5856TIP3    H139059   3.945   3.390  12.124 -0.2487 -0.8943  0.7464
 5856TIP3    H239060   3.880   3.488  12.219  0.5565  0.8481 -0.4713
 5857TIP3   OH239061   1.116   5.034   1.364 -0.1334  0.7742  0.1603
 5857TIP3    H139062   1.081   5.002   1.281 -2.8433  0.9721  1.1871
 5857TIP3    H239063   1.140   4.955   1.412  0.3424  0.6122 -0.3412
 5858TIP3   OH239064   6.249   4.930   3.839  0.0972  0.1639 -0.2503
 5858TIP3    H139065   6.336   4.893   3.850  0.0041  0.1170  0.3510
 5858TIP3    H239066   6.190   4.855   3.844 -0.1014  0.4040  1.1020
 5859TIP3   OH239067   3.445   3.835  17.140  0.7188  0.2911  0.0077
 5859TIP3    H139068   3.449   3.903  17.208 -0.2944 -1.2161  1.6165
 5859TIP3    H239069   3.459   3.753  17.187 -0.0176 -0.7891 -1.6168
 5860TIP3   OH239070   5.894   2.304   2.837  0.1632 -0.3164  0.9584
 5860TIP3    H139071   5.816   2.259   2.869  0.6599 -1.6150  0.3580
 5860TIP3    H239072   5.942   2.238   2.788 -0.1516  1.3924 -1.7445
 5861TIP3   OH239073   5.879   2.150  13.265  0.1363 -0.0314 -0.2060
 5861TIP3    H139074   5.844   2.110  13.186  0.0254 -0.1993 -0.0727
 5861TIP3    H239075   5.813   2.216  13.290 -0.4962 -0.9246  0.5184
 5862TIP3   OH239076   2.696   5.184   4.835 -0.5516  0.3039  0.0182
 5862TIP3    H139077   2.749   5.112   4.802  0.1312  0.8613 -0.1095
 5862TIP3    H239078   2.622   5.141   4.878 -0.7526 -0.4587 -1.0491
 5863TIP3   OH239079   3.900   6.199  10.867  0.1761 -0.1021  0.2639
 5863TIP3    H139080   3.924   6.161  10.782  3.3095  1.4599  0.3506
 5863TIP3    H239081   3.868   6.286  10.846  0.0139 -0.0782  0.6120
 5864TIP3   OH239082   3.739   1.420  11.375  0.2781  0.4127  0.2038
 5864TIP3    H139083   3.799   1.489  11.346 -0.6053  1.4040  0.6711
 5864TIP3    H239084   3.686   1.401  11.298  0.8510 -0.0978 -0.0650
 5865TIP3   OH239085   2.292   3.501  15.944 -0.4121 -0.0978 -0.3548
 5865TIP3    H139086   2.244   3.478  15.865 -0.3027 -1.5395 -0.0006
 5865TIP3    H239087   2.344   3.578  15.918  0.7112 -1.4071 -2.0912
 5866TIP3   OH239088   0.950   6.126   2.342  0.8081  0.2450 -0.2090
 5866TIP3    H139089   0.870   6.142   2.292  0.4857  0.3334  0.3350
 5866TIP3    H239090   0.966   6.032   2.332 -1.5115 -0.5515  2.8454
 5867TIP3   OH239091   1.219   1.768  16.490  0.0692 -0.5318 -0.0864
 5867TIP3    H139092   1.218   1.775  16.395  1.2349 -1.8355 -0.2289
 5867TIP3    H239093   1.132   1.796  16.518  0.7837  3.0250 -1.2598
 5868TIP3   OH239094   0.252   4.728   5.378  0.5625  0.2986  0.4753
 5868TIP3    H139095   0.261   4.811   5.332  2.6402 -0.0604  0.1813
 5868TIP3    H239096   0.307   4.667   5.329 -0.0877 -0.9916  1.3121
 5869TIP3   OH239097   1.115   0.852  15.449 -1.2789  0.4350  0.4921
 5869TIP3    H139098   1.073   0.912  15.387 -2.4725  0.6257  1.4638
 5869TIP3    H239099   1.127   0.771  15.400 -1.8783  0.7044 -0.1069
 5870TIP3   OH239100   4.440   3.738  16.901  0.0222  0.2752  0.0481
 5870TIP3    H139101   4.514   3.798  16.909  2.2317 -2.4005  0.4466
 5870TIP3    H239102   4.463   3.681  16.828 -1.3640 -0.9451  0.5321
 5871TIP3   OH239103   2.565   6.783  15.603 -0.0156 -0.2956  0.5174
 5871TIP3    H139104   2.648   6.736  15.611  1.1061  1.3706 -0.9176
 5871TIP3    H239105   2.589   6.875  15.614 -1.5238  0.2755 -0.8354
 5872TIP3   OH239106   3.311   4.439   3.581  0.2289  0.5784 -0.2763
 5872TIP3    H139107   3.376   4.510   3.580 -0.2214  0.9919 -0.2780
 5872TIP3    H239108   3.227   4.484   3.585 -0.1796  0.1037 -2.9470
 5873TIP3   OH239109   3.868   2.801  12.961  0.1075 -0.1682 -0.1513
 5873TIP3    H139110   3.923   2.850  12.900 -0.7615 -0.8933 -1.5454
 5873TIP3    H239111   3.799   2.765  12.907 -0.1219 -1.6801  1.1179
 5874TIP3   OH239112   5.932   6.756   3.064 -0.1244  0.5094  0.0870
 5874TIP3    H139113   5.853   6.794   3.025 -0.1981  0.5360  0.2603
 5874TIP3    H239114   6.001   6.820   3.047 -0.0531  0.3060 -0.4122
 5875TIP3   OH239115   6.233   4.503  11.635 -0.0204 -0.1725 -0.5966
 5875TIP3    H139116   6.322   4.532  11.654 -0.3672  0.2121  0.5288
 5875TIP3    H239117   6.227   4.416  11.675 -1.0247  0.9979  1.9061
 5876TIP3   OH239118   2.601   0.255   5.609 -0.1398  0.2878 -0.6238
 5876TIP3    H139119   2.695   0.270   5.620 -0.6315  1.5362  2.3994
 5876TIP3    H239120   2.571   0.327   5.554 -0.0706  2.6415  2.2779
 5877TIP3   OH239121   5.446   1.704  12.737  0.5314  0.6126 -0.3224
 5877TIP3    H139122   5.395   1.718  12.816 -1.2422  1.8751 -1.6459
 5877TIP3    H239123   5.386   1.662  12.676  0.4866  3.5549 -2.4574
 5878TIP3   OH239124   1.573   0.732   0.453  0.5246  0.3242 -0.8700
 5878TIP3    H139125   1.491   0.683   0.446  0.4078  0.0673  1.7234
 5878TIP3    H239126   1.630   0.676   0.505  1.6743  1.3296 -1.0338
 5879TIP3   OH239127   0.038   5.408  11.155  0.1643 -0.0958  0.0126
 5879TIP3    H139128   0.105   5.427  11.089 -1.9911  1.8667 -1.7098
 5879TIP3    H239129  -0.025   5.352  11.111 -0.2563 -0.4540  1.0443
 5880TIP3   OH239130   1.304   3.299   3.907  0.1982  0.4052  0.2046
 5880TIP3    H139131   1.369   3.329   3.843 -0.8487  2.5854  0.1058
 5880TIP3    H239132   1.221   3.333   3.874 -0.4527  0.9464  2.3304
 5881TIP3   OH239133   2.103   1.842  12.212 -0.2799 -0.5449 -0.4965
 5881TIP3    H139134   2.011   1.821  12.231  0.3403 -1.7334  1.4324
 5881TIP3    H239135   2.113   1.933  12.241 -0.8252 -0.4431 -0.6153
 5882TIP3   OH239136   5.362   5.878   3.879  0.4607 -0.2941 -0.0198
 5882TIP3    H139137   5.317   5.910   3.958 -0.6654  1.0957 -1.1904
 5882TIP3    H239138   5.326   5.791   3.864  0.3864 -0.4006  0.7826
 5883TIP3   OH239139   1.856   3.149   2.690 -0.4552 -0.4359 -0.3239
 5883TIP3    H139140   1.820   3.061   2.676  0.6637 -0.9061 -0.2542
 5883TIP3    H239141   1.779   3.205   2.698 -1.2397 -1.7862  2.2204
 5884TIP3   OH239142   4.540   4.757  15.219 -0.4018 -0.2863 -0.4400
 5884TIP3    H139143   4.559   4.793  15.132  0.4234 -0.3424 -0.2912
 5884TIP3    H239144   4.593   4.811  15.278 -0.1481 -0.9291 -0.0843
 5885TIP3   OH239145   3.237   3.677   5.854  0.1670 -0.3071 -0.3494
 5885TIP3    H139146   3.172   3.664   5.785  1.0073  1.1058 -1.4529
 5885TIP3    H239147   3.267   3.588   5.876 -0.7956 -0.8368 -1.1383
 5886TIP3   OH239148   3.088   1.338  11.141 -0.1386 -0.1483  0.5858
 5886TIP3    H139149   3.011   1.395  11.149 -0.9552 -1.0112 -0.9266
 5886TIP3    H239150   3.161   1.391  11.173 -1.4594  0.4563  2.6908
 5887TIP3   OH239151   2.745   6.767  11.320  0.3707 -0.4721  0.1407
 5887TIP3    H139152   2.735   6.860  11.303  0.2361 -0.4591  0.2936
 5887TIP3    H239153   2.717   6.755  11.411  1.0755 -0.5424  0.3517
 5888TIP3   OH239154   0.837   1.050   0.765 -0.1494  0.0743 -0.5377
 5888TIP3    H139155   0.837   1.008   0.851  0.0170 -0.9792 -1.0365
 5888TIP3    H239156   0.791   1.132   0.777  0.4726  0.2409  0.7115
 5889TIP3   OH239157   3.151   6.233  15.395  0.7599  0.0103 -0.1673
 5889TIP3    H139158   3.218   6.300  15.383  1.5765 -0.9942 -1.2795
 5889TIP3    H239159   3.075   6.268  15.348  1.2949 -0.0040 -1.0547
 5890TIP3   OH239160   5.921   3.046   2.177  0.4301  0.3190 -0.7572
 5890TIP3    H139161   5.955   3.135   2.188  0.9514  0.2837 -1.9373
 5890TIP3    H239162   5.989   3.001   2.126  0.7265 -1.1112  0.8432
 5891TIP3   OH239163   4.720   6.345  13.654  0.5292  0.3241  0.1946
 5891TIP3    H139164   4.746   6.336  13.746  2.5652 -2.0102 -0.5531
 5891TIP3    H239165   4.797   6.382  13.611 -0.0932  0.5527 -0.7346
 5892TIP3   OH239166   5.409   4.380  10.962 -0.4193  0.2827  0.2209
 5892TIP3    H139167   5.434   4.390  10.870  1.1658 -1.4907  0.4486
 5892TIP3    H239168   5.362   4.461  10.983  0.7378  1.4600 -1.6430
 5893TIP3   OH239169   1.660   6.167  11.776  0.5004  0.2383 -0.2211
 5893TIP3    H139170   1.718   6.092  11.768  0.2863  0.0265  0.1968
 5893TIP3    H239171   1.717   6.243  11.762  0.8066  0.0187 -0.1651
 5894TIP3   OH239172   5.512   5.671   0.118 -0.1780 -0.1533  0.4127
 5894TIP3    H139173   5.596   5.712   0.135 -0.6646  1.3107 -0.6516
 5894TIP3    H239174   5.510   5.657   0.023 -1.9159  1.6063  0.1554
 5895TIP3   OH239175   3.528   4.035  12.190 -0.1410  0.1436 -0.4861
 5895TIP3    H139176   3.477   4.040  12.271 -0.7157 -0.2714 -0.8210
 5895TIP3    H239177   3.616   4.062  12.216 -0.2335 -0.3242  0.3574
 5896TIP3   OH239178   1.103   6.592   6.381 -0.3059  0.4277  0.1787
 5896TIP3    H139179   1.127   6.624   6.468 -1.3282 -2.9825  1.8008
 5896TIP3    H239180   1.178   6.541   6.352 -0.8068 -0.2253  0.0100
 5897TIP3   OH239181   6.773   1.028  14.722 -0.0297  0.3310 -0.2449
 5897TIP3    H139182   6.811   1.074  14.797  0.7968 -1.9252  0.7718
 5897TIP3    H239183   6.825   0.948  14.714 -1.9145 -0.8190 -1.4595
 5898TIP3   OH239184   2.383   3.603   4.455  0.3939 -0.1932 -0.1078
 5898TIP3    H139185   2.458   3.655   4.427  0.1011 -0.1634 -0.8458
 5898TIP3    H239186   2.416   3.513   4.457 -0.1402 -0.4946 -2.6746
 5899TIP3   OH239187   0.993   6.196   5.903 -0.1764 -0.0566 -0.1905
 5899TIP3    H139188   0.899   6.211   5.891 -0.1404 -0.3732 -0.8453
 5899TIP3    H239189   1.017   6.133   5.835  0.1342 -1.3821  1.1278
 5900TIP3   OH239190   2.951   6.009  11.957  0.0857  0.8533 -0.2656
 5900TIP3    H139191   3.031   6.062  11.958  0.4300  0.3456 -0.7600
 5900TIP3    H239192   2.902   6.042  11.882  0.2552  0.5387 -0.5152
 5901TIP3   OH239193   5.024   3.389   4.291  0.2673  0.3281 -0.8077
 5901TIP3    H139194   4.997   3.481   4.289  2.7691  1.1288  0.0115
 5901TIP3    H239195   5.050   3.370   4.201 -1.1045  0.1225 -1.1770
 5902TIP3   OH239196   0.016   0.191  13.372 -0.2331  0.0452 -0.0843
 5902TIP3    H139197   0.077   0.265  13.365 -1.3129  0.7276 -3.1425
 5902TIP3    H239198  -0.053   0.222  13.430  2.1407 -0.6673  3.2772
 5903TIP3   OH239199   1.786   3.953   4.359 -0.7288  0.1539  0.2423
 5903TIP3    H139200   1.734   4.034   4.356  0.1782  0.7257 -0.2962
 5903TIP3    H239201   1.758   3.911   4.440 -0.9632  1.1881  0.7162
 5904TIP3   OH239202   4.952   2.186  16.970 -0.4508  0.2945 -0.0643
 5904TIP3    H139203   4.946   2.099  17.009 -1.4978 -0.2776 -1.4773
 5904TIP3    H239204   5.045   2.196  16.949 -0.2304 -0.2487  0.6369
 5905TIP3   OH239205   5.811   4.247  13.709  0.4323  0.5023 -0.1446
 5905TIP3    H139206   5.821   4.209  13.796  0.1829  1.4276  0.3041
 5905TIP3    H239207   5.736   4.202  13.671  0.5696  0.0649  0.0996
 5906TIP3   OH239208   5.703   2.885  11.771  0.4584  0.3050 -0.7114
 5906TIP3    H139209   5.694   2.981  11.767  1.0704  0.3308 -1.6305
 5906TIP3    H239210   5.680   2.863  11.861 -1.7292  1.0971 -1.0482
 5907TIP3   OH239211   5.081   5.037   5.589  0.1709 -0.8315 -0.2764
 5907TIP3    H139212   5.028   5.017   5.667  0.4895  1.3975  0.5505
 5907TIP3    H239213   5.024   5.091   5.534  0.8938 -0.0616 -0.2848
 5908TIP3   OH239214   6.231   4.831  14.094 -0.0357  0.3356  0.0474
 5908TIP3    H139215   6.218   4.736  14.086  0.6050  0.2093  0.4159
 5908TIP3    H239216   6.179   4.856  14.170 -0.4061  0.3222 -0.1999
 5909TIP3   OH239217   2.790   3.678   3.066 -0.1253 -0.6968  0.1300
 5909TIP3    H139218   2.808   3.676   3.160  2.1991 -0.2504 -0.2699
 5909TIP3    H239219   2.860   3.626   3.027 -0.3007  0.2115 -1.4634
 5910TIP3   OH239220   5.089   3.642  14.745  0.3133  0.0564  0.4915
 5910TIP3    H139221   5.118   3.702  14.814  0.9511  1.4160 -0.9112
 5910TIP3    H239222   5.130   3.676  14.666 -1.3230 -0.8048 -0.7569
 5911TIP3   OH239223   1.122   6.185   6.170 -0.1098  0.5021 -0.1269
 5911TIP3    H139224   1.072   6.212   6.093  1.2171 -0.3723 -1.3117
 5911TIP3    H239225   1.080   6.103   6.198  0.2890  0.0682 -0.7812
 5912TIP3   OH239226   2.518   5.013   4.509  0.4826 -0.5373 -0.1874
 5912TIP3    H139227   2.461   5.080   4.471  0.2481  0.0042  1.0981
 5912TIP3    H239228   2.606   5.050   4.504  0.2165  0.4333  1.6492
 5913TIP3   OH239229   0.209   2.205   6.052  0.0654  0.3227  0.0515
 5913TIP3    H139230   0.171   2.132   6.101  0.0660  1.0341  1.1294
 5913TIP3    H239231   0.138   2.232   5.993 -0.2537  0.0440  0.2990
 5914TIP3   OH239232   2.374   5.683  13.450 -0.1815 -0.1888  0.8382
 5914TIP3    H139233   2.330   5.748  13.396 -0.2465 -0.0753  1.0280
 5914TIP3    H239234   2.417   5.624  13.388 -0.2829 -0.0757  0.6649
 5915TIP3   OH239235   2.899   2.334   4.578 -0.2182  0.2335  0.1325
 5915TIP3    H139236   2.870   2.419   4.609  1.9006  0.1887  2.4291
 5915TIP3    H239237   2.847   2.271   4.629  1.5846  0.1790  1.9936
 5916TIP3   OH239238   2.994   1.897  11.080 -0.6585  0.5552 -0.6426
 5916TIP3    H139239   3.056   1.824  11.080 -1.8144 -0.4555 -0.2674
 5916TIP3    H239240   2.992   1.928  10.989  1.4011  1.4879 -0.3872
 5917TIP3   OH239241   3.979   6.285  11.530 -0.6051 -0.4160 -0.3272
 5917TIP3    H139242   3.999   6.191  11.526  0.0950 -0.3020  0.2365
 5917TIP3    H239243   4.065   6.327  11.530 -0.8868  0.1713  0.7065
 5918TIP3   OH239244   4.309   1.504   1.984  0.0727 -0.7606  0.6713
 5918TIP3    H139245   4.237   1.489   1.923 -0.4297 -0.0802  1.0867
 5918TIP3    H239246   4.283   1.582   2.034  2.1877  0.9832 -0.8196
 5919TIP3   OH239247   1.150   0.204   2.295  0.0996 -0.2485  0.2781
 5919TIP3    H139248   1.135   0.298   2.298 -1.2300 -0.4656  1.5125
 5919TIP3    H239249   1.222   0.192   2.233 -2.2371  1.2563 -2.8401
 5920TIP3   OH239250   6.020   1.074  16.123  0.4210  0.1649 -0.1582
 5920TIP3    H139251   6.105   1.103  16.158 -0.9734  1.5727  2.1778
 5920TIP3    H239252   6.014   0.982  16.150  1.6013 -0.2144 -1.1403
 5921TIP3   OH239253   0.996   2.864  13.542  0.5020  0.2205 -0.0507
 5921TIP3    H139254   1.032   2.828  13.623  0.7428  1.3732  0.3618
 5921TIP3    H239255   0.905   2.836  13.541  0.6370 -0.2370  0.3573
 5922TIP3   OH239256   4.706   1.042  11.987  0.5578  0.1322 -0.1176
 5922TIP3    H139257   4.782   1.030  12.044 -0.6180 -1.0689  1.2500
 5922TIP3    H239258   4.632   1.047  12.047 -0.4221  1.6267 -1.4160
 5923TIP3   OH239259   3.837   4.360   3.603 -0.3900  0.0395 -0.0790
 5923TIP3    H139260   3.927   4.373   3.572 -0.4152  1.3488  0.3377
 5923TIP3    H239261   3.813   4.273   3.572  1.6702 -1.0823  1.3769
 5924TIP3   OH239262   3.188   4.317  16.779 -0.0606  0.1369  0.1096
 5924TIP3    H139263   3.275   4.336  16.744  0.0083  1.8884  1.1289
 5924TIP3    H239264   3.142   4.402  16.776 -0.9385 -0.2631  1.7311
 5925TIP3   OH239265   4.039   3.850   1.692  0.1406  0.1403 -0.3611
 5925TIP3    H139266   4.072   3.933   1.728 -1.3976  0.5432  0.2070
 5925TIP3    H239267   3.944   3.854   1.709  0.3093 -2.6155  1.5024
 5926TIP3   OH239268   4.824   1.967  16.574  0.0498  0.3917 -0.1435
 5926TIP3    H139269   4.773   1.983  16.654  0.5634 -2.7757  0.8987
 5926TIP3    H239270   4.836   1.872  16.572  2.7883  0.7172 -2.3163
 5927TIP3   OH239271   3.272   6.503   5.177 -0.3281 -0.2712  0.8921
 5927TIP3    H139272   3.302   6.428   5.125  2.5103  0.5070  1.3147
 5927TIP3    H239273   3.198   6.538   5.128  1.9459  0.1148 -2.4045
 5928TIP3   OH239274   5.260   3.354  11.534  0.1883  0.4845  0.5100
 5928TIP3    H139275   5.276   3.266  11.501  0.7320  1.1688 -1.1034
 5928TIP3    H239276   5.177   3.381  11.493  0.3730  0.9732  0.4480
 5929TIP3   OH239277   2.987   6.725   4.720  0.4876  0.0330 -0.3821
 5929TIP3    H139278   3.022   6.655   4.666  0.0876  1.0102 -1.9405
 5929TIP3    H239279   2.902   6.692   4.750  1.6262 -1.3430  1.3770
 5930TIP3   OH239280   6.280   2.843   5.344  0.0501 -0.3286  0.2276
 5930TIP3    H139281   6.321   2.775   5.398  2.6900 -0.2347 -1.5775
 5930TIP3    H239282   6.300   2.925   5.389 -0.0486 -0.4524  0.5021
 5931TIP3   OH239283   3.411   3.582  15.674 -0.0066  0.3482  0.1637
 5931TIP3    H139284   3.426   3.527  15.597  1.9191  3.3742 -1.7309
 5931TIP3    H239285   3.316   3.578  15.688 -0.2239 -1.2720 -1.5235
 5932TIP3   OH239286   5.868   2.850   3.262  0.0524  0.6429  0.1664
 5932TIP3    H139287   5.914   2.934   3.270 -1.1502  1.6705 -2.7579
 5932TIP3    H239288   5.796   2.869   3.202 -0.7216 -2.3052  0.1151
 5933TIP3   OH239289   0.037   0.001  14.061 -0.2927 -1.0466 -0.4996
 5933TIP3    H139290   0.090  -0.056  14.116  0.3525 -0.3425 -0.3731
 5933TIP3    H239291   0.085   0.005  13.978 -0.9076 -1.5614 -0.8872
 5934TIP3   OH239292   1.100   0.766  10.625 -0.2697  0.0355  0.1486
 5934TIP3    H139293   1.155   0.689  10.609 -0.8931 -0.2341 -0.7033
 5934TIP3    H239294   1.044   0.740  10.699  0.0174 -0.0713  0.3279
 5935TIP3   OH239295   3.979   2.026  16.018 -0.8346 -0.0230  0.6971
 5935TIP3    H139296   3.975   2.115  15.984 -0.4711  0.1169  1.0279
 5935TIP3    H239297   4.010   1.973  15.944 -0.8513  0.1546  0.5631
 5936TIP3   OH239298   3.007   3.289   6.111 -0.0672  0.5932 -0.5669
 5936TIP3    H139299   3.078   3.331   6.159 -0.2589 -0.8756  1.0385
 5936TIP3    H239300   3.023   3.195   6.120 -0.9633  0.2654 -2.0874
 5937TIP3   OH239301   1.494   4.780   3.158 -0.2582  0.2228  0.3731
 5937TIP3    H139302   1.455   4.845   3.099  0.1793  1.0465  0.9766
 5937TIP3    H239303   1.520   4.708   3.101 -1.0948  0.4064 -0.2590
 5938TIP3   OH239304   1.562   6.541   4.968 -0.7047 -0.0820 -0.2494
 5938TIP3    H139305   1.581   6.581   5.053 -0.2343  0.6393 -0.6919
 5938TIP3    H239306   1.540   6.450   4.989 -1.5298  0.3388  0.7340
 5939TIP3   OH239307   4.581   2.644  14.712 -0.0775  0.1865  0.6287
 5939TIP3    H139308   4.675   2.659  14.708  0.3587 -2.5035  0.2746
 5939TIP3    H239309   4.543   2.731  14.697  2.3187  1.3074  0.7730
 5940TIP3   OH239310   4.714   4.099   5.093  0.3968 -0.4626  0.0436
 5940TIP3    H139311   4.761   4.028   5.049  0.1640  0.1079 -1.1216
 5940TIP3    H239312   4.777   4.134   5.156  0.6157 -1.4957  0.4210
 5941TIP3   OH239313   0.437   1.353  13.658  0.5978  0.5102  0.0420
 5941TIP3    H139314   0.506   1.294  13.630  0.5934  1.0604 -1.1449
 5941TIP3    H239315   0.465   1.384  13.744  1.0806 -0.4356  0.2319
 5942TIP3   OH239316   2.224   0.805   1.072  0.4470  0.5925 -0.1091
 5942TIP3    H139317   2.143   0.854   1.092  0.2571 -0.0819  0.7777
 5942TIP3    H239318   2.193   0.728   1.024  0.6950  1.0334 -0.9845
 5943TIP3   OH239319   1.016   0.991  16.035  0.7245 -0.5791 -0.0188
 5943TIP3    H139320   1.026   1.075  15.990 -0.9140 -0.0820  0.4712
 5943TIP3    H239321   1.031   1.012  16.127 -1.2678 -0.4440  0.3179
 5944TIP3   OH239322   2.594   0.329  13.299 -0.1366 -0.0068 -0.2745
 5944TIP3    H139323   2.524   0.370  13.349  0.0749 -0.9295  0.7847
 5944TIP3    H239324   2.584   0.235  13.315  1.1831 -0.1674 -0.3233
 5945TIP3   OH239325   4.046   2.902  11.691  0.3001 -0.0913  0.5636
 5945TIP3    H139326   4.023   2.978  11.745  0.9348  0.1072  0.5562
 5945TIP3    H239327   4.114   2.934  11.632 -0.0733 -0.4294 -0.0550
 5946TIP3   OH239328   2.904   2.472   5.209  0.1124 -0.1167 -0.3965
 5946TIP3    H139329   2.913   2.446   5.117 -1.1689  1.6222 -1.0437
 5946TIP3    H239330   2.979   2.530   5.224  0.2423 -0.2894 -0.3624
 5947TIP3   OH239331   5.463   5.921   2.560 -0.4826 -0.7422  0.8389
 5947TIP3    H139332   5.508   5.963   2.486 -0.6751 -1.7774  0.1289
 5947TIP3    H239333   5.475   5.982   2.633  3.7721 -1.8284  1.2090
 5948TIP3   OH239334   6.366   0.603   3.488  0.0459 -0.2254  0.1280
 5948TIP3    H139335   6.309   0.582   3.562  0.1486  0.4531  0.4048
 5948TIP3    H239336   6.400   0.518   3.458  0.2928 -0.4732  1.0915
 5949TIP3   OH239337   0.310   6.499   5.113 -0.3473 -0.3368 -0.0830
 5949TIP3    H139338   0.226   6.456   5.102 -0.5262 -0.4570  1.6660
 5949TIP3    H239339   0.365   6.434   5.157 -0.1003  0.5955  1.0263
 5950TIP3   OH239340   6.336   5.703   5.567 -0.4143 -0.1786  0.3489
 5950TIP3    H139341   6.255   5.752   5.556 -0.4545 -0.1730  0.6444
 5950TIP3    H239342   6.311   5.628   5.621 -0.3859 -0.6096 -0.2330
 5951TIP3   OH239343   2.144   4.804   0.174 -0.1957 -0.0263 -0.0302
 5951TIP3    H139344   2.142   4.884   0.227 -0.5740  0.2385 -0.4419
 5951TIP3    H239345   2.237   4.792   0.152 -0.1540  0.3676 -0.0721
 5952TIP3   OH239346   1.705   6.598   6.017  0.2250  0.6876  0.2607
 5952TIP3    H139347   1.705   6.619   6.110  0.4736  2.5923 -0.1419
 5952TIP3    H239348   1.688   6.682   5.973 -1.7734 -0.5071 -1.3500
 5953TIP3   OH239349   4.319   0.730  10.647 -0.2801 -0.2363 -0.0837
 5953TIP3    H139350   4.326   0.824  10.666  0.1998 -0.3382  0.2556
 5953TIP3    H239351   4.229   0.718  10.617  0.6281  0.9135 -3.4306
 5954TIP3   OH239352   4.116   3.699   3.012 -0.1668 -0.5030  0.0507
 5954TIP3    H139353   4.046   3.697   3.077 -0.6447 -1.1692 -0.4804
 5954TIP3    H239354   4.151   3.610   3.011 -1.3958 -0.9901 -1.9356
 5955TIP3   OH239355   3.926   4.263  15.655  0.0218 -0.5974 -0.0029
 5955TIP3    H139356   3.905   4.214  15.575  0.1073  0.3992 -0.6500
 5955TIP3    H239357   3.864   4.336  15.655 -1.6733 -1.9995  2.1921
 5956TIP3   OH239358   5.752   6.612   2.853  0.7034  0.0169 -0.3803
 5956TIP3    H139359   5.677   6.636   2.908  1.1381  0.0201  0.2169
 5956TIP3    H239360   5.750   6.675   2.781 -0.2579 -0.3964 -0.7251
 5957TIP3   OH239361   3.184   1.371  12.673 -0.8530  0.2930  0.1719
 5957TIP3    H139362   3.182   1.413  12.587  1.1542  1.9550  0.8870
 5957TIP3    H239363   3.255   1.308  12.668 -0.0040  1.1734  0.9438
 5958TIP3   OH239364   2.352   0.903   5.488  0.2507 -0.0699 -0.2287
 5958TIP3    H139365   2.436   0.892   5.444 -0.3537 -2.1485 -0.8805
 5958TIP3    H239366   2.349   0.996   5.510  2.1330  0.2835 -1.3822
 5959TIP3   OH239367   5.330   6.279   3.477  0.0067 -0.0971 -0.1781
 5959TIP3    H139368   5.271   6.256   3.549  1.0163 -0.0411  0.6650
 5959TIP3    H239369   5.418   6.269   3.513  0.5440 -1.3530 -1.7938
 5960TIP3   OH239370   3.213   5.705   1.114  0.5432 -0.3275  0.8478
 5960TIP3    H139371   3.250   5.628   1.071  0.5390  0.1124  0.0389
 5960TIP3    H239372   3.279   5.773   1.103  0.6082 -0.2560  1.6870
 5961TIP3   OH239373   1.093   5.928   6.566 -0.4441  1.0991  0.0485
 5961TIP3    H139374   1.048   5.955   6.486  0.0536 -0.1422 -0.6610
 5961TIP3    H239375   1.169   5.879   6.536  0.9098  2.3882  1.2602
 5962TIP3   OH239376   0.592   4.505   1.181 -0.0273 -0.0432  0.1590
 5962TIP3    H139377   0.649   4.483   1.255 -0.0833 -0.5125  0.0614
 5962TIP3    H239378   0.614   4.596   1.161  1.4305 -0.5299 -0.5475
 5963TIP3   OH239379   3.601   2.626  13.429  0.0580  0.2804 -0.8555
 5963TIP3    H139380   3.547   2.571  13.372  0.0736 -0.5099 -0.1304
 5963TIP3    H239381   3.538   2.679  13.478 -0.0391 -0.2549 -0.3980
 5964TIP3   OH239382   6.407   5.972   5.154 -0.5148  0.1205  0.0284
 5964TIP3    H139383   6.431   6.013   5.237 -0.1633  0.4226 -0.2224
 5964TIP3    H239384   6.466   6.011   5.089 -3.5374  3.1274 -1.1356
 5965TIP3   OH239385   5.679   3.643   3.409 -0.0070  0.1300 -0.2792
 5965TIP3    H139386   5.655   3.635   3.502  0.7206  1.0397 -0.0040
 5965TIP3    H239387   5.723   3.728   3.403  2.4940 -1.1670 -0.9089
 5966TIP3   OH239388   0.629   5.962  17.255 -0.4848  0.9101  0.0609
 5966TIP3    H139389   0.565   5.966  17.184  0.1564  0.7937 -0.5319
 5966TIP3    H239390   0.660   5.871  17.254  1.1169  1.4376 -0.9531
 5967TIP3   OH239391   3.359   4.423   1.808 -0.0170 -0.0702 -0.1900
 5967TIP3    H139392   3.435   4.476   1.783  0.3243 -0.4234  0.0887
 5967TIP3    H239393   3.350   4.436   1.902 -1.2214  1.1557 -0.4609
 5968TIP3   OH239394   6.275   4.057   4.797  0.2546  0.3198  0.0074
 5968TIP3    H139395   6.221   4.128   4.832  2.2669  1.5503  0.7020
 5968TIP3    H239396   6.260   4.060   4.702 -1.7046 -0.0740  0.2787
 5969TIP3   OH239397   4.363   1.920   3.705 -0.7952 -0.2497  0.3948
 5969TIP3    H139398   4.290   1.864   3.734 -0.9085 -0.0694  0.4613
 5969TIP3    H239399   4.405   1.870   3.635 -0.8577 -0.4463  0.4945
 5970TIP3   OH239400   5.278   2.103   2.274  0.4215  0.7572 -0.3049
 5970TIP3    H139401   5.308   2.012   2.278  0.4955  0.6749 -2.3656
 5970TIP3    H239402   5.355   2.154   2.301 -0.5592  0.1145  4.0253
 5971TIP3   OH239403   2.201   4.386   4.825  0.4948  0.5705  0.1641
 5971TIP3    H139404   2.222   4.470   4.786  0.9154  0.9020  1.0777
 5971TIP3    H239405   2.155   4.338   4.756 -0.5385  1.8710 -0.0758
 5972TIP3   OH239406   2.291   3.901   4.682  0.3851  0.8417 -0.1605
 5972TIP3    H139407   2.361   3.836   4.679  1.1063  1.5335  1.1853
 5972TIP3    H239408   2.253   3.891   4.769 -1.6114  0.0707 -1.0884
 5973TIP3   OH239409   5.402   4.694  16.948  0.0827 -0.5360 -0.1577
 5973TIP3    H139410   5.311   4.667  16.965 -0.0401  0.6860  1.3200
 5973TIP3    H239411   5.423   4.751  17.022  1.5347  0.4544 -1.3109
 5974TIP3   OH239412   2.197   1.501  14.918 -0.3106  0.1276 -0.6767
 5974TIP3    H139413   2.136   1.451  14.865  1.3395 -1.6223 -0.9686
 5974TIP3    H239414   2.148   1.521  14.998 -1.2877 -1.1988 -0.9215
 5975TIP3   OH239415   6.535   6.001  15.201  0.3611  0.7118  0.4128
 5975TIP3    H139416   6.469   6.072  15.201 -2.4257 -1.7651  1.5510
 5975TIP3    H239417   6.496   5.933  15.146  1.6558 -1.1025  1.7254
 5976TIP3   OH239418   5.081   3.687  12.341  0.7766  0.2805 -0.1145
 5976TIP3    H139419   5.149   3.642  12.391 -1.1708 -1.0100  1.4379
 5976TIP3    H239420   5.050   3.756  12.400 -0.3534 -0.1442 -0.2084
 5977TIP3   OH239421   6.478   1.733  15.580  0.4141 -0.0617 -0.0907
 5977TIP3    H139422   6.387   1.705  15.566  0.5342 -0.7527  0.5056
 5977TIP3    H239423   6.473   1.794  15.653  0.5181 -0.6191  0.3839
 5978TIP3   OH239424   2.512   6.356   4.953  0.0828  0.0020  0.3134
 5978TIP3    H139425   2.475   6.371   5.040  0.3574  0.4979  0.3409
 5978TIP3    H239426   2.463   6.414   4.895 -0.0903 -0.3175  0.1325
 5979TIP3   OH239427   5.932   2.124   6.377 -0.0028  0.3497  0.1286
 5979TIP3    H139428   5.931   2.034   6.344 -1.3284  0.7002 -0.8130
 5979TIP3    H239429   5.840   2.149   6.383  0.3767  1.9823 -0.5612
 5980TIP3   OH239430   5.928   2.406  15.438 -0.4685  0.5112  0.1673
 5980TIP3    H139431   6.011   2.385  15.480  0.6121  1.9021 -1.1887
 5980TIP3    H239432   5.930   2.357  15.356 -0.9093  0.6435  0.0786
 5981TIP3   OH239433   1.020   5.930  12.296  0.0651 -0.2966  0.2691
 5981TIP3    H139434   0.976   6.015  12.298  0.9958  0.1961 -0.3542
 5981TIP3    H239435   1.071   5.930  12.215  0.7100 -1.1227  0.6635
 5982TIP3   OH239436   3.145   1.272   2.290 -0.0008 -0.4631  0.0363
 5982TIP3    H139437   3.130   1.214   2.216  0.9581 -0.5338 -0.1091
 5982TIP3    H239438   3.230   1.312   2.273 -0.7658  1.1855  0.0025
 5983TIP3   OH239439   0.893   5.969   2.857 -0.0638 -0.0807  0.0690
 5983TIP3    H139440   0.908   5.882   2.821 -0.2759 -0.5696  1.1384
 5983TIP3    H239441   0.925   6.029   2.789  2.4694 -1.0174  0.3841
 5984TIP3   OH239442   6.783   1.846  16.999 -0.0474 -0.2949 -0.1266
 5984TIP3    H139443   6.785   1.766  17.052 -1.4898 -0.7641 -0.7431
 5984TIP3    H239444   6.793   1.815  16.909 -0.9825  0.1639 -0.3999
 5985TIP3   OH239445   3.928   0.283  15.159  0.1823  0.4899  0.2788
 5985TIP3    H139446   3.913   0.226  15.234  0.8588  0.3389  0.2950
 5985TIP3    H239447   3.988   0.350  15.191  1.5384 -0.3480 -0.5020
 5986TIP3   OH239448   0.378   5.121   2.692  0.6573  0.4627 -0.3120
 5986TIP3    H139449   0.390   5.202   2.644  2.0561  0.9500  0.8166
 5986TIP3    H239450   0.451   5.119   2.754 -0.6541 -0.5177  1.2489
 5987TIP3   OH239451   1.819   0.245  13.394 -0.7219  0.1541  0.2299
 5987TIP3    H139452   1.778   0.232  13.479  1.4721  0.2660  1.3562
 5987TIP3    H239453   1.776   0.182  13.336 -1.7677 -0.3820  1.5754
 5988TIP3   OH239454   0.960   4.803   3.481  0.0725  0.7048  0.2986
 5988TIP3    H139455   0.954   4.749   3.559  0.6610 -0.2895 -0.3307
 5988TIP3    H239456   0.939   4.743   3.409  1.5226  1.1040 -0.4747
 5989TIP3   OH239457   5.530   1.435   5.107  0.0859  0.1159 -0.1710
 5989TIP3    H139458   5.438   1.429   5.084  0.1429  0.5447 -0.5084
 5989TIP3    H239459   5.576   1.398   5.032  0.1690 -0.5249  0.1916
 5990TIP3   OH239460   2.392   0.938   0.878  0.1414  0.2201  0.2555
 5990TIP3    H139461   2.395   1.034   0.888 -0.4163  0.2131  0.5077
 5990TIP3    H239462   2.375   0.906   0.966 -0.8926 -0.0463 -0.0311
 5991TIP3   OH239463   4.332   3.729   3.183  0.2623 -0.3530 -0.7868
 5991TIP3    H139464   4.305   3.682   3.262  2.0286 -0.4860 -0.2303
 5991TIP3    H239465   4.257   3.723   3.124 -0.3591 -1.9270  0.1442
 5992TIP3   OH239466   1.406   5.641   1.254  0.0224  0.2247 -0.7186
 5992TIP3    H139467   1.337   5.599   1.307  1.2350 -0.6962  0.1500
 5992TIP3    H239468   1.398   5.734   1.274 -4.3245  0.9204 -4.5088
 5993TIP3   OH239469   1.500   5.694   3.380 -0.0695  0.3867 -0.4893
 5993TIP3    H139470   1.435   5.685   3.310  0.9119  2.0340 -1.6249
 5993TIP3    H239471   1.584   5.688   3.336  0.5647  2.1814  0.4244
 5994TIP3   OH239472   2.343   5.244   0.586 -0.1411  0.1581 -0.3411
 5994TIP3    H139473   2.298   5.176   0.635  1.2641 -0.8639 -0.4342
 5994TIP3    H239474   2.282   5.318   0.586 -2.0172 -1.3494 -0.9320
 5995TIP3   OH239475   2.933   5.009   0.325  0.2151  0.2022  0.2581
 5995TIP3    H139476   2.882   4.999   0.245 -1.6031  0.2839  1.3840
 5995TIP3    H239477   2.977   5.094   0.316  0.6113 -0.1206 -0.9553
 5996TIP3   OH239478   2.492   5.884  11.003 -0.1343 -0.1986 -0.3151
 5996TIP3    H139479   2.460   5.806  10.957 -1.1170 -0.6435  1.0870
 5996TIP3    H239480   2.451   5.879  11.089  0.9677  1.1079  0.2927
 5997TIP3   OH239481   5.529   3.700  16.569 -0.9061 -0.8890  0.3314
 5997TIP3    H139482   5.608   3.646  16.561 -0.1893 -0.1392  2.0756
 5997TIP3    H239483   5.460   3.637  16.592 -0.8129 -1.5354 -1.1128
 5998TIP3   OH239484   3.784   3.404   5.789 -0.2208 -0.6019  0.2422
 5998TIP3    H139485   3.705   3.392   5.736 -0.2788  0.6877  0.0107
 5998TIP3    H239486   3.834   3.471   5.743 -0.1176  0.3011  1.6157
 5999TIP3   OH239487   5.941   3.821  14.964  0.3671  0.3324  0.0389
 5999TIP3    H139488   5.952   3.821  15.059 -0.2854  1.4624  0.1244
 5999TIP3    H239489   5.914   3.732  14.942  0.6281  0.0418  0.8950
 6000TIP3   OH239490   4.651   2.482   2.870  0.0467  0.1822  0.2634
 6000TIP3    H139491   4.568   2.471   2.822  0.2055  0.0879  0.0114
 6000TIP3    H239492   4.674   2.574   2.857  0.3328  0.0440 -0.2403
 6001TIP3   OH239493   1.874   3.182  14.345 -1.0354 -0.1754 -0.4619
 6001TIP3    H139494   1.847   3.241  14.415  2.7194 -0.5506  1.4528
 6001TIP3    H239495   1.845   3.096  14.375 -2.8577  0.1544 -1.2567
 6002TIP3   OH239496   3.911   0.307  12.660 -0.5209 -0.8339  0.1930
 6002TIP3    H139497   3.919   0.225  12.708  3.3806 -1.2316 -0.9429
 6002TIP3    H239498   3.916   0.375  12.728  0.2647 -1.4839  0.7975
 6003TIP3   OH239499   4.669   2.856  14.367  0.5997 -0.1902 -0.1645
 6003TIP3    H139500   4.672   2.868  14.272  1.0179 -0.4584 -0.1902
 6003TIP3    H239501   4.640   2.765  14.378 -1.4562  0.4756 -0.0011
 6004TIP3   OH239502   3.648   3.290  13.167 -0.2478 -0.3242 -0.3727
 6004TIP3    H139503   3.597   3.335  13.234 -0.1920  0.2814 -0.7317
 6004TIP3    H239504   3.679   3.360  13.109 -0.8353 -0.8977 -1.4004
 6005TIP3   OH239505   2.951   4.177   0.259  0.0338 -0.1132 -0.0358
 6005TIP3    H139506   3.007   4.143   0.189  1.0561 -2.0973  1.6680
 6005TIP3    H239507   2.868   4.132   0.247 -0.0448  0.1357 -0.4362
 6006TIP3   OH239508   5.297   4.684   2.729 -0.1406 -0.1697 -0.5465
 6006TIP3    H139509   5.357   4.759   2.720 -1.5822  0.8365 -2.0365
 6006TIP3    H239510   5.272   4.686   2.822 -1.0272  1.9070 -0.7936
 6007TIP3   OH239511   4.282   0.819   6.039  0.2390  0.3302  0.4898
 6007TIP3    H139512   4.344   0.748   6.025 -0.6901 -0.5139  0.6214
 6007TIP3    H239513   4.288   0.837   6.133 -0.2781 -0.2734  0.6392
 6008TIP3   OH239514   6.075   2.198   4.531  0.0802  0.2452  0.1378
 6008TIP3    H139515   6.151   2.254   4.543  0.3068  0.1187 -0.7069
 6008TIP3    H239516   6.003   2.258   4.511 -0.0177  0.3543  0.8104
 6009TIP3   OH239517   4.851   6.465  16.346 -0.2663  0.1090 -0.4377
 6009TIP3    H139518   4.826   6.462  16.438  0.7618  1.9797 -0.0826
 6009TIP3    H239519   4.790   6.405  16.303 -3.0234  1.8251  0.9330
 6010TIP3   OH239520   6.148   1.846   1.122  0.5299  0.2985 -0.3046
 6010TIP3    H139521   6.193   1.918   1.077  1.4045 -0.9210 -1.4158
 6010TIP3    H239522   6.156   1.772   1.063  1.9817 -1.4404  2.0033
 6011TIP3   OH239523   6.001   3.110   3.558  0.4087 -0.1624  0.0815
 6011TIP3    H139524   6.070   3.046   3.541  0.0937 -0.6473  0.6075
 6011TIP3    H239525   5.969   3.088   3.645  2.1089  2.3630  1.4224
 6012TIP3   OH239526   5.498   6.195   1.576 -0.3390 -0.1263  0.0206
 6012TIP3    H139527   5.590   6.213   1.561 -0.4150  1.8357  1.6195
 6012TIP3    H239528   5.497   6.110   1.622  0.7590  0.3902  1.0282
 6013TIP3   OH239529   5.029   5.731  13.184  0.4314 -0.1001  0.5054
 6013TIP3    H139530   5.011   5.808  13.131 -0.8981  0.1367  1.2845
 6013TIP3    H239531   5.124   5.732  13.196  0.6909  0.1398 -1.4001
 6014TIP3   OH239532   6.026   2.084  15.074  0.0770 -0.0560  0.1440
 6014TIP3    H139533   6.073   2.040  15.145 -0.1114 -1.2566 -0.4688
 6014TIP3    H239534   5.980   2.014  15.029 -2.4749  1.1315  0.8315
 6015TIP3   OH239535   0.563   3.824   5.390  0.3034 -0.5631 -0.0381
 6015TIP3    H139536   0.560   3.920   5.399  2.6513 -0.3920 -0.7964
 6015TIP3    H239537   0.494   3.793   5.449 -1.2642  1.6291 -0.6381
 6016TIP3   OH239538   5.564   2.752  15.719  0.9062  0.3904  0.3895
 6016TIP3    H139539   5.601   2.840  15.718  0.1922  0.6851 -1.8475
 6016TIP3    H239540   5.576   2.719  15.630  1.8289 -2.0811  1.3686
 6017TIP3   OH239541   0.667   3.520   4.841  0.1095  0.5734 -0.1000
 6017TIP3    H139542   0.697   3.608   4.862 -1.1418  0.7970  0.7731
 6017TIP3    H239543   0.591   3.506   4.898  0.2488 -1.0289 -0.2862
 6018TIP3   OH239544   5.900   2.608  17.002 -0.1293 -0.1106  0.5029
 6018TIP3    H139545   5.983   2.576  17.040  0.6627  1.5336  0.1994
 6018TIP3    H239546   5.926   2.682  16.947 -1.3155 -2.1616 -2.9521
 6019TIP3   OH239547   0.378   1.685   4.766 -0.1448  0.2854  1.0033
 6019TIP3    H139548   0.452   1.629   4.742 -1.3748 -0.3207 -1.6245
 6019TIP3    H239549   0.396   1.769   4.723 -0.2784  0.5862  1.5333
 6020TIP3   OH239550   3.530   6.117   4.842 -0.0213 -0.1689 -0.0429
 6020TIP3    H139551   3.606   6.166   4.809  0.5745 -0.0607  1.4359
 6020TIP3    H239552   3.537   6.031   4.801 -1.2602  1.0561 -2.9371
 6021TIP3   OH239553   3.465   0.948   6.591  0.5061 -0.2992  0.2711
 6021TIP3    H139554   3.502   1.036   6.602 -2.2052  1.2935 -2.7354
 6021TIP3    H239555   3.541   0.891   6.580  2.2977  1.5999  2.3338
 6022TIP3   OH239556   6.722   3.517  12.641  0.1795 -0.0825 -0.3198
 6022TIP3    H139557   6.663   3.509  12.716  1.4659  0.5616  0.7743
 6022TIP3    H239558   6.690   3.593  12.593 -0.9493 -0.7894 -0.7069
 6023TIP3   OH239559   4.635   2.148  12.196  0.7340  0.1684  0.0548
 6023TIP3    H139560   4.719   2.179  12.230  0.4752  0.5973  0.3123
 6023TIP3    H239561   4.573   2.218  12.219 -0.0394 -0.9748  1.4759
 6024TIP3   OH239562   1.549   4.684   4.521 -0.1226 -0.1099  0.0221
 6024TIP3    H139563   1.619   4.747   4.531 -0.6980  0.5389 -0.0216
 6024TIP3    H239564   1.573   4.633   4.443  0.3308  0.0597  0.0544
 6025TIP3   OH239565   0.280   1.618  13.330 -0.9745  0.0582  0.2332
 6025TIP3    H139566   0.338   1.694  13.322 -0.5719 -0.0342  2.1161
 6025TIP3    H239567   0.215   1.644  13.396 -1.2647 -0.9794  0.3633
 6026TIP3   OH239568   3.896   0.453   5.756 -0.3041  0.0457  0.1867
 6026TIP3    H139569   3.889   0.532   5.702  0.1562  0.8809  1.3231
 6026TIP3    H239570   3.808   0.439   5.791 -0.6890 -0.7069 -1.0495
 6027TIP3   OH239571   2.454   0.926  14.784 -0.6827 -0.2541  0.4107
 6027TIP3    H139572   2.413   1.002  14.743  1.1562  0.2154 -0.6269
 6027TIP3    H239573   2.405   0.851  14.751  0.9189  0.0994 -2.9065
 6028TIP3   OH239574   0.959   0.164  14.735 -0.3363  0.0906 -0.0433
 6028TIP3    H139575   0.892   0.171  14.666 -1.6828  0.7848  1.3233
 6028TIP3    H239576   0.971   0.069  14.746 -0.8341 -0.0353 -0.5337
 6029TIP3   OH239577   0.019   3.185   5.789  0.2899 -0.1256 -0.1190
 6029TIP3    H139578   0.026   3.182   5.884 -1.0380 -0.0912 -0.0017
 6029TIP3    H239579  -0.042   3.257   5.772  0.1449 -0.4371 -0.9647
 6030TIP3   OH239580   6.402   5.510  13.399 -0.0155  0.5588  0.3581
 6030TIP3    H139581   6.325   5.477  13.446  0.7742  0.9356  1.9551
 6030TIP3    H239582   6.470   5.517  13.466  2.1004 -1.8815 -1.4196
 6031TIP3   OH239583   2.542   4.721   5.020 -0.2212 -0.5152 -0.7770
 6031TIP3    H139584   2.498   4.641   5.047 -0.3645 -0.1174  0.2059
 6031TIP3    H239585   2.607   4.693   4.956  0.0795 -1.4863 -0.0548
 6032TIP3   OH239586   5.527   5.017  12.152 -0.2397 -0.4323  0.2409
 6032TIP3    H139587   5.439   5.054  12.155  0.3359  0.9123  1.8456
 6032TIP3    H239588   5.566   5.054  12.073 -0.4516  0.5637  0.5945
 6033TIP3   OH239589   6.241   3.247   0.403 -0.0315  0.9626  0.1550
 6033TIP3    H139590   6.276   3.163   0.433  0.0172  0.9007 -0.0745
 6033TIP3    H239591   6.274   3.256   0.314 -2.4222 -0.1776 -0.9207
 6034TIP3   OH239592   0.525   0.252   0.305  0.2523 -0.0746  0.6170
 6034TIP3    H139593   0.616   0.242   0.331  0.4084  0.8803  0.4364
 6034TIP3    H239594   0.481   0.175   0.341  1.2124 -0.7637  0.3274
 6035TIP3   OH239595   4.945   2.749  17.043  0.0881 -0.2474  0.1057
 6035TIP3    H139596   4.861   2.794  17.050  0.0982 -0.2135  0.0106
 6035TIP3    H239597   4.969   2.756  16.950 -0.2754 -1.1125 -0.0523
 6036TIP3   OH239598   4.979   3.932  16.104 -0.2374 -0.6192  0.5985
 6036TIP3    H139599   5.057   3.882  16.124 -0.2186  0.0147  2.1456
 6036TIP3    H239600   4.919   3.915  16.176 -0.8298  0.3340  0.3522
 6037TIP3   OH239601   4.893   0.245  13.596 -0.1061  0.2380  0.0913
 6037TIP3    H139602   4.919   0.280  13.511  0.3554 -2.7313 -1.0609
 6037TIP3    H239603   4.975   0.215  13.636 -0.5190  0.0595  0.8158
 6038TIP3   OH239604   1.553   2.913   5.061  0.2442  0.6473  0.1487
 6038TIP3    H139605   1.490   2.892   5.130  2.1840 -1.6862  1.2910
 6038TIP3    H239606   1.613   2.976   5.102 -0.5662  1.8729 -0.5247
 6039TIP3   OH239607   3.692   5.977   1.527  0.3900  0.1459  0.3207
 6039TIP3    H139608   3.723   6.026   1.450 -0.7854 -0.4484 -0.5419
 6039TIP3    H239609   3.616   6.027   1.558  0.0372 -0.3562  0.2736
 6040TIP3   OH239610   3.245   6.264  12.790  0.3954 -0.0051 -0.5089
 6040TIP3    H139611   3.175   6.305  12.840  0.7530  1.4701 -1.2066
 6040TIP3    H239612   3.254   6.177  12.829 -2.7928 -0.7609 -1.3512
 6041TIP3   OH239613   2.122   1.824  15.729 -0.0996  0.4121 -0.0070
 6041TIP3    H139614   2.164   1.821  15.643 -0.1519  1.0503 -0.0550
 6041TIP3    H239615   2.029   1.832  15.710 -0.1204  0.4503  0.1100
 6042TIP3   OH239616   5.523   1.838   1.894 -0.2078  0.0500  0.4603
 6042TIP3    H139617   5.496   1.878   1.811  0.1167  2.5899  1.5386
 6042TIP3    H239618   5.449   1.782   1.919 -0.1364 -1.0737 -1.7267
 6043TIP3   OH239619   6.546   2.546  13.646 -0.4272  0.4365  0.0389
 6043TIP3    H139620   6.455   2.557  13.619 -0.8499 -1.3852  0.6495
 6043TIP3    H239621   6.596   2.598  13.583 -1.8986  1.7824 -0.0769
 6044TIP3   OH239622   6.753   6.631  10.816  0.3626  0.1534  0.0649
 6044TIP3    H139623   6.799   6.707  10.781 -1.1884  1.3165  0.4884
 6044TIP3    H239624   6.744   6.571  10.742  0.5833  0.8792 -0.5537
 6045TIP3   OH239625   2.935   1.024  17.066  0.0492  0.1614 -0.7468
 6045TIP3    H139626   2.957   0.952  17.124  2.6050  2.2169  0.9265
 6045TIP3    H239627   2.912   1.097  17.124  0.8439  1.6997 -2.2889
 6046TIP3   OH239628   0.612   3.705   1.562  0.2281 -0.9177 -0.3802
 6046TIP3    H139629   0.519   3.712   1.582  0.1969 -0.6404 -0.6130
 6046TIP3    H239630   0.653   3.773   1.616  0.3629 -1.4251  0.1586
 6047TIP3   OH239631   3.058   2.026  13.916  0.2339 -0.1731 -0.0434
 6047TIP3    H139632   3.142   1.991  13.946  0.1086  0.5444  1.1489
 6047TIP3    H239633   3.056   2.116  13.947 -1.5051 -0.5486  0.9958
 6048TIP3   OH239634   3.898   3.231   0.160  0.7065  0.4912 -0.1002
 6048TIP3    H139635   3.911   3.190   0.075 -0.7055 -1.1654  0.4494
 6048TIP3    H239636   3.836   3.303   0.143  1.6943  1.2009 -0.7357
 6049TIP3   OH239637   2.025   2.465  16.197 -0.6054 -0.1106  0.2015
 6049TIP3    H139638   2.012   2.538  16.257  0.3509 -0.6629  1.0811
 6049TIP3    H239639   2.103   2.421  16.229 -1.1930 -1.5402 -0.3007
 6050TIP3   OH239640   4.614   6.786   4.945 -0.7628 -0.1714 -0.0394
 6050TIP3    H139641   4.696   6.791   4.896 -1.1891  0.7305 -0.6575
 6050TIP3    H239642   4.586   6.694   4.936  1.0455 -0.9124  1.6119
 6051TIP3   OH239643   4.978   2.026  12.044  0.3957  0.1841  0.1371
 6051TIP3    H139644   4.909   1.968  12.075  0.8298  0.5748  1.8669
 6051TIP3    H239645   4.931   2.100  12.005 -0.1536 -0.7678 -1.0190
 6052TIP3   OH239646   3.587   6.730  16.093 -0.0279  0.3524 -0.2814
 6052TIP3    H139647   3.578   6.653  16.150 -0.3966  0.2521 -0.4801
 6052TIP3    H239648   3.534   6.797  16.135  1.0894  0.8078  0.4293
 6053TIP3   OH239649   6.456   1.551  13.325  0.1148 -0.2839  0.3694
 6053TIP3    H139650   6.370   1.591  13.314  0.6716  1.0983  0.8225
 6053TIP3    H239651   6.454   1.473  13.270 -0.7971  0.7119 -1.0471
 6054TIP3   OH239652   2.371   1.054   5.008 -0.5430  0.2070 -0.0757
 6054TIP3    H139653   2.346   1.035   4.918  0.7824  0.9554 -0.6201
 6054TIP3    H239654   2.433   1.127   5.001  0.3130 -0.3511  1.3504
 6055TIP3   OH239655   3.771   3.662   2.118 -0.4102  0.2115 -0.4799
 6055TIP3    H139656   3.677   3.648   2.109 -0.4305 -0.0517  0.1846
 6055TIP3    H239657   3.779   3.745   2.165 -0.3049  0.4135 -0.8487
 6056TIP3   OH239658   0.789   4.661  15.576  0.1420  0.0586 -0.5771
 6056TIP3    H139659   0.793   4.702  15.663  0.2970 -1.1495  0.0001
 6056TIP3    H239660   0.802   4.733  15.515 -1.1445  1.1117  0.3682
 6057TIP3   OH239661   1.820   4.383   0.947 -0.0804 -0.2240  0.4331
 6057TIP3    H139662   1.748   4.357   1.005 -0.6181 -1.8278 -0.9290
 6057TIP3    H239663   1.798   4.472   0.920 -0.4103  0.1159  1.7699
 6058TIP3   OH239664   5.661   0.426  13.098  0.0040  0.2675  0.7693
 6058TIP3    H139665   5.600   0.393  13.165 -0.5386  0.9902  0.6390
 6058TIP3    H239666   5.736   0.368  13.104 -0.9135 -0.9638  0.5747
 6059TIP3   OH239667   4.726   6.496   1.106 -0.2177  0.0211  0.0909
 6059TIP3    H139668   4.765   6.473   1.021  0.0174  0.1929  0.1531
 6059TIP3    H239669   4.737   6.591   1.113 -0.8591  0.1012  0.0048
 6060TIP3   OH239670   6.776   1.680  17.290 -0.4833 -0.4592 -0.1977
 6060TIP3    H139671   6.772   1.608  17.227  1.0309 -0.0758 -0.7502
 6060TIP3    H239672   6.726   1.649  17.365  0.8145 -2.4164 -0.1147
 6061TIP3   OH239673   0.139   4.029  12.717  0.2412 -0.5610 -0.0441
 6061TIP3    H139674   0.209   4.004  12.778  0.0772 -1.2680 -0.1360
 6061TIP3    H239675   0.177   4.098  12.663  0.0156  0.8837  1.6022
 6062TIP3   OH239676   6.420   0.738   5.908 -0.8457  0.5704  0.0013
 6062TIP3    H139677   6.465   0.673   5.961 -1.9773 -0.0924  0.1719
 6062TIP3    H239678   6.476   0.816   5.911  0.3172 -0.2681  0.1197
 6063TIP3   OH239679   2.940   4.818   3.290 -0.5290  0.3717 -0.0887
 6063TIP3    H139680   3.024   4.803   3.246 -0.7635 -1.4359  0.0202
 6063TIP3    H239681   2.963   4.822   3.383 -0.4511  0.8243 -0.1264
 6064TIP3   OH239682   2.020   2.817  10.695  0.7662  0.2909 -0.3398
 6064TIP3    H139683   2.086   2.752  10.720  1.0453  0.0943 -1.5341
 6064TIP3    H239684   1.964   2.770  10.632 -2.6330 -0.6670  3.2025
 6065TIP3   OH239685   5.404   0.527  11.184  0.1043  0.1441 -0.0837
 6065TIP3    H139686   5.312   0.523  11.160 -0.1130 -1.0275  0.8879
 6065TIP3    H239687   5.437   0.605  11.139 -1.6530  1.3264  0.6112
 6066TIP3   OH239688   6.307   5.721   1.619  0.8175  0.0828  0.2004
 6066TIP3    H139689   6.341   5.804   1.586  1.6057  0.0325  0.8551
 6066TIP3    H239690   6.260   5.744   1.699  0.4688 -0.0176  0.0237
 6067TIP3   OH239691   0.787   5.455   0.546  0.6796  0.4725 -0.3838
 6067TIP3    H139692   0.765   5.362   0.554  2.1777  0.2182  0.9678
 6067TIP3    H239693   0.880   5.456   0.526  0.9533  1.7214  0.8705
 6068TIP3   OH239694   3.244   5.711   1.668  0.1247  0.3125  0.7407
 6068TIP3    H139695   3.292   5.765   1.605 -3.0927  1.7641 -0.5897
 6068TIP3    H239696   3.276   5.740   1.753  2.6552  0.1735 -0.1342
 6069TIP3   OH239697   5.735   6.762  12.555 -0.1672 -0.2931 -0.4866
 6069TIP3    H139698   5.706   6.726  12.471  0.6408  0.3191 -1.0427
 6069TIP3    H239699   5.807   6.821  12.531 -1.3657  1.5654  0.3970
 6070TIP3   OH239700   0.526   4.209  14.406  0.4527 -0.3539 -0.1864
 6070TIP3    H139701   0.446   4.260  14.418  1.4153  1.2403 -0.3284
 6070TIP3    H239702   0.556   4.190  14.495  1.1671  1.0972 -0.1012
 6071TIP3   OH239703   3.089   1.219  15.495  0.5937  0.1934  0.4797
 6071TIP3    H139704   3.139   1.298  15.473  1.4127 -0.6473 -0.7261
 6071TIP3    H239705   3.027   1.248  15.562  2.5883  1.3094  1.8830
 6072TIP3   OH239706   0.606   4.641  16.596 -0.3178  0.3278  0.6689
 6072TIP3    H139707   0.691   4.665  16.631  0.8229 -0.0097 -1.7372
 6072TIP3    H239708   0.573   4.721  16.556  0.1939 -0.2368 -0.9274
 6073TIP3   OH239709   6.707   3.780  16.847 -1.1412 -0.3610 -0.4702
 6073TIP3    H139710   6.682   3.689  16.864 -1.5829 -0.2648 -0.6201
 6073TIP3    H239711   6.711   3.787  16.752 -1.4575 -0.1267 -0.4687
 6074TIP3   OH239712   1.261   3.857  15.469 -0.0636  0.1313  0.7186
 6074TIP3    H139713   1.239   3.771  15.434 -2.6716  0.8209  0.5900
 6074TIP3    H239714   1.193   3.916  15.436  1.3431  2.1473  1.2759
 6075TIP3   OH239715   5.543   2.055   4.110 -0.9724 -0.4284 -0.2499
 6075TIP3    H139716   5.599   2.123   4.072  0.4492 -1.1730  0.4445
 6075TIP3    H239717   5.456   2.074   4.076 -1.4547  4.1317  3.0658
 6076TIP3   OH239718   4.920   2.159   6.177 -0.4059  0.6751  0.4600
 6076TIP3    H139719   4.963   2.183   6.095 -1.7291  0.6269 -0.2666
 6076TIP3    H239720   4.991   2.140   6.237  0.5987  1.5268 -0.4355
 6077TIP3   OH239721   3.765   0.190   1.443 -0.5842  0.1718 -0.0030
 6077TIP3    H139722   3.772   0.246   1.521 -0.3428 -2.1201  1.6680
 6077TIP3    H239723   3.691   0.227   1.394 -1.2963  1.1401  1.7342
 6078TIP3   OH239724   5.604   1.181  13.326 -0.5376  0.3321 -0.3908
 6078TIP3    H139725   5.566   1.095  13.344  0.3395 -0.0125 -0.1243
 6078TIP3    H239726   5.676   1.162  13.266 -0.2112  0.8538 -0.1681
 6079TIP3   OH239727   3.158   5.129  12.953  0.2855 -0.0872 -0.1612
 6079TIP3    H139728   3.098   5.199  12.979 -1.5310 -0.8200 -2.2595
 6079TIP3    H239729   3.103   5.052  12.943  2.0339 -1.4629  0.5920
 6080TIP3   OH239730   4.041   2.420  15.721 -0.4200 -0.5145  0.3905
 6080TIP3    H139731   4.016   2.496  15.775 -1.5807 -1.8156  1.7314
 6080TIP3    H239732   4.136   2.414  15.732 -0.1663  1.3199 -0.5301
 6081TIP3   OH239733   1.035   1.065  14.222  0.1126 -0.1076 -0.1580
 6081TIP3    H139734   1.130   1.064  14.210  0.0499 -0.2067 -0.6524
 6081TIP3    H239735   1.015   0.981  14.262  0.3285  0.2441  0.7081
 6082TIP3   OH239736   6.313   6.725  10.955 -0.6024 -0.3664  0.1462
 6082TIP3    H139737   6.267   6.669  10.893 -1.1447 -1.7991  1.7939
 6082TIP3    H239738   6.396   6.747  10.911 -0.1879 -2.8188 -0.3634
 6083TIP3   OH239739   0.760   6.381   4.560 -0.6132 -0.5524  0.0760
 6083TIP3    H139740   0.785   6.417   4.475 -0.6061  0.1359  0.3623
 6083TIP3    H239741   0.701   6.309   4.539 -1.1457  0.0429 -0.4926
 6084TIP3   OH239742   1.190   2.777   5.400 -0.2199 -0.6924  0.4617
 6084TIP3    H139743   1.273   2.744   5.367 -0.3073 -1.2357  0.7847
 6084TIP3    H239744   1.124   2.734   5.346 -0.4563 -3.0851  2.5924
 6085TIP3   OH239745   3.661   5.028  16.816  0.1245 -0.3446  0.3027
 6085TIP3    H139746   3.611   5.099  16.776  4.7511  2.3542 -1.0684
 6085TIP3    H239747   3.658   5.046  16.910 -0.0563  0.7911  0.0838
 6086TIP3   OH239748   6.818   2.050  11.126  0.3113 -0.3309 -0.1384
 6086TIP3    H139749   6.792   2.020  11.213  0.3363 -0.8548 -0.3100
 6086TIP3    H239750   6.740   2.092  11.091  0.2035 -0.4026  0.0174
 6087TIP3   OH239751   6.338   4.603   5.554 -0.2476 -0.1861  0.0336
 6087TIP3    H139752   6.405   4.577   5.618  0.7202  0.3742 -0.7324
 6087TIP3    H239753   6.304   4.685   5.588 -1.7771 -1.3209  1.3217
 6088TIP3   OH239754   4.705   4.886  14.121 -0.0234  0.0571 -0.2061
 6088TIP3    H139755   4.636   4.951  14.106  0.7856  0.6408 -1.4275
 6088TIP3    H239756   4.732   4.901  14.212 -0.4511  0.8513 -0.2059
 6089TIP3   OH239757   4.125   2.887   0.704  0.5071 -0.1231 -0.6964
 6089TIP3    H139758   4.158   2.896   0.793 -1.2147 -1.0859  0.0606
 6089TIP3    H239759   4.033   2.865   0.715  0.2539 -0.1442 -2.7258
 6090TIP3   OH239760   1.365   0.814  14.985 -0.0369 -0.6103  0.8138
 6090TIP3    H139761   1.323   0.728  14.982 -0.9005 -0.1724 -0.2633
 6090TIP3    H239762   1.425   0.813  14.910 -0.8010  0.0934  0.1870
 6091TIP3   OH239763   6.326   0.552  11.910  0.2976  0.4058 -0.6775
 6091TIP3    H139764   6.291   0.527  11.825 -0.9829 -1.5246  0.4004
 6091TIP3    H239765   6.260   0.609  11.948 -0.3577 -0.8820  0.1314
 6092TIP3   OH239766   0.636   4.124  16.746  0.2149 -0.7876  0.6476
 6092TIP3    H139767   0.574   4.134  16.674  1.6477  0.6623 -0.4178
 6092TIP3    H239768   0.593   4.166  16.820 -0.4263 -0.5101  0.1322
 6093TIP3   OH239769   0.728   6.376   2.835 -0.6573  0.1422 -0.2248
 6093TIP3    H139770   0.766   6.289   2.845  0.1171  0.4693 -0.2814
 6093TIP3    H239771   0.653   6.363   2.776 -0.5532 -0.4870 -0.2170
 6094TIP3   OH239772   6.152   1.002  16.759  0.7694  0.0290 -0.4988
 6094TIP3    H139773   6.193   1.080  16.721  0.0362  0.4830 -0.3690
 6094TIP3    H239774   6.189   0.996  16.847 -0.6419  1.3828  0.2141
 6095TIP3   OH239775   5.575   1.657  17.167  0.2374  0.1285 -0.2372
 6095TIP3    H139776   5.555   1.564  17.156  0.6868 -0.3138  2.3712
 6095TIP3    H239777   5.489   1.701  17.167 -0.0025 -0.3414 -0.9580
 6096TIP3   OH239778   4.068   4.376  13.253 -0.1719  0.3657  0.5113
 6096TIP3    H139779   4.099   4.441  13.317  1.4970 -0.6835  0.7848
 6096TIP3    H239780   4.113   4.399  13.172 -1.9476  1.4160 -0.2051
 6097TIP3   OH239781   2.547   6.178  13.123  0.7114  0.5121 -0.4240
 6097TIP3    H139782   2.554   6.096  13.073 -1.9942  1.0545 -1.7723
 6097TIP3    H239783   2.532   6.150  13.213 -0.1878 -0.5035 -0.8770
 6098TIP3   OH239784   3.249   1.848   6.630 -0.3828 -0.0498  0.2934
 6098TIP3    H139785   3.339   1.858   6.662  0.4220 -1.5801 -1.4186
 6098TIP3    H239786   3.225   1.759   6.654 -1.3687  0.2629  0.4935
 6099TIP3   OH239787   4.195   5.127  14.205 -0.0567 -0.0486 -0.3835
 6099TIP3    H139788   4.221   5.219  14.218  2.3997 -0.8791  0.7655
 6099TIP3    H239789   4.252   5.077  14.264 -1.6353 -2.2921 -0.7146
 6100TIP3   OH239790   5.073   3.220   1.440 -0.8877  0.1655 -0.7107
 6100TIP3    H139791   5.010   3.256   1.378 -1.3407  1.3397  0.4001
 6100TIP3    H239792   5.021   3.160   1.494 -0.5738 -0.5739 -1.2196
 6101TIP3   OH239793   5.658   3.268   4.170 -1.0590  0.2889  0.4936
 6101TIP3    H139794   5.680   3.303   4.084 -1.2174  1.2806  0.8542
 6101TIP3    H239795   5.663   3.173   4.159  1.4226  0.4417  0.0365
 6102TIP3   OH239796   2.169   6.631  13.152 -0.0335  1.4399  0.5724
 6102TIP3    H139797   2.130   6.712  13.185 -0.2062  1.3662  0.5471
 6102TIP3    H239798   2.212   6.592  13.229  0.6294  1.8976  0.4343
 6103TIP3   OH239799   3.609   6.020  12.262  0.0314 -0.3036 -0.2767
 6103TIP3    H139800   3.604   5.933  12.300  1.6470 -0.4454 -0.3568
 6103TIP3    H239801   3.613   6.005  12.167  1.2420 -0.1963 -0.2496
 6104TIP3   OH239802   1.926   3.797  12.863 -0.1980 -0.0098 -0.3565
 6104TIP3    H139803   1.972   3.880  12.852 -0.4431 -0.2035 -3.1410
 6104TIP3    H239804   1.979   3.734  12.815 -1.0836 -1.0884  0.0648
 6105TIP3   OH239805   0.258   6.401   1.477 -0.3448  0.6172 -0.0264
 6105TIP3    H139806   0.280   6.494   1.482 -1.2395  0.7803  0.9808
 6105TIP3    H239807   0.335   6.360   1.438  0.3400  1.6756  0.2126
 6106TIP3   OH239808   0.676   6.297  12.393 -0.1560 -0.2545 -0.0345
 6106TIP3    H139809   0.661   6.338  12.478 -0.2078 -1.6605  0.6472
 6106TIP3    H239810   0.759   6.250  12.403 -1.2155 -2.1881 -0.0782
 6107TIP3   OH239811   6.407   6.772   4.306 -0.9347  0.5058 -0.0818
 6107TIP3    H139812   6.365   6.697   4.348 -0.1591  0.6597  1.0127
 6107TIP3    H239813   6.474   6.800   4.369  0.6664  0.3961 -1.6934
 6108TIP3   OH239814   5.478   0.658   1.743  0.0374 -0.2337 -0.3077
 6108TIP3    H139815   5.538   0.729   1.722  0.6513 -0.6093  0.1644
 6108TIP3    H239816   5.512   0.621   1.824 -0.6714 -0.6281 -0.1888
 6109TIP3   OH239817   2.605   2.327  14.891 -0.2079  0.3825  0.0978
 6109TIP3    H139818   2.651   2.394  14.842 -1.2144  2.5508  1.9968
 6109TIP3    H239819   2.577   2.371  14.972 -2.3510 -1.8518  0.6523
 6110TIP3   OH239820   2.332   2.046   3.796  0.3263  0.4193  0.2930
 6110TIP3    H139821   2.391   2.052   3.720  0.9581  2.1028  0.8860
 6110TIP3    H239822   2.262   2.108   3.776 -0.7668 -0.8977  0.0136
 6111TIP3   OH239823   1.944   3.142   0.688 -0.0433 -0.4739  0.5137
 6111TIP3    H139824   1.925   3.181   0.603 -1.7406  1.1193  1.5761
 6111TIP3    H239825   2.010   3.199   0.726  1.3481 -1.6732 -0.0627
 6112TIP3   OH239826   6.336   6.530   3.165 -0.1931 -0.0170 -0.6266
 6112TIP3    H139827   6.404   6.596   3.152 -0.0621  0.4348  2.0131
 6112TIP3    H239828   6.381   6.446   3.157 -0.0275  0.2209 -2.3138
 6113TIP3   OH239829   6.000   0.912   3.349  0.0049  0.3027  0.8187
 6113TIP3    H139830   5.957   0.940   3.430 -1.4624  1.5746 -0.3598
 6113TIP3    H239831   5.948   0.952   3.280 -1.1291 -3.9109 -0.9108
 6114TIP3   OH239832   1.051   3.887  12.714 -0.2771 -0.1374  0.9463
 6114TIP3    H139833   0.968   3.919  12.749  1.4979  1.4067  3.9190
 6114TIP3    H239834   1.075   3.950  12.646 -1.3551 -0.3940  0.3251
 6115TIP3   OH239835   1.464   1.893   3.915 -0.3443 -0.0264  0.8155
 6115TIP3    H139836   1.402   1.849   3.856  0.6155  0.1776 -0.3566
 6115TIP3    H239837   1.486   1.825   3.979  0.4744 -1.0167 -0.4860
 6116TIP3   OH239838   5.360   5.441   2.215  0.5276 -0.2450  0.9401
 6116TIP3    H139839   5.387   5.357   2.178  0.2376  0.1034 -0.0697
 6116TIP3    H239840   5.430   5.502   2.190 -0.1171  0.1886  0.1861
 6117TIP3   OH239841   6.791   6.019   3.072 -0.2903 -0.7178  0.3512
 6117TIP3    H139842   6.719   6.071   3.036 -1.0778 -1.6891  0.5188
 6117TIP3    H239843   6.832   6.077   3.136  0.2076  0.4938 -1.0185
 6118TIP3   OH239844   3.259   4.670   0.708 -0.1344  0.4571  0.2447
 6118TIP3    H139845   3.226   4.739   0.765 -1.6287 -0.3592  0.4126
 6118TIP3    H239846   3.354   4.683   0.706 -0.1844  1.2446  1.9396
 6119TIP3   OH239847   6.287   6.279   0.353 -0.2019  0.5739 -0.0005
 6119TIP3    H139848   6.312   6.226   0.277  0.2013 -0.1517  0.6240
 6119TIP3    H239849   6.294   6.369   0.324 -0.1108  0.2958 -0.8465
 6120TIP3   OH239850   4.218   0.655   4.074 -0.5919 -0.0672 -0.1523
 6120TIP3    H139851   4.255   0.567   4.085  0.1783  0.1549 -0.9141
 6120TIP3    H239852   4.242   0.680   3.985  0.4054  1.4761  0.5348
 6121TIP3   OH239853   6.456   2.952   5.116 -0.6200  0.2619 -0.0558
 6121TIP3    H139854   6.428   2.863   5.094  0.3210  0.0612 -0.4334
 6121TIP3    H239855   6.430   2.963   5.207 -1.0803 -0.2567 -0.1187
 6122TIP3   OH239856   4.558   1.134   3.803  0.4756  0.1919  0.1626
 6122TIP3    H139857   4.485   1.163   3.748 -0.3258  0.6564  1.4631
 6122TIP3    H239858   4.522   1.130   3.891  1.7453 -0.6009  0.6621
 6123TIP3   OH239859   0.571   5.441   3.257  0.6077  0.3832  0.0192
 6123TIP3    H139860   0.546   5.489   3.336 -2.3984 -1.0425  0.0088
 6123TIP3    H239861   0.584   5.508   3.190  1.2349  1.4646  1.2051
 6124TIP3   OH239862   0.670   4.986   0.798  0.2460  0.2539 -0.2410
 6124TIP3    H139863   0.610   4.914   0.777  0.4370  0.0787 -0.1835
 6124TIP3    H239864   0.722   4.953   0.872  0.0662  0.5960  0.0419
 6125TIP3   OH239865   0.981   4.517   3.387  0.1005 -0.7423  0.2253
 6125TIP3    H139866   1.029   4.449   3.339  0.2357 -0.8336  0.4860
 6125TIP3    H239867   1.031   4.528   3.468 -0.0964 -0.5518  0.3207
 6126TIP3   OH239868   4.723   2.158   0.287  0.2286 -0.4324 -0.1630
 6126TIP3    H139869   4.702   2.227   0.350 -0.8137  0.1211 -1.1080
 6126TIP3    H239870   4.813   2.133   0.309  0.6321  1.2259  0.1795
 6127TIP3   OH239871   2.773   1.038  14.473  0.5481  0.0631  0.2769
 6127TIP3    H139872   2.705   1.008  14.534  0.6302  0.5390  0.6125
 6127TIP3    H239873   2.853   1.040  14.526  0.6720  0.2278  0.0870
 6128TIP3   OH239874   0.136   6.802   4.557  0.5196  0.0910 -0.3094
 6128TIP3    H139875   0.186   6.868   4.605  2.5404 -0.7054 -1.2765
 6128TIP3    H239876   0.130   6.837   4.468 -2.5989  1.2315  0.2922
 6129TIP3   OH239877   5.792   3.979  12.223 -0.4075 -0.1578 -0.0545
 6129TIP3    H139878   5.877   4.022  12.232 -1.2757  1.4336  0.8564
 6129TIP3    H239879   5.729   4.049  12.238 -1.8973 -1.1384 -1.6301
 6130TIP3   OH239880   4.830   5.319   4.517  0.6428  0.3569 -0.2554
 6130TIP3    H139881   4.741   5.285   4.507  0.3843  1.2576 -1.1053
 6130TIP3    H239882   4.833   5.353   4.606 -0.3344  1.6728 -0.7149
 6131TIP3   OH239883   3.952   3.867   5.777  0.0919 -0.5338  0.6644
 6131TIP3    H139884   3.897   3.818   5.839 -0.0879  0.6178  1.4373
 6131TIP3    H239885   3.893   3.932   5.740  0.6153 -0.1655  0.4847
 6132TIP3   OH239886   3.700   1.726   5.352 -0.3096  0.6373 -0.1710
 6132TIP3    H139887   3.668   1.778   5.279 -1.7055  1.3142  0.9071
 6132TIP3    H239888   3.771   1.779   5.390  0.3416  0.3348 -0.9497
 6133TIP3   OH239889   0.163   3.059   4.143 -0.1042  0.4692  0.4347
 6133TIP3    H139890   0.209   3.142   4.149  0.5856  0.4719 -3.5221
 6133TIP3    H239891   0.103   3.070   4.069 -0.2477 -2.4071  0.0676
 6134TIP3   OH239892   4.399   3.519  15.752  0.3008 -0.1182 -0.4306
 6134TIP3    H139893   4.482   3.562  15.733  0.0251  0.6605  0.1120
 6134TIP3    H239894   4.416   3.426  15.735  0.7454  0.2522 -2.1363
 6135TIP3   OH239895   6.511   6.297   0.735 -0.2325 -0.3109 -0.2030
 6135TIP3    H139896   6.554   6.263   0.656  0.5759  1.6309 -0.6279
 6135TIP3    H239897   6.566   6.265   0.807  0.1251 -0.4818 -0.5489
 6136TIP3   OH239898   4.648   0.040  13.042 -0.3036 -0.3062  0.2372
 6136TIP3    H139899   4.660   0.133  13.024 -0.9116  0.0103  1.4049
 6136TIP3    H239900   4.737   0.006  13.052 -0.0703  0.0943 -0.4146
 6137TIP3   OH239901   1.930   6.048  12.450 -0.5401 -0.8559  0.0328
 6137TIP3    H139902   2.011   6.011  12.417 -0.8883  0.1522 -1.9970
 6137TIP3    H239903   1.866   6.034  12.381 -1.5050  0.4922  0.6182
 6138TIP3   OH239904   3.954   0.356   2.829  0.1661 -0.2363 -0.0292
 6138TIP3    H139905   3.896   0.281   2.842  0.9801 -0.5027  2.1601
 6138TIP3    H239906   4.042   0.318   2.828  0.5439  0.6240  0.4763
 6139TIP3   OH239907   0.074   5.993  12.532  0.2050 -0.7785 -0.8356
 6139TIP3    H139908   0.114   5.995  12.619 -0.5244 -3.3076 -0.4127
 6139TIP3    H239909  -0.002   6.050  12.540 -1.0943 -2.6603  0.8499
 6140TIP3   OH239910   3.567   2.358  14.322  0.4255 -0.6003  0.1214
 6140TIP3    H139911   3.507   2.289  14.293  1.0846 -1.2567  0.3024
 6140TIP3    H239912   3.653   2.316  14.322  0.6999 -0.0426  1.1404
 6141TIP3   OH239913   2.382   5.174   4.115  0.4160  0.5784  0.3324
 6141TIP3    H139914   2.429   5.091   4.128 -0.7880 -0.1868 -0.1739
 6141TIP3    H239915   2.342   5.192   4.200 -2.1916 -1.1650 -0.4633
 6142TIP3   OH239916   4.469   1.920  17.259 -0.5215 -0.4161 -0.2041
 6142TIP3    H139917   4.460   1.826  17.244 -0.0356 -0.0683 -2.9003
 6142TIP3    H239918   4.548   1.929  17.313  0.0552 -1.4660 -0.8691
 6143TIP3   OH239919   4.729   1.575  10.853 -0.1201  1.0923 -0.0668
 6143TIP3    H139920   4.650   1.624  10.874 -0.2876  1.4424 -1.4500
 6143TIP3    H239921   4.770   1.624  10.781  1.6399  1.2240  0.9980
 6144TIP3   OH239922   5.413   3.705   2.569 -0.1009  0.3352 -0.0733
 6144TIP3    H139923   5.361   3.698   2.649  2.0595  0.4614  1.3894
 6144TIP3    H239924   5.486   3.644   2.583 -0.1481 -0.2754 -2.3120
 6145TIP3   OH239925   3.122   0.265   1.143 -0.3069  0.2423  0.2220
 6145TIP3    H139926   3.164   0.178   1.147 -0.3340  0.2134 -0.1100
 6145TIP3    H239927   3.047   0.252   1.086  0.6561  0.8852 -1.2117
 6146TIP3   OH239928   5.986   4.364  12.379 -0.1504  0.0725 -0.0249
 6146TIP3    H139929   5.918   4.337  12.441 -0.1494  0.6965  0.2555
 6146TIP3    H239930   5.968   4.456  12.362  1.4142  0.6246  1.1155
 6147TIP3   OH239931   1.078   0.538   6.526  0.0409  0.3764  0.3240
 6147TIP3    H139932   1.172   0.540   6.542  0.2034  0.2179 -0.6039
 6147TIP3    H239933   1.047   0.626   6.550  0.1944 -0.0026  1.9698
 6148TIP3   OH239934   0.032   4.655   3.211  0.4713  0.1372  0.0480
 6148TIP3    H139935   0.095   4.628   3.278 -0.4958  0.5419  1.1437
 6148TIP3    H239936  -0.038   4.699   3.260  0.0817  1.0623 -1.3000
 6149TIP3   OH239937   3.261   3.258   1.169 -0.1058  0.1610  0.1810
 6149TIP3    H139938   3.312   3.308   1.234 -0.6151  2.4452 -1.1340
 6149TIP3    H239939   3.174   3.297   1.172 -0.2521  0.0095 -1.5465
 6150TIP3   OH239940   5.884   0.854  13.586 -0.4176  0.7308 -0.1319
 6150TIP3    H139941   5.950   0.849  13.517 -1.8910 -3.5905 -1.4002
 6150TIP3    H239942   5.934   0.850  13.667  1.0329  0.1285 -1.0425
 6151TIP3   OH239943   3.840   1.948  15.251 -0.1319 -0.2260 -0.1123
 6151TIP3    H139944   3.776   1.923  15.317  0.1214 -0.3720  0.0796
 6151TIP3    H239945   3.874   1.865  15.219  1.6543 -0.1246  1.4453
 6152TIP3   OH239946   1.982   1.792  12.532 -0.2513 -0.0425  0.2261
 6152TIP3    H139947   1.955   1.806  12.442 -0.0374 -0.1222  0.1509
 6152TIP3    H239948   1.998   1.698  12.538 -0.8799 -0.1345  0.5131
 6153TIP3   OH239949   5.556   1.378  14.314  0.4241 -0.2233  0.0096
 6153TIP3    H139950   5.606   1.394  14.234 -1.5796  1.4446 -0.9689
 6153TIP3    H239951   5.502   1.301  14.293  0.2021 -0.0359 -0.1150
 6154TIP3   OH239952   2.735   5.750  16.418  0.2923  0.6008  0.2758
 6154TIP3    H139953   2.645   5.736  16.447 -0.3408  1.2873 -1.3083
 6154TIP3    H239954   2.729   5.752  16.322  2.0554  0.2169  0.1477
 6155TIP3   OH239955   1.886   0.387  16.698 -1.2557  0.3756  0.1708
 6155TIP3    H139956   1.875   0.323  16.768 -0.5449  0.7655  0.6504
 6155TIP3    H239957   1.811   0.446  16.708  0.7633  2.6585  3.0386
 6156TIP3   OH239958   3.978   6.032  17.213  0.0474  0.1558 -0.2463
 6156TIP3    H139959   3.971   6.127  17.226  2.8492  0.2667  0.8552
 6156TIP3    H239960   3.961   6.019  17.120  1.3710  1.9478 -0.7581
 6157TIP3   OH239961   2.586   3.164  15.335  0.2015 -0.1709 -0.1296
 6157TIP3    H139962   2.560   3.077  15.365 -1.4489  0.3177 -0.0453
 6157TIP3    H239963   2.536   3.177  15.254  0.3933  0.7110 -0.1128
 6158TIP3   OH239964   3.552   1.402   4.669 -0.3845 -0.0782 -0.4444
 6158TIP3    H139965   3.522   1.377   4.582  1.2820 -0.6234 -0.8730
 6158TIP3    H239966   3.593   1.323   4.704  3.2357  1.4614 -1.0674
 6159TIP3   OH239967   6.353   3.226  14.898 -0.0448  0.8123 -0.1963
 6159TIP3    H139968   6.377   3.270  14.817 -0.3581  1.8797  0.2873
 6159TIP3    H239969   6.270   3.266  14.924 -1.6563 -1.8421 -1.0832
 6160TIP3   OH239970   1.677   4.502   4.337  0.0207 -0.8269 -0.0966
 6160TIP3    H139971   1.635   4.448   4.270  1.0737 -0.1811 -1.2887
 6160TIP3    H239972   1.685   4.444   4.413 -1.2991 -1.5244 -0.4667
 6161TIP3   OH239973   2.794   3.366  13.296  0.4571 -0.6829  0.1410
 6161TIP3    H139974   2.723   3.403  13.348 -0.3705 -0.4334 -1.1442
 6161TIP3    H239975   2.844   3.313  13.358 -0.1106  0.1432  1.3340
 6162TIP3   OH239976   0.072   4.331   3.757  0.2134 -0.2318 -0.4007
 6162TIP3    H139977  -0.020   4.352   3.776 -1.3802 -2.7833 -4.4855
 6162TIP3    H239978   0.092   4.259   3.817 -0.7529 -0.2864 -0.1285
 6163TIP3   OH239979   3.246   3.113   4.505 -0.0425  0.8128 -0.1691
 6163TIP3    H139980   3.232   3.135   4.597 -0.1146 -0.1349  0.0525
 6163TIP3    H239981   3.234   3.018   4.501  1.4548  0.6357 -0.8832
 6164TIP3   OH239982   1.440   0.072   3.663 -0.2272  0.1194  1.0036
 6164TIP3    H139983   1.457  -0.021   3.653 -1.8434 -0.1291  0.3386
 6164TIP3    H239984   1.428   0.104   3.573  0.4979  1.0142  1.2089
 6165TIP3   OH239985   6.168   3.012   3.829  0.5789 -0.2563 -0.3403
 6165TIP3    H139986   6.259   3.040   3.818  0.8134 -1.2697 -1.0638
 6165TIP3    H239987   6.155   2.945   3.762 -1.0542  0.6872 -0.9914
 6166TIP3   OH239988   2.387   5.474  11.316 -0.0458 -0.5711 -1.0488
 6166TIP3    H139989   2.307   5.426  11.295 -0.0704 -0.3992 -1.3497
 6166TIP3    H239990   2.372   5.562  11.282 -0.6363  0.1095  0.9083
 6167TIP3   OH239991   0.593   1.523   2.083 -0.2245  0.2435  0.4624
 6167TIP3    H139992   0.660   1.457   2.102 -0.4848 -0.1168  0.1286
 6167TIP3    H239993   0.641   1.597   2.047 -0.0392 -0.1452 -0.0951
 6168TIP3   OH239994   3.033   0.333   3.324 -0.1784  0.3018  0.8068
 6168TIP3    H139995   2.995   0.346   3.237 -0.6710  1.1179  1.1314
 6168TIP3    H239996   3.125   0.311   3.308 -0.7102 -1.4096  0.0233
 6169TIP3   OH239997   1.627   3.233   3.516  0.0862  0.3787 -0.3429
 6169TIP3    H139998   1.578   3.280   3.583  0.4145  0.3109 -0.0484
 6169TIP3    H239999   1.654   3.300   3.453  0.3184  0.5411 -0.0707
 6170TIP3   OH240000   1.059   6.404  11.498 -0.3183  0.5124  0.0496
 6170TIP3    H140001   1.080   6.322  11.453  0.3015  0.2859  0.7268
 6170TIP3    H240002   1.077   6.385  11.590  1.0581  1.7899  0.0623
 6171TIP3   OH240003   2.986   2.973   3.337 -0.2346 -0.0496 -0.1188
 6171TIP3    H140004   3.009   2.880   3.343 -0.6572 -0.2901 -1.7698
 6171TIP3    H240005   3.070   3.019   3.343  0.1757 -0.6477 -0.9969
 6172TIP3   OH240006   4.344   0.966  17.029  0.2417  0.4738  0.2384
 6172TIP3    H140007   4.395   1.034  17.073  2.3725 -1.0335  0.1796
 6172TIP3    H240008   4.372   0.885  17.069 -2.6251 -0.3714  0.6197
 6173TIP3   OH240009   1.081   1.451   0.171  0.2320  0.1122 -0.4882
 6173TIP3    H140010   1.055   1.518   0.234  0.4167 -0.6420  0.4025
 6173TIP3    H240011   1.173   1.435   0.190  1.0208  1.7570 -2.6997
 6174TIP3   OH240012   0.403   2.848   2.312  0.3469  0.3273 -0.4261
 6174TIP3    H140013   0.458   2.805   2.247 -0.6082 -2.0011  0.2634
 6174TIP3    H240014   0.324   2.874   2.264  0.0263 -0.5942 -0.4130
 6175TIP3   OH240015   0.431   1.216   3.057  0.4901  0.1506  0.1963
 6175TIP3    H140016   0.457   1.125   3.067 -0.9225 -0.1476  1.0958
 6175TIP3    H240017   0.401   1.243   3.143 -1.3214  0.7681 -0.6031
 6176TIP3   OH240018   0.960   1.224   3.085  0.2889 -0.3310  0.0458
 6176TIP3    H140019   1.019   1.215   3.010  2.0156  0.7663  1.2475
 6176TIP3    H240020   0.977   1.146   3.138 -1.7912 -1.7214 -1.2385
 6177TIP3   OH240021   1.730   0.416   6.766  0.2217  0.1229 -0.3024
 6177TIP3    H140022   1.695   0.329   6.745 -1.0571  0.1217  1.7174
 6177TIP3    H240023   1.816   0.418   6.723  0.9163 -2.7209  0.8528
 6178TIP3   OH240024   6.209   5.109   5.651  0.3187  0.0209 -0.2838
 6178TIP3    H140025   6.290   5.160   5.652  1.6260 -1.9004 -2.3053
 6178TIP3    H240026   6.154   5.151   5.585  1.0760 -0.6837 -1.3777
 6179TIP3   OH240027   2.177   3.164  13.182  0.7885 -0.0366  0.1122
 6179TIP3    H140028   2.088   3.137  13.159 -0.1405  1.7510  1.5684
 6179TIP3    H240029   2.209   3.095  13.239  0.3956 -0.7472 -0.5165
 6180TIP3   OH240030   6.675   2.193  15.172  0.2467  0.2663 -0.0817
 6180TIP3    H140031   6.770   2.195  15.183  0.1210  0.1761  1.1007
 6180TIP3    H240032   6.649   2.284  15.181  0.4710  0.6502 -2.9292
 6181TIP3   OH240033   6.511   0.559  12.116 -0.6925  0.2882  0.0076
 6181TIP3    H140034   6.437   0.566  12.056 -1.4032 -0.6608  0.7434
 6181TIP3    H240035   6.473   0.520  12.195  0.3382  0.9985  0.8595
 6182TIP3   OH240036   4.533   1.976  11.750  0.2970  0.4858 -0.5243
 6182TIP3    H140037   4.535   1.883  11.728 -0.8628  0.0733  1.0114
 6182TIP3    H240038   4.618   1.993  11.790 -0.5706 -0.6315  1.8738
 6183TIP3   OH240039   5.413   3.914  15.361  0.2943 -0.4063  0.3026
 6183TIP3    H140040   5.329   3.872  15.342  0.0393 -0.1704  0.9040
 6183TIP3    H240041   5.428   3.897  15.454 -0.2024  1.5323  0.7611
 6184TIP3   OH240042   2.729   1.277  14.693 -0.6863  0.2001 -0.0166
 6184TIP3    H140043   2.744   1.204  14.752  0.2713  0.5822  0.2202
 6184TIP3    H240044   2.800   1.272  14.630 -0.2134  1.3375  0.4184
 6185TIP3   OH240045   4.705   4.988   5.589  0.4177 -0.6975  0.2342
 6185TIP3    H140046   4.644   4.917   5.568  1.5517 -1.4876 -0.4365
 6185TIP3    H240047   4.770   4.986   5.518  0.8062  0.6158  0.5347
 6186TIP3   OH240048   0.822   4.499  12.244  0.9563  0.1036  0.0920
 6186TIP3    H140049   0.784   4.439  12.180 -0.2889  1.0453 -0.0555
 6186TIP3    H240050   0.875   4.443  12.301 -1.6666 -1.4231  1.0999
 6187TIP3   OH240051   6.273   6.122  13.404  0.2162 -0.2960  0.6666
 6187TIP3    H140052   6.222   6.074  13.469 -0.5169 -0.6839 -0.1801
 6187TIP3    H240053   6.210   6.145  13.336  0.8415  0.6617  0.3914
 6188TIP3   OH240054   6.683   5.213   3.505  0.2188 -0.8253 -0.0977
 6188TIP3    H140055   6.729   5.247   3.428 -0.1984 -0.2976 -0.1155
 6188TIP3    H240056   6.591   5.210   3.479  0.0158 -0.1977  0.5304
 6189TIP3   OH240057   2.715   1.662   0.463 -0.6247 -0.0683 -0.6386
 6189TIP3    H140058   2.625   1.676   0.434 -1.1761 -1.5841  0.2638
 6189TIP3    H240059   2.743   1.747   0.498 -1.5944  0.4816 -1.1863
 6190TIP3   OH240060   5.477   6.783   5.696  0.1630 -0.0128 -0.6452
 6190TIP3    H140061   5.570   6.807   5.693  0.2698 -0.4342 -0.7698
 6190TIP3    H240062   5.436   6.836   5.629  0.0098  1.4732  0.5960
 6191TIP3   OH240063   0.824   3.448  11.180  0.5909 -0.3210 -0.1354
 6191TIP3    H140064   0.789   3.426  11.094  1.2388 -1.8688 -0.0109
 6191TIP3    H240065   0.752   3.432  11.241  0.9398 -1.7312 -0.0905
 6192TIP3   OH240066   0.246   3.614  11.865 -0.0789  0.5584  0.6250
 6192TIP3    H140067   0.169   3.558  11.865  0.5752 -0.3672  0.7688
 6192TIP3    H240068   0.286   3.599  11.951  0.7919  0.2832  0.1750
 6193TIP3   OH240069   6.557   2.286   1.099 -0.3863 -0.5131 -0.1785
 6193TIP3    H140070   6.514   2.269   1.015 -1.9321  0.2559  0.4203
 6193TIP3    H240071   6.539   2.379   1.116  1.6114 -0.1649  0.0641
 6194TIP3   OH240072   1.858   5.243  13.690 -0.5047 -0.1677  0.3168
 6194TIP3    H140073   1.882   5.191  13.613 -0.0985 -0.0807  0.3843
 6194TIP3    H240074   1.932   5.233  13.750 -0.2982  0.7112  0.2184
 6195TIP3   OH240075   2.697   5.769  15.563  0.2729 -0.2443  0.1767
 6195TIP3    H140076   2.741   5.686  15.580  2.0396  0.5325 -0.4712
 6195TIP3    H240077   2.610   5.744  15.532  0.6242 -1.8389  0.4346
 6196TIP3   OH240078   4.771   4.880   4.335 -0.0581 -0.7293  0.8742
 6196TIP3    H140079   4.823   4.952   4.370 -2.1265  0.8639  0.8080
 6196TIP3    H240080   4.682   4.898   4.366 -0.8983 -2.3856 -0.4878
 6197TIP3   OH240081   5.088   3.455  16.199 -0.1583  0.2598 -0.2698
 6197TIP3    H140082   5.158   3.408  16.154 -0.3201  0.7102 -0.9858
 6197TIP3    H240083   5.028   3.386  16.228  0.8893 -0.1797  0.8986
 6198TIP3   OH240084   1.323   6.617   1.849 -0.5855 -0.2932 -0.0509
 6198TIP3    H140085   1.262   6.543   1.854 -0.8168 -0.0976  0.0348
 6198TIP3    H240086   1.333   6.644   1.940  0.3337 -0.8971  0.0318
 6199TIP3   OH240087   5.705   1.188   6.007  0.0459 -0.5745  0.2920
 6199TIP3    H140088   5.648   1.167   5.933 -0.0839  0.3419  0.1231
 6199TIP3    H240089   5.718   1.105   6.052  0.7994 -1.2809 -1.2274
 6200TIP3   OH240090   2.944   1.140   5.739 -0.0425 -0.3673  0.3779
 6200TIP3    H140091   2.941   1.219   5.685  3.9367 -0.9483 -0.8118
 6200TIP3    H240092   2.923   1.069   5.679 -2.0978 -0.4002  1.1071
 6201TIP3   OH240093   5.377   3.708   1.458 -0.3045  0.2613  0.2502
 6201TIP3    H140094   5.417   3.786   1.420 -1.5925  1.4398  1.2693
 6201TIP3    H240095   5.289   3.705   1.420  0.0530 -1.2418 -0.5089
 6202TIP3   OH240096   3.128   3.116   4.955 -0.0172 -0.2611 -0.3055
 6202TIP3    H140097   3.136   3.175   5.030  0.1567  0.9873 -1.2688
 6202TIP3    H240098   3.064   3.050   4.982 -0.1919  0.3528  0.8179
 6203TIP3   OH240099   6.513   2.587  15.996  0.2021 -0.1332 -0.4297
 6203TIP3    H140100   6.479   2.586  16.085 -0.3429 -2.1198 -0.6510
 6203TIP3    H240101   6.438   2.563  15.941  0.8398 -0.1078 -1.3198
 6204TIP3   OH240102   3.919   3.456   2.224  0.9440 -0.0191  0.2457
 6204TIP3    H140103   3.867   3.427   2.299  1.2181  0.9833  0.8281
 6204TIP3    H240104   3.880   3.540   2.198  2.1910  0.6844  0.6154
 6205TIP3   OH240105   3.692   2.514   4.841 -0.1916 -0.2399  0.0851
 6205TIP3    H140106   3.600   2.536   4.858 -0.5565 -1.8590  0.3608
 6205TIP3    H240107   3.717   2.569   4.767 -0.5621  2.2030  1.7076
 6206TIP3   OH240108   3.854   1.502  16.700  0.0770 -0.3100  0.6094
 6206TIP3    H140109   3.773   1.452  16.694 -0.0593 -0.3366  2.3709
 6206TIP3    H240110   3.884   1.511  16.610 -1.8234 -0.3984 -0.0425
 6207TIP3   OH240111   1.596   2.513   0.164  0.1743  0.0012 -0.4826
 6207TIP3    H140112   1.558   2.601   0.168  0.9050  0.2543  1.2535
 6207TIP3    H240113   1.633   2.507   0.075  0.8561  1.7523 -0.3404
 6208TIP3   OH240114   2.715   5.893  13.351  0.0162  0.1033  0.2634
 6208TIP3    H140115   2.648   5.937  13.402 -0.6615 -0.2519 -0.3144
 6208TIP3    H240116   2.789   5.883  13.411 -1.3691 -1.8548  1.7292
 6209TIP3   OH240117   4.923   5.938   5.961 -0.5659  0.1683 -0.4192
 6209TIP3    H140118   4.979   6.011   5.935 -0.5555 -0.4086 -2.0712
 6209TIP3    H240119   4.981   5.878   6.007 -0.1582  0.3093 -0.7467
 6210TIP3   OH240120   4.086   1.682   3.602 -0.3966 -0.2542 -0.3038
 6210TIP3    H140121   4.016   1.733   3.644 -0.1696 -0.4759  0.3596
 6210TIP3    H240122   4.086   1.599   3.651 -1.4538 -1.3049 -2.0077
 6211TIP3   OH240123   5.338   1.687  13.717  0.7562 -0.0251 -0.1927
 6211TIP3    H140124   5.419   1.654  13.677  1.9694 -0.7200  2.7516
 6211TIP3    H240125   5.285   1.608  13.729  0.0462  0.2962 -1.1370
 6212TIP3   OH240126   2.422   2.827   0.751 -0.3798  0.6159 -0.5415
 6212TIP3    H140127   2.450   2.915   0.726  1.1290 -0.3067 -2.2071
 6212TIP3    H240128   2.487   2.798   0.815 -0.4534  0.4081 -0.5611
 6213TIP3   OH240129   6.431   2.075  15.193 -0.0455  0.4789 -0.4084
 6213TIP3    H140130   6.515   2.121  15.183  0.2595  0.0101 -0.0091
 6213TIP3    H240131   6.420   2.029  15.110  1.1648 -1.2223  0.3467
 6214TIP3   OH240132   4.233   3.326  12.744  0.5348  0.1292  0.0002
 6214TIP3    H140133   4.152   3.284  12.716 -0.1304  1.7742 -0.5367
 6214TIP3    H240134   4.288   3.253  12.774 -1.7272 -0.8629  1.8799
 6215TIP3   OH240135   6.315   6.699   0.151 -0.0737 -0.3166  0.1963
 6215TIP3    H140136   6.389   6.642   0.173  0.2025 -0.3025 -0.6959
 6215TIP3    H240137   6.248   6.676   0.215  0.3653 -0.9972  0.4193
 6216TIP3   OH240138   4.677   0.160   5.448  0.2063 -0.7005 -0.1337
 6216TIP3    H140139   4.766   0.137   5.475  0.9577  1.0263 -1.0553
 6216TIP3    H240140   4.625   0.155   5.528  1.6202  0.5638  0.8979
 6217TIP3   OH240141   1.713   4.029  16.404 -0.3798  0.4776  0.0294
 6217TIP3    H140142   1.684   3.946  16.365 -2.4885 -0.1110  2.6937
 6217TIP3    H240143   1.706   4.093  16.333  1.9417 -1.6830 -2.2827
 6218TIP3   OH240144   0.257   0.892   5.555 -0.6880 -0.0253  0.3875
 6218TIP3    H140145   0.261   0.817   5.615  0.6945 -0.2158  0.0783
 6218TIP3    H240146   0.291   0.965   5.606 -1.1620  0.2019  0.3853
 6219TIP3   OH240147   4.339   0.404   4.060  0.0078  0.6146 -0.2865
 6219TIP3    H140148   4.409   0.385   3.998 -0.7424 -1.0862 -0.6376
 6219TIP3    H240149   4.298   0.319   4.078 -1.4491  1.4557  0.5325
 6220TIP3   OH240150   0.575   2.613  15.058 -0.2311  0.1591 -0.4461
 6220TIP3    H140151   0.518   2.536  15.050 -0.2647  0.1492 -0.1415
 6220TIP3    H240152   0.640   2.603  14.989  1.4981 -1.6194  1.3937
 6221TIP3   OH240153   2.046   1.306  11.932 -0.5466 -0.1120 -0.3530
 6221TIP3    H140154   2.092   1.346  12.006 -1.2630  1.8003 -0.9179
 6221TIP3    H240155   1.970   1.264  11.971 -1.2668  1.4454 -0.0665
 6222TIP3   OH240156   1.295   4.315  15.866  0.1363 -0.1229  0.0872
 6222TIP3    H140157   1.210   4.355  15.886  0.4576  0.5636  0.0845
 6222TIP3    H240158   1.273   4.228  15.832 -0.5110 -0.4265  1.2443
 6223TIP3   OH240159   2.792   1.351   2.244 -0.2836 -0.2702  0.5106
 6223TIP3    H140160   2.829   1.359   2.332  0.1160 -0.9714  0.4165
 6223TIP3    H240161   2.732   1.276   2.250  0.2416 -0.7377  0.0300
 6224TIP3   OH240162   2.860   1.663  17.227  0.4574  0.0142 -0.0999
 6224TIP3    H140163   2.798   1.603  17.268  2.3376 -0.8442  1.6238
 6224TIP3    H240164   2.946   1.625  17.248  1.6737  2.9847  0.5495
 6225TIP3   OH240165   1.612   2.456  16.986 -0.2999 -0.4809  0.3509
 6225TIP3    H140166   1.684   2.516  17.008  0.1108  0.2142 -2.6731
 6225TIP3    H240167   1.554   2.508  16.929 -1.4634 -2.0485  0.0732
 6226TIP3   OH240168   4.475   6.090   5.529  0.3426  0.6507 -0.1777
 6226TIP3    H140169   4.505   6.000   5.515  1.8875  1.3434 -1.5629
 6226TIP3    H240170   4.440   6.091   5.617  1.8678 -0.9180  0.4729
 6227TIP3   OH240171   5.828   1.701  16.817 -0.5417  0.4009  0.3321
 6227TIP3    H140172   5.804   1.712  16.725 -0.3698 -0.2578  0.2045
 6227TIP3    H240173   5.904   1.642  16.815  0.7787  2.0525  0.7626
 6228TIP3   OH240174   2.062   2.557   6.061 -0.0445 -0.0952 -0.3517
 6228TIP3    H140175   1.973   2.524   6.047 -0.2223 -0.5793  1.7274
 6228TIP3    H240176   2.094   2.507   6.137  1.9968  0.0839 -1.0782
 6229TIP3   OH240177   3.778   2.613   0.515  0.4446  0.0674  0.1638
 6229TIP3    H140178   3.860   2.597   0.468  0.2971 -0.3602  0.0487
 6229TIP3    H240179   3.729   2.531   0.505  0.4893 -0.0916  1.2225
 6230TIP3   OH240180   5.830   2.917  11.336 -0.0475  0.4670  0.2055
 6230TIP3    H140181   5.924   2.920  11.351 -0.0255  1.8409 -0.1321
 6230TIP3    H240182   5.821   2.917  11.241 -0.3978  0.5582  0.2375
 6231TIP3   OH240183   3.964   0.809  12.935  0.0810  0.3323 -0.0098
 6231TIP3    H140184   3.979   0.772  13.022  0.0652 -0.9998 -0.5648
 6231TIP3    H240185   4.042   0.861  12.918 -0.2345  1.1939  1.0956
 6232TIP3   OH240186   1.494   0.341  11.808  0.3108 -0.1772 -0.3617
 6232TIP3    H140187   1.488   0.280  11.881 -0.4743  1.6969  1.1762
 6232TIP3    H240188   1.588   0.356  11.797  0.5892 -2.4894 -1.5109
 6233TIP3   OH240189   3.442   0.308  11.857 -0.3901 -0.2228 -0.5544
 6233TIP3    H140190   3.426   0.235  11.797 -0.1239  0.0962 -1.0233
 6233TIP3    H240191   3.509   0.360  11.813 -1.7300  1.1800 -1.0032
 6234TIP3   OH240192   4.956   2.799  14.007  0.0461  0.3298 -0.4631
 6234TIP3    H140193   4.928   2.751  14.085 -0.4918 -0.2425 -0.9985
 6234TIP3    H240194   5.025   2.745  13.970 -0.2655  0.1857 -0.8337
 6235TIP3   OH240195   4.938   6.285  11.812  0.1239  0.2602 -0.1013
 6235TIP3    H140196   4.889   6.213  11.852  0.5207  0.0692  0.0457
 6235TIP3    H240197   4.936   6.268  11.718 -0.6733  0.6217 -0.1510
 6236TIP3   OH240198   2.934   4.650   0.240  0.3774  0.6198 -0.2249
 6236TIP3    H140199   2.873   4.723   0.231  0.3738  0.8018  1.1303
 6236TIP3    H240200   2.970   4.637   0.152  0.0293  1.9441 -0.5732
 6237TIP3   OH240201   0.086   0.097   0.732  0.0188  1.1115  0.0132
 6237TIP3    H140202   0.047   0.135   0.810 -0.1785  0.0531  0.4448
 6237TIP3    H240203   0.118   0.011   0.760  0.6212  1.0275 -0.8833
 6238TIP3   OH240204   6.638   3.595   0.160  0.2228 -0.0378 -0.5578
 6238TIP3    H140205   6.619   3.677   0.113  1.4247 -0.0445 -1.0645
 6238TIP3    H240206   6.731   3.600   0.180 -0.2977  0.0412  1.9963
 6239TIP3   OH240207   3.205   3.883  16.350  0.0859  0.1387 -0.1695
 6239TIP3    H140208   3.264   3.889  16.275 -0.4555 -2.3242 -0.8545
 6239TIP3    H240209   3.118   3.897  16.312 -0.0599  0.3968  0.2571
 6240TIP3   OH240210   6.125   5.369  16.147 -0.2680 -0.0423 -0.7482
 6240TIP3    H140211   6.096   5.298  16.089  0.6717 -0.0533 -1.2184
 6240TIP3    H240212   6.217   5.348  16.165 -0.3779  0.3128  0.2288
 6241TIP3   OH240213   3.083   1.381  17.144 -0.3387  0.2096  0.3954
 6241TIP3    H140214   3.110   1.457  17.195  0.4687  1.2678 -1.5490
 6241TIP3    H240215   3.064   1.417  17.057 -2.2005 -1.4525  0.0827
 6242TIP3   OH240216   0.982   1.070  16.815  0.0054 -0.2385  0.1262
 6242TIP3    H140217   1.043   1.034  16.879  1.0468  0.6615 -0.3408
 6242TIP3    H240218   1.005   1.026  16.733 -0.0488  0.0165 -0.0278
 6243TIP3   OH240219   4.272   2.352  16.299  0.4181 -0.0968 -0.2846
 6243TIP3    H140220   4.303   2.271  16.340 -1.3178  0.2348  1.7677
 6243TIP3    H240221   4.252   2.327  16.209 -0.7615 -2.1510  0.5023
 6244TIP3   OH240222   5.867   4.362  12.913  0.2860 -0.5609 -0.2281
 6244TIP3    H140223   5.911   4.315  12.842  1.1713 -0.8142  0.4790
 6244TIP3    H240224   5.790   4.309  12.933 -0.5430  0.0691 -1.7124
 6245TIP3   OH240225   5.238   6.380   1.775  0.3939 -0.2742  0.2248
 6245TIP3    H140226   5.265   6.343   1.859  1.6467  0.7608  0.2903
 6245TIP3    H240227   5.240   6.475   1.789 -0.6473 -0.1270 -0.5894
 6246TIP3   OH240228   6.428   2.932  10.939 -0.2585  0.1148 -0.4799
 6246TIP3    H140229   6.437   2.837  10.951 -1.7037  0.2669  2.1884
 6246TIP3    H240230   6.475   2.950  10.858  2.0294 -2.5427  0.1708
 6247TIP3   OH240231   5.301   3.567  16.668 -0.7645 -0.3114  0.4196
 6247TIP3    H140232   5.273   3.554  16.578 -0.2448  1.5942 -0.0402
 6247TIP3    H240233   5.230   3.530  16.721 -1.4859 -0.6208 -0.7486
 6248TIP3   OH240234   5.424   3.078  14.893  0.1974 -0.1274 -0.4270
 6248TIP3    H140235   5.425   3.055  14.986  1.3383 -2.1329 -0.8917
 6248TIP3    H240236   5.383   3.164  14.889  2.1924  0.9960  2.1626
 6249TIP3   OH240237   4.971   2.592  12.829  0.5169  0.4999  0.7943
 6249TIP3    H140238   4.911   2.617  12.759  1.1125 -0.4552 -0.0738
 6249TIP3    H240239   5.015   2.514  12.796  2.4552  1.3651  1.2869
 6250TIP3   OH240240   3.203   4.952   5.701 -0.3815 -0.4172 -0.3085
 6250TIP3    H140241   3.150   5.031   5.692  1.0258  0.6434  0.4303
 6250TIP3    H240242   3.237   4.935   5.613  0.1540  0.4089 -0.2603
 6251TIP3   OH240243   3.661   4.756  14.784  0.0033 -0.1685 -0.6862
 6251TIP3    H140244   3.668   4.821  14.854 -1.6414 -0.7351  0.0135
 6251TIP3    H240245   3.662   4.671  14.829 -0.7693 -0.5495 -1.3610
 6252TIP3   OH240246   4.505   0.547   2.549  0.5992 -0.5260 -0.0885
 6252TIP3    H140247   4.589   0.583   2.577  1.5135 -1.4272 -1.5933
 6252TIP3    H240248   4.444   0.620   2.555  1.7258  0.4075  0.0372
 6253TIP3   OH240249   0.139   4.340   0.721 -0.1597 -0.1771 -0.3041
 6253TIP3    H140250   0.059   4.345   0.669 -0.3698 -0.5767 -0.0201
 6253TIP3    H240251   0.209   4.359   0.659 -0.2205 -2.8067 -1.2468
 6254TIP3   OH240252   4.018   4.182  16.657  0.3487  0.1847  0.2840
 6254TIP3    H140253   4.014   4.164  16.563  0.2916 -0.9249  0.4933
 6254TIP3    H240254   3.957   4.119  16.696  0.0132  0.9558  1.0259
 6255TIP3   OH240255   3.219   3.398  16.948 -0.0411 -0.2838 -0.5779
 6255TIP3    H140256   3.242   3.376  16.858 -1.8554  0.1071 -1.1541
 6255TIP3    H240257   3.262   3.331  17.001  1.4849 -0.1926 -1.6831
 6256TIP3   OH240258   3.382   5.259  16.198 -0.1052  0.0560 -0.2923
 6256TIP3    H140259   3.341   5.196  16.138  0.6651 -1.2956  0.5806
 6256TIP3    H240260   3.406   5.208  16.275 -0.2577  1.5965  0.8131
 6257TIP3   OH240261   2.999   5.908   4.237 -0.8403 -0.1159  0.2262
 6257TIP3    H140262   3.033   5.941   4.320 -0.2717 -1.8633  0.7126
 6257TIP3    H240263   3.073   5.863   4.196 -1.3534 -0.0279 -0.8199
 6258TIP3   OH240264   3.098   6.756  11.066 -0.1675  0.6568 -0.1694
 6258TIP3    H140265   3.166   6.769  11.131  1.2882 -1.3982 -1.2443
 6258TIP3    H240266   3.117   6.820  10.998  1.5171 -0.7594 -1.0826
 6259TIP3   OH240267   0.869   0.220  11.671 -0.1665  0.2924  0.0524
 6259TIP3    H140268   0.830   0.139  11.703  0.6910 -0.7154 -1.4104
 6259TIP3    H240269   0.861   0.281  11.744  0.5082 -1.5362  1.6868
 6260TIP3   OH240270   1.185   5.869  16.861  0.1888 -0.1965  0.5988
 6260TIP3    H140271   1.236   5.948  16.843 -2.2261  0.5887 -3.4724
 6260TIP3    H240272   1.097   5.901  16.878 -0.0816 -1.8583  2.5093
 6261TIP3   OH240273   0.474   1.213   1.189  0.0027 -0.3359 -1.2206
 6261TIP3    H140274   0.401   1.265   1.220  1.4608  0.5272  0.9011
 6261TIP3    H240275   0.458   1.125   1.224  0.2895  0.0003 -0.2431
 6262TIP3   OH240276   3.327   5.562  13.524 -0.2648 -0.8140  0.2694
 6262TIP3    H140277   3.283   5.611  13.594 -0.1152 -0.1929 -0.0741
 6262TIP3    H240278   3.346   5.477  13.564  0.6487 -0.1466  1.2878
 6263TIP3   OH240279   0.681   6.426   3.497 -0.3432  0.1173 -0.1102
 6263TIP3    H140280   0.636   6.425   3.413  0.3884  2.9373 -0.5901
 6263TIP3    H240281   0.763   6.379   3.482 -1.3860 -1.7029 -0.2340
 6264TIP3   OH240282   6.648   3.234  13.737 -0.0862 -0.0045 -0.0995
 6264TIP3    H140283   6.669   3.184  13.658  1.1171  1.3133 -0.6604
 6264TIP3    H240284   6.607   3.314  13.704  1.3454  1.0214  0.5054
 6265TIP3   OH240285   2.335   3.525  10.964 -0.2411 -0.7447 -0.0609
 6265TIP3    H140286   2.430   3.537  10.965 -0.2144 -1.0455  0.9882
 6265TIP3    H240287   2.317   3.464  11.035 -1.6602  2.5314  2.5632
 6266TIP3   OH240288   5.823   5.604  15.875 -0.2437 -0.3207  0.2650
 6266TIP3    H140289   5.861   5.621  15.789 -1.7439  1.2063 -0.1248
 6266TIP3    H240290   5.899   5.590  15.932  0.7924 -0.5145 -1.1187
 6267TIP3   OH240291   6.773   4.157  11.752 -0.4366 -0.3065 -0.1632
 6267TIP3    H140292   6.693   4.198  11.720 -0.1264  0.3837 -0.0624
 6267TIP3    H240293   6.743   4.093  11.817 -0.8810  0.2298  0.1622
 6268TIP3   OH240294   4.102   5.447   1.611  0.3600 -0.5023  0.1799
 6268TIP3    H140295   4.090   5.467   1.704  1.4208 -0.4880  0.3183
 6268TIP3    H240296   4.047   5.370   1.596 -0.7193  0.1913  0.5479
 6269TIP3   OH240297   0.094   4.307   4.705  0.0655 -0.2104  0.4207
 6269TIP3    H140298   0.056   4.223   4.680 -2.3532  0.9145  0.1239
 6269TIP3    H240299   0.030   4.345   4.765  1.3453  1.2295  0.9073
 6270TIP3   OH240300   0.470   2.683   0.963  0.1159 -0.2028 -0.1217
 6270TIP3    H140301   0.565   2.690   0.949  0.2379 -0.8137  0.4162
 6270TIP3    H240302   0.456   2.591   0.986 -0.7463 -0.3730 -1.2841
 6271TIP3   OH240303   5.420   3.960  13.521 -0.3736  0.5001  0.3274
 6271TIP3    H140304   5.496   3.908  13.494 -1.0097  1.0615 -2.6880
 6271TIP3    H240305   5.351   3.895  13.534 -0.3642  0.3162 -0.5260
 6272TIP3   OH240306   4.741   5.250   1.717  0.7197  0.6261 -0.0084
 6272TIP3    H140307   4.700   5.177   1.763 -1.0391  0.8262 -1.1814
 6272TIP3    H240308   4.788   5.298   1.786 -0.6884  0.1425  1.3388
 6273TIP3   OH240309   0.987   1.087  13.568  0.3728  0.7506  0.4383
 6273TIP3    H140310   0.961   1.163  13.620 -0.0102  0.3114  0.9016
 6273TIP3    H240311   1.052   1.120  13.507 -0.1049  1.5338  0.3543
 6274TIP3   OH240312   4.195   6.537   0.989  0.1399 -0.4636  0.2120
 6274TIP3    H140313   4.264   6.484   0.950  0.9418  0.5175  0.2707
 6274TIP3    H240314   4.210   6.625   0.955 -0.2240  0.0479  1.3455
 6275TIP3   OH240315   1.360   0.409  16.675 -0.0050 -0.1911 -0.3342
 6275TIP3    H140316   1.309   0.457  16.610 -0.5739  0.0395  0.2881
 6275TIP3    H240317   1.362   0.465  16.752  1.2289 -0.1779 -0.3667
 6276TIP3   OH240318   3.628   2.023  12.522  0.7258 -0.1134  0.3902
 6276TIP3    H140319   3.713   2.060  12.499 -0.7304  1.4433 -2.9839
 6276TIP3    H240320   3.580   2.096  12.561 -0.2793  0.1048 -1.1837
 6277TIP3   OH240321   4.179   3.289  11.089  0.0753 -0.0615  0.2248
 6277TIP3    H140322   4.137   3.375  11.087  2.0520  0.9355 -0.7109
 6277TIP3    H240323   4.262   3.305  11.134 -0.7214 -2.0686  2.4725
 6278TIP3   OH240324   3.825   5.611   3.664  0.1434  0.0383 -0.2838
 6278TIP3    H140325   3.877   5.655   3.730  0.2399 -1.4771  0.6837
 6278TIP3    H240326   3.882   5.542   3.630 -0.6471 -0.5840 -0.3822
 6279TIP3   OH240327   6.184   5.951  13.093 -0.1275 -0.2045 -0.4954
 6279TIP3    H140328   6.141   6.029  13.129 -0.1950 -0.0958 -0.8036
 6279TIP3    H240329   6.112   5.896  13.062 -0.1339 -0.8742  0.6684
 6280TIP3   OH240330   2.612   5.719   4.087  0.0804 -0.0894 -0.6415
 6280TIP3    H140331   2.586   5.699   4.177 -0.9393 -0.9524 -1.1175
 6280TIP3    H240332   2.655   5.804   4.093 -1.1383  0.4662  0.4727
 6281TIP3   OH240333   1.219   1.343   4.763 -0.0661 -0.0346 -0.2874
 6281TIP3    H140334   1.290   1.368   4.704 -1.2575 -1.8231 -2.5702
 6281TIP3    H240335   1.242   1.254   4.790  0.2119  0.5881  1.5884
 6282TIP3   OH240336   1.462   6.253   0.291 -0.4972  0.0594 -0.1101
 6282TIP3    H140337   1.481   6.227   0.201  0.6652 -1.7487  0.6102
 6282TIP3    H240338   1.491   6.344   0.297  0.1350 -0.0519 -1.3627
 6283TIP3   OH240339   4.876   6.095  16.413  0.9528  0.4406  0.3762
 6283TIP3    H140340   4.792   6.057  16.441  1.2044 -0.2432  0.2268
 6283TIP3    H240341   4.852   6.173  16.364  0.2933 -1.0245 -1.6649
 6284TIP3   OH240342   5.325   4.429   3.242 -0.1327 -0.5034  0.7622
 6284TIP3    H140343   5.297   4.378   3.166  2.4361 -3.4269  1.6937
 6284TIP3    H240344   5.419   4.438   3.232 -0.0098  0.6799  2.6859
 6285TIP3   OH240345   5.441   4.083   5.329  0.2155  0.3219 -0.0005
 6285TIP3    H140346   5.488   3.999   5.326  0.2829  0.4181 -1.8973
 6285TIP3    H240347   5.352   4.059   5.355  0.3413 -0.2847 -0.1094
 6286TIP3   OH240348   0.986   2.981  16.573 -0.0777 -0.2565  0.5192
 6286TIP3    H140349   1.023   2.898  16.546  0.2045 -0.1471  0.5698
 6286TIP3    H240350   0.911   2.957  16.628 -1.2186 -0.4736 -1.1119
 6287TIP3   OH240351   1.421   0.407  13.891 -0.0990  0.0536 -0.6443
 6287TIP3    H140352   1.375   0.432  13.971  0.6978 -1.0911  0.1916
 6287TIP3    H240353   1.407   0.480  13.831 -0.9140  0.8116  0.4530
 6288TIP3   OH240354   1.499   0.913  11.133 -0.4439 -0.2335  0.0665
 6288TIP3    H140355   1.545   0.921  11.049  0.4069 -1.2952  0.4133
 6288TIP3    H240356   1.505   0.820  11.155 -1.5230 -0.1334  0.8253
 6289TIP3   OH240357   2.537   5.236  13.839 -0.5118 -0.2083 -0.1093
 6289TIP3    H140358   2.469   5.276  13.894 -0.7564  2.2981 -2.1460
 6289TIP3    H240359   2.531   5.143  13.857 -3.2054  0.1757  1.1704
 6290TIP3   OH240360   4.378   0.274  13.739 -0.1611  0.6880 -0.0434
 6290TIP3    H140361   4.474   0.278  13.735 -0.0183 -0.6600  1.8745
 6290TIP3    H240362   4.351   0.366  13.747  1.0622  0.9382  1.3716
 6291TIP3   OH240363   3.576   4.797   3.091  0.0363 -1.0015 -0.2995
 6291TIP3    H140364   3.611   4.875   3.133  1.8036 -0.5383 -2.5449
 6291TIP3    H240365   3.524   4.755   3.160 -0.6874  1.9385  1.0528
 6292TIP3   OH240366   3.872   0.835   0.366  0.1194  0.1759 -0.3924
 6292TIP3    H140367   3.953   0.855   0.319 -0.8797  0.5712 -1.9542
 6292TIP3    H240368   3.805   0.887   0.323 -1.2974 -1.4259 -0.1819
 6293TIP3   OH240369   0.227   1.568  14.879 -0.0343  0.3662  0.3900
 6293TIP3    H140370   0.258   1.626  14.949  0.6627  0.3020  0.1403
 6293TIP3    H240371   0.299   1.507  14.865 -0.0726  0.5359 -0.5680
 6294TIP3   OH240372   5.833   4.534  12.142  0.1379 -0.0611  0.3159
 6294TIP3    H140373   5.749   4.572  12.169  0.2413  0.3143  0.1148
 6294TIP3    H240374   5.843   4.560  12.051  0.5212 -0.0105  0.3697
 6295TIP3   OH240375   4.277   0.550   0.636 -0.2685 -0.1062 -0.2785
 6295TIP3    H140376   4.334   0.539   0.560 -1.0698 -2.2943 -0.6119
 6295TIP3    H240377   4.223   0.471   0.637 -1.1491  0.4779  1.8401
 6296TIP3   OH240378   0.890   2.065  13.549 -0.3242  0.4424  0.4739
 6296TIP3    H140379   0.942   2.101  13.477 -0.6382  0.4346  0.2398
 6296TIP3    H240380   0.822   2.130  13.565 -0.2017  0.4849  0.8264
 6297TIP3   OH240381   0.962   2.939  11.014 -0.3676  0.1335 -0.0179
 6297TIP3    H140382   0.886   2.886  10.991 -2.2997  2.5201  0.6764
 6297TIP3    H240383   0.957   3.015  10.956  0.9296  0.8173  0.7386
 6298TIP3   OH240384   0.742   6.820  11.746  0.3091 -0.1912 -0.3900
 6298TIP3    H140385   0.745   6.795  11.654 -2.5936 -1.1569 -0.2997
 6298TIP3    H240386   0.731   6.737  11.793 -1.2915  0.5218  0.5557
 6299TIP3   OH240387   4.742   5.483   2.972  0.2128  0.3840  0.2471
 6299TIP3    H140388   4.658   5.507   2.932  0.7255  2.5035  0.4003
 6299TIP3    H240389   4.725   5.481   3.066  0.0338 -0.4115  0.1978
 6300TIP3   OH240390   3.235   5.501   5.086 -0.5573  0.2701  0.0312
 6300TIP3    H140391   3.230   5.587   5.046  1.3719  0.9102  1.0658
 6300TIP3    H240392   3.253   5.441   5.014 -0.6274  0.9211 -0.5256
 6301TIP3   OH240393   1.539   5.087   0.492 -0.2909  0.3801  0.4302
 6301TIP3    H140394   1.471   5.153   0.492 -1.4069 -0.7531  1.1916
 6301TIP3    H240395   1.534   5.046   0.578  0.4514 -0.6262  0.0089
 6302TIP3   OH240396   3.854   1.745  11.328  0.0249 -0.2930  0.5623
 6302TIP3    H140397   3.832   1.795  11.407 -1.3086 -0.9940  0.6304
 6302TIP3    H240398   3.862   1.811  11.259  1.1439  0.3189  1.2479
 6303TIP3   OH240399   0.406   5.181  11.499  0.5144  0.4957 -0.5904
 6303TIP3    H140400   0.472   5.115  11.478  0.4513  0.0400  0.6371
 6303TIP3    H240401   0.335   5.165  11.436 -1.0669 -2.9147  1.8612
 6304TIP3   OH240402   4.714   0.402   1.780 -0.5397  0.1731  0.1206
 6304TIP3    H140403   4.809   0.401   1.768 -0.5432  2.8425 -0.4350
 6304TIP3    H240404   4.683   0.322   1.737  1.7319 -2.5583  3.3290
 6305TIP3   OH240405   3.935   2.921  13.195 -0.1267  0.0359  0.6049
 6305TIP3    H140406   3.992   2.850  13.223 -0.9286 -1.1463 -0.7118
 6305TIP3    H240407   3.888   2.886  13.119  0.3263  2.3561 -0.8051
 6306TIP3   OH240408   3.401   5.072  16.377 -0.3733 -0.2836 -0.2207
 6306TIP3    H140409   3.379   4.981  16.360  0.6420 -0.7097  0.6720
 6306TIP3    H240410   3.339   5.099  16.445  0.1664 -0.7047  0.4468
 6307TIP3   OH240411   3.950   2.489   0.956 -0.6265  0.3124 -0.6175
 6307TIP3    H140412   3.877   2.461   0.902 -2.8783  0.0858  2.3906
 6307TIP3    H240413   3.916   2.488   1.045  3.0124  0.3575  0.8887
 6308TIP3   OH240414   0.008   2.854  15.701  0.1244 -0.3589 -0.8865
 6308TIP3    H140415   0.021   2.933  15.649 -1.8423  1.3444  1.0771
 6308TIP3    H240416   0.070   2.791  15.665  1.6164  2.0079 -2.6492
 6309TIP3   OH240417   2.818   3.966   3.956 -0.2060 -0.2381  0.3271
 6309TIP3    H140418   2.902   3.972   3.910 -0.3567  0.1867  0.1057
 6309TIP3    H240419   2.840   3.928   4.041  0.2864  0.3234  0.4595
 6310TIP3   OH240420   0.186   1.689   2.001 -0.1519 -0.0457  0.6589
 6310TIP3    H140421   0.215   1.757   2.062  1.8507 -2.6396  2.7338
 6310TIP3    H240422   0.114   1.645   2.047  0.0694 -0.7544  0.3363
 6311TIP3   OH240423   3.545   0.537  11.503 -0.5671 -0.5033 -0.0729
 6311TIP3    H140424   3.579   0.509  11.588 -0.0391  0.4430  0.0454
 6311TIP3    H240425   3.463   0.489  11.493  0.3327 -2.1039  0.0786
 6312TIP3   OH240426   1.315   4.608  16.840 -0.1154  0.1235  0.0463
 6312TIP3    H140427   1.316   4.673  16.911  0.8639  1.3503 -1.0794
 6312TIP3    H240428   1.365   4.534  16.875  0.6793  0.8710  0.5018
 6313TIP3   OH240429   4.621   6.020  16.476  0.0335  0.4456 -0.4272
 6313TIP3    H140430   4.542   6.064  16.507  0.9070  2.3550 -0.8591
 6313TIP3    H240431   4.601   5.927  16.484 -1.6361  0.9033  1.0427
 6314TIP3   OH240432   4.901   2.820   4.513  0.4498  0.2072 -0.3372
 6314TIP3    H140433   4.834   2.807   4.446 -0.4964 -0.3572  0.6822
 6314TIP3    H240434   4.969   2.872   4.470 -1.2832  2.0049 -0.9969
 6315TIP3   OH240435   0.345   1.099  17.246 -0.2962 -0.8842  0.0589
 6315TIP3    H140436   0.264   1.132  17.285  0.4311 -0.9810  1.7010
 6315TIP3    H240437   0.320   1.070  17.159 -1.2398  2.7763 -0.9686
 6316TIP3   OH240438   5.056   3.804   0.141  0.4803 -0.4123 -0.1587
 6316TIP3    H140439   5.130   3.806   0.081  1.2876  1.7639  0.8757
 6316TIP3    H240440   5.094   3.776   0.225 -0.1729 -0.8645 -0.0081
 6317TIP3   OH240441   4.216   1.639  11.885 -0.5165 -0.1780 -0.0359
 6317TIP3    H140442   4.129   1.681  11.885 -0.3660  0.1599 -1.2182
 6317TIP3    H240443   4.197   1.546  11.874 -0.7650 -0.2226  0.7002
 6318TIP3   OH240444   0.781   6.724  10.767  0.2231  0.0270 -0.7724
 6318TIP3    H140445   0.736   6.803  10.738 -1.3426 -0.3398  0.5753
 6318TIP3    H240446   0.825   6.750  10.849  1.1869 -0.0323 -1.2650
 6319TIP3   OH240447   2.019   2.183  15.777  0.3127 -0.3701  0.1363
 6319TIP3    H140448   1.923   2.185  15.770  0.3742  0.4646 -0.5267
 6319TIP3    H240449   2.045   2.102  15.734  0.0871  0.6779 -2.0378
 6320TIP3   OH240450   3.100   0.353  13.382 -0.6750  0.0585 -0.3826
 6320TIP3    H140451   3.033   0.318  13.441  0.2224 -0.6563  0.2185
 6320TIP3    H240452   3.065   0.438  13.353 -1.4018  0.1179  0.6675
 6321TIP3   OH240453   6.357   0.184  14.378  0.0029  0.0415 -0.5124
 6321TIP3    H140454   6.352   0.242  14.302 -0.8194 -0.1652 -0.6236
 6321TIP3    H240455   6.325   0.236  14.451  1.0933  0.3393 -0.2503
 6322TIP3   OH240456   5.541   0.609  11.971  0.4033  0.1792 -0.0622
 6322TIP3    H140457   5.636   0.595  11.964  0.3113 -0.0624 -0.8144
 6322TIP3    H240458   5.504   0.521  11.972  0.0723  0.3026 -1.3729
 6323TIP3   OH240459   5.771   0.455   3.280 -0.0096 -0.2314 -0.7892
 6323TIP3    H140460   5.772   0.362   3.257 -1.0961 -0.8155  1.4123
 6323TIP3    H240461   5.844   0.466   3.341  0.0139  0.3289 -0.9148
 6324TIP3   OH240462   6.365   2.060  11.560 -0.3160 -0.3530  0.1046
 6324TIP3    H140463   6.335   1.982  11.515  1.9556 -1.1062 -0.1435
 6324TIP3    H240464   6.388   2.121  11.490  1.0570 -0.6879  0.2588
 6325TIP3   OH240465   4.485   4.218   5.206  0.2275  0.7510 -0.0046
 6325TIP3    H140466   4.491   4.169   5.288 -1.6563 -2.3271 -1.6064
 6325TIP3    H240467   4.571   4.207   5.166  0.0312 -0.8427 -0.0584
 6326TIP3   OH240468   2.345   5.984   4.632  0.2642  0.5873  0.0776
 6326TIP3    H140469   2.322   6.049   4.698  0.4748  0.0648  0.6705
 6326TIP3    H240470   2.429   6.015   4.597  1.0134 -0.0497  1.2773
 6327TIP3   OH240471   0.702   6.398   3.955 -0.1859 -0.2801 -0.3142
 6327TIP3    H140472   0.749   6.460   3.899  0.2100  0.0743  0.3898
 6327TIP3    H240473   0.612   6.432   3.958 -0.0916 -0.0254 -0.3478
 6328TIP3   OH240474   4.209   4.802   0.101 -0.4410 -0.8437 -0.3199
 6328TIP3    H140475   4.301   4.815   0.124 -0.7612  1.9636 -0.3414
 6328TIP3    H240476   4.207   4.806   0.006 -0.7447  0.7937 -0.2725
 6329TIP3   OH240477   2.223   5.895   2.228 -0.5132 -0.2340  0.0629
 6329TIP3    H140478   2.294   5.938   2.276 -0.8476 -0.2265  0.5591
 6329TIP3    H240479   2.144   5.940   2.257 -0.5489  1.0496 -1.9396
 6330TIP3   OH240480   2.067   4.248   5.033 -0.5478 -0.0791 -0.6621
 6330TIP3    H140481   2.132   4.258   5.102 -2.0154  0.3315  0.6773
 6330TIP3    H240482   2.103   4.298   4.959  0.4045  0.5488  0.2116
 6331TIP3   OH240483   0.250   5.204  12.360 -0.3418 -0.4396  0.7750
 6331TIP3    H140484   0.225   5.278  12.305 -0.8126 -1.2738 -0.1575
 6331TIP3    H240485   0.327   5.234  12.409  1.1030 -0.2410 -1.5563
 6332TIP3   OH240486   4.330   0.021   5.050  0.0435  0.1191  0.1790
 6332TIP3    H140487   4.409   0.062   5.083 -0.8347  0.9518  1.2853
 6332TIP3    H240488   4.339  -0.071   5.072  1.5770 -0.1450 -1.4413
 6333TIP3   OH240489   4.386   6.448   2.812  0.4276  0.2644  0.0196
 6333TIP3    H140490   4.342   6.458   2.728 -0.9352  0.0127  0.6867
 6333TIP3    H240491   4.433   6.530   2.825 -1.7748  1.4908  0.3831
 6334TIP3   OH240492   3.983   6.183  13.570 -0.4795  0.2650  0.1200
 6334TIP3    H140493   3.904   6.150  13.528  0.0594 -0.1513 -0.5881
 6334TIP3    H240494   4.025   6.105  13.607  0.8195  0.1120 -1.6008
 6335TIP3   OH240495   3.352   4.858  16.740 -0.2072 -0.3468  0.5601
 6335TIP3    H140496   3.264   4.835  16.708  0.4368 -1.0657 -0.7192
 6335TIP3    H240497   3.389   4.775  16.769  2.1962 -1.1157 -4.2386
 6336TIP3   OH240498   5.074   4.808  12.948 -0.0504 -1.0951 -0.1707
 6336TIP3    H140499   5.000   4.766  12.992 -1.1044  0.7654 -0.1133
 6336TIP3    H240500   5.033   4.857  12.876  1.0965  0.1558  0.0182
 6337TIP3   OH240501   2.011   3.243  16.389 -0.1756  0.5022 -0.6495
 6337TIP3    H140502   1.933   3.199  16.356  0.0180  0.4063 -0.9795
 6337TIP3    H240503   2.019   3.212  16.479 -1.2207  1.4586 -0.2130
 6338TIP3   OH240504   0.213   3.484   5.613 -0.4808  0.2055 -0.8610
 6338TIP3    H140505   0.281   3.466   5.677  0.2619  0.0582 -1.6825
 6338TIP3    H240506   0.219   3.412   5.550 -1.4587  0.1392 -0.8868
 6339TIP3   OH240507   2.355   4.408  12.565 -0.3571  0.0796  0.4251
 6339TIP3    H140508   2.408   4.398  12.486 -0.8897  2.4802 -0.3036
 6339TIP3    H240509   2.336   4.319  12.594  0.4796 -0.8295 -1.7320
 6340TIP3   OH240510   4.731   2.071  13.663  0.1730 -0.6005 -0.3751
 6340TIP3    H140511   4.734   1.975  13.661 -0.6031 -0.6167 -2.0334
 6340TIP3    H240512   4.647   2.091  13.705 -0.7449 -0.6986 -2.0965
 6341TIP3   OH240513   4.969   3.336   4.538  0.7490 -0.4998  0.2691
 6341TIP3    H140514   4.897   3.398   4.543  1.4909  0.2684  1.5967
 6341TIP3    H240515   4.996   3.339   4.446 -0.0902  0.1553  0.0403
 6342TIP3   OH240516   3.826   4.019  16.197 -0.1701  0.3313  0.2742
 6342TIP3    H140517   3.740   4.061  16.207  0.6452  2.1952 -0.3838
 6342TIP3    H240518   3.826   3.984  16.108 -0.0146  0.9378  0.0264
 6343TIP3   OH240519   1.025   1.998  14.066  0.2214  0.4941  0.7822
 6343TIP3    H140520   0.959   2.044  14.117 -0.6749 -0.9683  0.9620
 6343TIP3    H240521   1.004   1.905  14.076  1.7091  0.0476  0.0392
 6344TIP3   OH240522   3.942   5.742   4.893  0.0209 -0.4000  0.7956
 6344TIP3    H140523   3.950   5.720   4.985 -2.1099 -0.0029  1.1123
 6344TIP3    H240524   3.847   5.751   4.879  0.1037 -2.8989 -1.9716
 6345TIP3   OH240525   0.446   2.376  16.965 -0.2451  0.3860 -0.4813
 6345TIP3    H140526   0.446   2.310  16.895  3.0228 -1.9886  1.5727
 6345TIP3    H240527   0.490   2.452  16.926 -0.7555  0.0425 -1.7632
 6346TIP3   OH240528   3.677   6.638   5.532 -0.3340 -0.1724 -0.4061
 6346TIP3    H140529   3.705   6.729   5.532  0.7322 -0.4956 -0.8522
 6346TIP3    H240530   3.618   6.632   5.456 -0.3621  0.1264 -0.4092
 6347TIP3   OH240531   4.588   3.325  16.255  0.2730  0.0101  0.3389
 6347TIP3    H140532   4.566   3.232  16.254  2.6495 -0.5571 -1.0468
 6347TIP3    H240533   4.542   3.361  16.179 -2.1968  0.3952  1.9394
 6348TIP3   OH240534   3.699   0.574  13.808  0.6416  0.0181 -0.1497
 6348TIP3    H140535   3.677   0.492  13.852  0.7023 -2.1213 -3.8759
 6348TIP3    H240536   3.781   0.602  13.848 -0.4460 -0.5867  2.5979
 6349TIP3   OH240537   2.237   0.993  13.866 -0.8615 -0.1949 -0.3775
 6349TIP3    H140538   2.245   0.985  13.961 -0.4844  0.5768 -0.3340
 6349TIP3    H240539   2.281   0.916  13.831 -0.5766 -0.2380  0.0712
 6350TIP3   OH240540   2.994   1.239  12.989 -0.0802  0.5672 -0.2014
 6350TIP3    H140541   3.025   1.322  12.952  0.7775  0.5537  0.4987
 6350TIP3    H240542   2.898   1.248  12.989  0.0105  1.5828 -0.0618
 6351TIP3   OH240543   4.857   6.025   1.580  0.3780 -0.4682  0.1115
 6351TIP3    H140544   4.882   6.100   1.634  1.2529 -0.1893 -0.6732
 6351TIP3    H240545   4.767   6.045   1.553  0.6091  0.3055 -0.1069
 6352TIP3   OH240546   1.265   2.167  13.778 -0.2004  0.5476 -0.4749
 6352TIP3    H140547   1.213   2.092  13.750 -1.1088  0.7774  0.5784
 6352TIP3    H240548   1.320   2.187  13.702  0.7397 -1.7617 -0.4240
 6353TIP3   OH240549   2.699   5.664  12.715 -0.3848 -0.3357  0.0232
 6353TIP3    H140550   2.661   5.631  12.796  0.0092 -1.5885 -0.2866
 6353TIP3    H240551   2.674   5.600  12.648  1.2001 -0.5319 -0.4069
 6354TIP3   OH240552   1.679   1.773  12.901 -0.1819  0.0038  0.0362
 6354TIP3    H140553   1.663   1.753  12.993 -2.7277 -1.1723 -0.6058
 6354TIP3    H240554   1.678   1.687  12.858  3.0092  0.3405 -0.8521
 6355TIP3   OH240555   4.348   1.071  11.141 -0.1505 -0.0659 -0.7282
 6355TIP3    H140556   4.398   1.042  11.065  0.4126 -0.0621 -0.3596
 6355TIP3    H240557   4.333   1.164  11.127  1.9091  0.4389  0.2522
 6356TIP3   OH240558   2.345   6.742  14.799  0.1369  0.3897 -0.5882
 6356TIP3    H140559   2.369   6.654  14.828 -0.9372 -0.4136 -2.0881
 6356TIP3    H240560   2.407   6.763  14.730 -0.4609  0.2662 -1.1611
 6357TIP3   OH240561   4.077   3.690  16.365  0.0708  0.0655  0.1512
 6357TIP3    H140562   4.010   3.730  16.421 -0.4159 -2.1241  1.1571
 6357TIP3    H240563   4.149   3.670  16.424 -0.4296 -2.2224  0.0384
 6358TIP3   OH240564   3.852   0.388   2.150 -0.3505  0.1713  0.0740
 6358TIP3    H140565   3.848   0.426   2.238 -0.6050 -1.7509  0.9286
 6358TIP3    H240566   3.933   0.337   2.149 -0.9949 -0.8570 -0.3630
 6359TIP3   OH240567   6.444   3.918   2.453  0.0836 -0.0229  0.3956
 6359TIP3    H140568   6.361   3.953   2.420  1.2819  2.0508 -0.5485
 6359TIP3    H240569   6.452   3.952   2.542 -0.7681 -1.4725  1.0443
 6360TIP3   OH240570   1.989   6.730   6.177  0.1163  0.4993 -0.1327
 6360TIP3    H140571   1.913   6.673   6.191  1.2915 -1.3468 -1.1115
 6360TIP3    H240572   1.972   6.773   6.094  0.3196 -0.2010 -0.5370
 6361TIP3   OH240573   4.776   6.785  13.375  0.4343 -0.2929  0.4696
 6361TIP3    H140574   4.803   6.775  13.467  1.4316  2.7705  0.5875
 6361TIP3    H240575   4.684   6.812  13.380  1.3703  3.0889  0.8094
 6362TIP3   OH240576   2.717   5.295  12.853  0.0954 -0.0202 -0.1359
 6362TIP3    H140577   2.672   5.374  12.881  0.8914  0.3206  0.1813
 6362TIP3    H240578   2.745   5.314  12.763  1.6679  0.6544  0.4911
 6363TIP3   OH240579   2.231   2.441  11.556  0.7287  0.1123  0.2609
 6363TIP3    H140580   2.158   2.492  11.520  2.2666  1.9152 -0.3882
 6363TIP3    H240581   2.210   2.433  11.649 -1.3640 -1.2865 -0.2960
 6364TIP3   OH240582   1.187   2.546   0.121  0.3066  0.6494  1.0705
 6364TIP3    H140583   1.207   2.516   0.210  0.3059  1.5358  1.3695
 6364TIP3    H240584   1.130   2.622   0.132  0.2363  0.7164  0.3112
 6365TIP3   OH240585   1.049   5.867   4.621 -0.2581  0.1695 -0.0387
 6365TIP3    H140586   0.977   5.923   4.648 -1.5231 -0.7768 -1.3611
 6365TIP3    H240587   1.100   5.852   4.701 -0.8854  1.7494  0.6680
 6366TIP3   OH240588   6.802   4.607   2.438  0.0830  0.1960  0.6702
 6366TIP3    H140589   6.787   4.514   2.458  0.5616  0.0926  0.5549
 6366TIP3    H240590   6.764   4.654   2.511 -0.7678 -0.0685  0.3999
 6367TIP3   OH240591   4.749   6.187  15.310 -0.2025 -0.1368  0.4693
 6367TIP3    H140592   4.800   6.163  15.387 -0.3804 -0.5201  0.4686
 6367TIP3    H240593   4.669   6.134  15.316 -1.0007  1.1033  0.9427
 6368TIP3   OH240594   6.334   4.688   5.190 -0.2509  0.2728  0.0715
 6368TIP3    H140595   6.381   4.727   5.265 -0.7261  0.0224  0.5004
 6368TIP3    H240596   6.246   4.726   5.195 -0.1496  0.6028 -0.6297
 6369TIP3   OH240597   2.011   3.374   3.325  0.2766  0.7206  0.6750
 6369TIP3    H140598   1.956   3.306   3.363  0.8047  1.6715  3.2279
 6369TIP3    H240599   2.043   3.336   3.243 -0.0522 -1.7982  1.6766
 6370TIP3   OH240600   2.646   3.904   5.842  0.4844  0.0749 -0.0156
 6370TIP3    H140601   2.740   3.914   5.834  0.3652  1.4900  0.3488
 6370TIP3    H240602   2.634   3.844   5.915  1.1175 -0.9026 -0.7007
 6371TIP3   OH240603   1.966   0.617   0.641  0.2318  1.0358 -0.2791
 6371TIP3    H140604   1.970   0.708   0.612  1.9939  0.1144 -3.0905
 6371TIP3    H240605   2.053   0.598   0.676  0.0979  0.2367 -0.3515
 6372TIP3   OH240606   1.267   6.597   3.434  0.1652  0.1406 -0.2921
 6372TIP3    H140607   1.334   6.609   3.502  2.3368 -0.2418 -2.2946
 6372TIP3    H240608   1.305   6.533   3.374 -2.5375 -0.9830 -0.8514
 6373TIP3   OH240609   1.309   4.100   0.222  0.7223 -0.2409  0.0659
 6373TIP3    H140610   1.237   4.153   0.257 -0.1043 -1.0661 -0.3795
 6373TIP3    H240611   1.381   4.163   0.211 -0.0143  0.6496  0.2412
 6374TIP3   OH240612   2.762   0.910  12.229 -0.3974  0.0289 -0.1920
 6374TIP3    H140613   2.838   0.861  12.196  0.6637  1.8338 -0.4844
 6374TIP3    H240614   2.687   0.853  12.211  0.7271 -1.1749 -1.1744
 6375TIP3   OH240615   2.150   2.031  14.951  0.3705  0.4660 -0.1404
 6375TIP3    H140616   2.144   2.057  14.859 -2.7766 -0.2692 -0.1915
 6375TIP3    H240617   2.117   1.942  14.953 -0.5493  0.8289  1.8550
 6376TIP3   OH240618   4.699   0.508  15.914  0.3589  0.4755 -0.1118
 6376TIP3    H140619   4.672   0.530  16.003  0.5643 -0.4291  0.1765
 6376TIP3    H240620   4.639   0.559  15.858 -0.8092 -0.1666  0.5325
 6377TIP3   OH240621   1.990   3.716   4.622 -0.0959 -0.2637 -0.1194
 6377TIP3    H140622   1.899   3.725   4.594 -0.9809 -3.1976  1.6581
 6377TIP3    H240623   2.040   3.767   4.558 -2.6363 -1.3867 -3.0936
 6378TIP3   OH240624   2.320   4.182   3.196  0.1297 -0.5567  0.6019
 6378TIP3    H140625   2.416   4.178   3.193  0.0689 -2.9348  0.8105
 6378TIP3    H240626   2.299   4.190   3.289  0.1177  0.6275  0.5103
 6379TIP3   OH240627   3.410   4.469  16.969 -0.1761 -0.2780  0.1014
 6379TIP3    H140628   3.340   4.433  17.024 -0.7944 -0.3524 -0.7285
 6379TIP3    H240629   3.367   4.494  16.887  0.7407 -0.1849 -0.3631
 6380TIP3   OH240630   1.540   5.493  13.348 -0.6492  0.2788  0.1098
 6380TIP3    H140631   1.466   5.442  13.380 -0.9039  1.6132  1.7096
 6380TIP3    H240632   1.524   5.582  13.382  0.3429  1.1698 -1.6903
 6381TIP3   OH240633   0.615   1.445  13.101  0.0157 -0.4952  0.2462
 6381TIP3    H140634   0.563   1.466  13.178 -1.0229 -1.4941 -0.1703
 6381TIP3    H240635   0.705   1.440  13.133 -0.1549  1.0784  1.0085
 6382TIP3   OH240636   2.756   2.677  16.915 -0.3500 -0.0377  0.0115
 6382TIP3    H140637   2.796   2.591  16.929  1.8511  0.6326 -1.8144
 6382TIP3    H240638   2.725   2.675  16.824 -2.0963  0.4253  0.5710
 6383TIP3   OH240639   4.919   4.156  14.711  0.1224 -0.3723  0.0820
 6383TIP3    H140640   4.930   4.251  14.715  0.1827 -0.3711 -0.0899
 6383TIP3    H240641   4.993   4.121  14.761  0.7184 -0.3546 -0.7667
 6384TIP3   OH240642   4.214   6.171   6.021 -0.7410  1.0054  0.4916
 6384TIP3    H140643   4.162   6.234   6.071 -0.3108  0.3808  1.7352
 6384TIP3    H240644   4.209   6.090   6.071 -2.0951 -0.2483 -1.5790
 6385TIP3   OH240645   5.555   6.624  13.075  0.3289  0.1667  0.1666
 6385TIP3    H140646   5.531   6.546  13.024 -0.6008  0.2510  0.4633
 6385TIP3    H240647   5.513   6.696  13.029  1.8386  0.6075 -0.5567
 6386TIP3   OH240648   1.287   2.496   5.298  0.0578 -0.8688 -0.6283
 6386TIP3    H140649   1.324   2.531   5.379 -0.7115 -1.2938 -0.0882
 6386TIP3    H240650   1.195   2.479   5.319 -0.3714 -0.1234 -1.8626
 6387TIP3   OH240651   4.051   5.569   1.860 -0.2246  0.7967  0.1621
 6387TIP3    H140652   4.011   5.582   1.946  1.1083 -0.4165  0.9949
 6387TIP3    H240653   4.145   5.579   1.876 -0.0472  1.7560 -1.3900
 6388TIP3   OH240654   1.821   0.634   5.947  0.0914 -0.2129 -0.1002
 6388TIP3    H140655   1.800   0.638   6.040 -0.7523 -0.0158 -0.2933
 6388TIP3    H240656   1.739   0.612   5.904  0.2372  0.6965 -0.8847
 6389TIP3   OH240657   3.722   5.691   2.577  0.0934 -0.2441 -0.1123
 6389TIP3    H140658   3.628   5.672   2.583  0.4895 -2.4968 -0.7656
 6389TIP3    H240659   3.758   5.662   2.661  0.5983 -1.8456 -0.8621
 6390TIP3   OH240660   3.783   5.837  14.634  0.3447  0.1032 -0.1714
 6390TIP3    H140661   3.855   5.838  14.697 -0.8556 -0.9242  1.2474
 6390TIP3    H240662   3.786   5.923  14.593  1.1337  0.8087  1.3126
 6391TIP3   OH240663   1.428   6.374   4.516  0.2128  0.2731  0.7989
 6391TIP3    H140664   1.475   6.442   4.564  1.0823 -1.1271  1.9842
 6391TIP3    H240665   1.357   6.347   4.575  0.1934 -0.2174  0.5587
 6392TIP3   OH240666   3.480   5.260  14.035 -0.1929 -0.2543  0.7893
 6392TIP3    H140667   3.418   5.275  14.106 -1.7599  0.0029 -0.6156
 6392TIP3    H240668   3.528   5.343  14.027 -1.6092  0.4912  0.0060
 6393TIP3   OH240669   0.316   0.851  17.098  0.3539 -0.3812  0.5135
 6393TIP3    H140670   0.352   0.833  17.184 -1.0099 -2.1020  0.7566
 6393TIP3    H240671   0.358   0.787  17.040 -0.8990 -1.1523  0.4536
 6394TIP3   OH240672   6.173   1.167   0.396 -0.2368  0.2655 -0.8255
 6394TIP3    H140673   6.175   1.259   0.423  1.1147  0.6217 -2.0430
 6394TIP3    H240674   6.094   1.131   0.437 -0.1806  1.6784  0.5800
 6395TIP3   OH240675   3.174   2.724  12.344  0.8207  0.6552  0.0398
 6395TIP3    H140676   3.191   2.640  12.386 -1.1257 -0.6510 -1.7137
 6395TIP3    H240677   3.180   2.706  12.251  0.6665  2.5281 -0.3429
 6396TIP3   OH240678   1.418   1.965  16.497  0.3167 -0.6451 -0.1585
 6396TIP3    H140679   1.365   1.886  16.510  2.8474 -2.3157  0.3918
 6396TIP3    H240680   1.441   1.993  16.586 -0.0141  0.3426 -0.3783
 6397TIP3   OH240681   0.162   0.922   3.713 -0.3412 -0.1987  0.3449
 6397TIP3    H140682   0.096   0.908   3.780  0.0242  0.0865  0.7625
 6397TIP3    H240683   0.181   0.834   3.680 -0.5347 -0.3365  0.5957
 6398TIP3   OH240684   1.850   4.159  13.572  0.2381  0.1894 -0.7893
 6398TIP3    H140685   1.809   4.237  13.608  1.8250  0.0282  1.4701
 6398TIP3    H240686   1.777   4.099  13.554 -0.5490 -0.3143  3.7038
 6399TIP3   OH240687   2.188   5.372   1.607 -0.1285  0.5400  0.9040
 6399TIP3    H140688   2.098   5.388   1.579 -0.0649  1.1794  1.0527
 6399TIP3    H240689   2.207   5.283   1.578 -0.4177  0.8214 -0.1450
 6400TIP3   OH240690   0.130   0.350   5.858 -0.2322 -0.4753 -0.2165
 6400TIP3    H140691   0.194   0.370   5.926  0.5222  1.4597 -1.4545
 6400TIP3    H240692   0.089   0.434   5.838 -0.9248 -1.1393 -1.6762
 6401TIP3   OH240693   6.408   6.115   2.646 -0.0193  0.2926  0.5377
 6401TIP3    H140694   6.351   6.096   2.572 -1.2803  1.2746  1.2297
 6401TIP3    H240695   6.384   6.049   2.712  0.3354  0.0937  0.4681
 6402TIP3   OH240696   0.356   2.112  14.771 -0.5927  0.3586 -0.0356
 6402TIP3    H140697   0.384   2.166  14.845 -3.1992  1.9333 -0.1674
 6402TIP3    H240698   0.359   2.171  14.695 -0.4288 -0.5410 -0.7424
 6403TIP3   OH240699   3.739   3.429  16.339  1.0153 -0.4373 -0.1611
 6403TIP3    H140700   3.706   3.441  16.250  0.7835 -0.8647 -0.1356
 6403TIP3    H240701   3.834   3.422  16.328  0.8241 -2.6290 -0.6290
 6404TIP3   OH240702   1.339   4.001   1.946  0.0308  0.2074 -0.1252
 6404TIP3    H140703   1.245   3.983   1.947  0.0099  0.2275  2.2339
 6404TIP3    H240704   1.380   3.916   1.966  0.3808  0.6444  1.0960
 6405TIP3   OH240705   2.719   6.043  13.919 -0.2993 -0.1318  0.1594
 6405TIP3    H140706   2.632   6.033  13.880 -0.3776  0.5906  0.1345
 6405TIP3    H240707   2.741   5.956  13.951 -1.7708  0.0162  1.6620
 6406TIP3   OH240708   1.900   2.627   4.532 -0.3470 -0.5048  0.1230
 6406TIP3    H140709   1.882   2.720   4.544  2.7841  0.2795 -0.7984
 6406TIP3    H240710   1.951   2.602   4.609  2.0806 -0.4746 -1.4077
 6407TIP3   OH240711   0.161   6.353   5.574 -0.7530  0.3742  0.0362
 6407TIP3    H140712   0.151   6.372   5.667 -1.4530  1.1961 -0.1996
 6407TIP3    H240713   0.083   6.390   5.533 -1.2915 -1.4490 -0.6699
 6408TIP3   OH240714   4.414   1.898   4.018 -0.4093  0.1245 -0.1958
 6408TIP3    H140715   4.373   1.832   3.961  0.7276 -1.9432  1.3219
 6408TIP3    H240716   4.505   1.870   4.025 -0.0531  1.5298  0.9526
 6409TIP3   OH240717   0.160   6.390  16.515  0.2196 -0.1903  0.4063
 6409TIP3    H140718   0.129   6.480  16.509 -0.2304 -0.2904  1.1070
 6409TIP3    H240719   0.253   6.398  16.535  0.1157  0.1281  0.7768
 6410TIP3   OH240720   0.420   3.637   1.027 -0.5586 -0.1138 -0.1726
 6410TIP3    H140721   0.360   3.565   1.050 -2.1450  1.1987 -0.1061
 6410TIP3    H240722   0.362   3.711   1.011  1.0305  0.9647 -0.9554
 6411TIP3   OH240723   4.556   0.970   6.033  0.4283  0.1094  0.0574
 6411TIP3    H140724   4.646   0.947   6.008  0.0061  1.0788 -2.4642
 6411TIP3    H240725   4.509   0.887   6.029  1.1858 -0.3928  1.3139
 6412TIP3   OH240726   5.930   1.664  12.037 -0.1640  0.1674 -0.0907
 6412TIP3    H140727   5.951   1.716  12.115 -1.3835  0.4892  0.0258
 6412TIP3    H240728   5.972   1.711  11.965  0.4119  0.2279  0.2727
 6413TIP3   OH240729   2.693   3.650   0.017 -0.0083 -0.4176  0.0774
 6413TIP3    H140730   2.627   3.663   0.085 -0.3486  0.2300 -0.3760
 6413TIP3    H240731   2.731   3.736   0.002 -1.8970  0.0554 -2.5284
 6414TIP3   OH240732   3.204   5.431   1.713 -0.2005 -0.4205  0.0893
 6414TIP3    H140733   3.285   5.389   1.688 -0.1917  0.1094 -0.8079
 6414TIP3    H240734   3.220   5.525   1.699 -1.2603 -0.3821 -1.0070
 6415TIP3   OH240735   0.517   5.199   6.463 -0.2959 -0.2671 -0.6338
 6415TIP3    H140736   0.440   5.194   6.519 -0.3039 -0.6067 -0.6753
 6415TIP3    H240737   0.503   5.278   6.409  0.1372  0.5797  0.4770
 6416TIP3   OH240738   0.850   3.490   4.141 -0.5581  0.0068 -0.2297
 6416TIP3    H140739   0.777   3.482   4.203 -0.5696 -0.2275 -0.2716
 6416TIP3    H240740   0.887   3.576   4.158 -0.3913 -0.1686  0.2878
 6417TIP3   OH240741   0.107   5.815  13.280 -0.0106 -0.8357 -0.0617
 6417TIP3    H140742   0.047   5.759  13.329 -1.1602  1.8334  1.6671
 6417TIP3    H240743   0.051   5.879  13.236  1.5043  2.0906  2.0804
 6418TIP3   OH240744   4.157   3.497   4.084  0.2422  0.1737 -0.6822
 6418TIP3    H140745   4.245   3.461   4.096  0.2613  0.6632  0.8368
 6418TIP3    H240746   4.134   3.532   4.171 -1.2982  0.3795 -1.1624
 6419TIP3   OH240747   6.038   6.249  12.676 -0.5332  0.1452  0.5560
 6419TIP3    H140748   6.057   6.163  12.639 -0.1680  0.8029 -0.8323
 6419TIP3    H240749   6.124   6.288  12.693 -0.6290  1.1569 -1.0743
 6420TIP3   OH240750   4.906   1.892   2.882  0.3789 -0.2595  0.0316
 6420TIP3    H140751   4.899   1.802   2.914  0.3165 -0.2356  0.0861
 6420TIP3    H240752   4.816   1.925   2.882  0.3897 -0.2273 -0.0765
 6421TIP3   OH240753   5.273   0.711  10.990  0.1509 -1.1627  0.7999
 6421TIP3    H140754   5.192   0.705  10.939 -0.1584 -1.7356  1.3513
 6421TIP3    H240755   5.244   0.717  11.081  0.6381  1.8531  0.7993
 6422TIP3   OH240756   3.033   4.640   1.799  0.1623  0.0067 -0.0949
 6422TIP3    H140757   2.988   4.723   1.780  0.3579  0.3814  1.0596
 6422TIP3    H240758   3.114   4.667   1.843  0.9675 -0.7208 -1.1175
 6423TIP3   OH240759   3.342   3.613  13.597  0.0666  0.9230 -0.2471
 6423TIP3    H140760   3.304   3.649  13.677  0.8356 -0.5547  0.8180
 6423TIP3    H240761   3.405   3.548  13.628 -2.2248 -2.2925 -2.0951
 6424TIP3   OH240762   6.191   2.942   0.293 -0.0181 -0.2726 -0.0082
 6424TIP3    H140763   6.244   2.898   0.227  0.9630 -0.0136  0.6021
 6424TIP3    H240764   6.132   2.999   0.242 -0.5724 -1.4751 -0.7417
 6425TIP3   OH240765   2.633   5.185   3.437  0.0723 -0.9450  0.3913
 6425TIP3    H140766   2.657   5.185   3.345 -0.2721 -0.7115  0.3006
 6425TIP3    H240767   2.546   5.223   3.439 -0.7518 -2.8019  0.6016
 6426TIP3   OH240768   5.493   5.551   2.897 -0.0079 -0.0425 -0.2126
 6426TIP3    H140769   5.564   5.606   2.864 -0.1128  0.1222 -0.1649
 6426TIP3    H240770   5.533   5.496   2.964  0.5789 -1.5538 -1.7725
 6427TIP3   OH240771   6.149   2.658   3.491  0.3465 -0.3550 -0.1669
 6427TIP3    H140772   6.115   2.741   3.523 -1.9653 -0.8372 -1.2482
 6427TIP3    H240773   6.239   2.677   3.464 -0.3171  1.8955 -0.8842
 6428TIP3   OH240774   3.044   3.012   1.912  0.5127 -0.4142 -0.2878
 6428TIP3    H140775   2.985   3.028   1.839  1.3585  2.6119 -0.3813
 6428TIP3    H240776   3.040   3.093   1.964  2.3307 -1.2853  1.2745
 6429TIP3   OH240777   2.637   5.904  16.622 -0.2955  0.3269 -0.0526
 6429TIP3    H140778   2.690   5.859  16.556 -1.1164  0.0614 -0.5415
 6429TIP3    H240779   2.697   5.967  16.662  0.4449 -0.1199 -0.4466
 6430TIP3   OH240780   3.411   5.863   1.052 -0.2265 -0.1752  0.2549
 6430TIP3    H140781   3.477   5.800   1.021 -1.3732 -0.2600 -2.0583
 6430TIP3    H240782   3.463   5.933   1.092  1.2278 -0.6822 -0.7008
 6431TIP3   OH240783   5.146   4.993   1.390 -0.3842 -0.1467  0.0604
 6431TIP3    H140784   5.073   5.025   1.443 -0.7025 -3.8949  2.0044
 6431TIP3    H240785   5.104   4.965   1.308 -0.9033 -0.8510  0.5619
 6432TIP3   OH240786   2.944   3.330   5.488  0.0224  0.7310  0.4898
 6432TIP3    H140787   2.870   3.336   5.428 -0.0873  0.1892  0.5646
 6432TIP3    H240788   3.021   3.342   5.432  0.0476 -2.1554 -0.1988
 6433TIP3   OH240789   4.422   0.926   4.818 -0.0243  0.2667  0.1543
 6433TIP3    H140790   4.427   0.889   4.906  0.6810  0.3934  0.1681
 6433TIP3    H240791   4.409   0.851   4.760  0.9602  0.0481  0.2233
 6434TIP3   OH240792   1.735   4.441  11.524 -0.6384 -0.0178 -0.2720
 6434TIP3    H140793   1.741   4.484  11.439 -0.3259 -0.6676 -0.5792
 6434TIP3    H240794   1.692   4.505  11.580 -0.6204  0.5072 -0.8555
 6435TIP3   OH240795   5.822   1.973   0.560 -0.1524 -0.5868 -0.0347
 6435TIP3    H140796   5.899   1.917   0.565  0.7081  0.5233 -0.7115
 6435TIP3    H240797   5.820   2.019   0.645 -0.5038 -1.1800  0.2779
 6436TIP3   OH240798   5.695   6.125   0.650 -0.3441 -0.1041  0.7055
 6436TIP3    H140799   5.676   6.045   0.698  0.5793 -1.4273 -1.0521
 6436TIP3    H240800   5.791   6.129   0.648 -0.3825  1.1620  0.9430
 6437TIP3   OH240801   2.048   6.122   2.205 -0.0753  0.1642  0.1388
 6437TIP3    H140802   2.001   6.039   2.218  0.4703 -0.5184 -2.0478
 6437TIP3    H240803   2.004   6.163   2.130 -0.0100  1.6288  0.8885
 6438TIP3   OH240804   1.216   6.044  16.469 -0.5648 -0.2441 -0.0829
 6438TIP3    H140805   1.178   6.068  16.554 -1.5418 -1.3554 -0.2012
 6438TIP3    H240806   1.245   5.954  16.480 -0.2301 -0.2232 -0.7776
 6439TIP3   OH240807   1.002   2.529  16.288  0.5699  0.2720 -0.1313
 6439TIP3    H140808   1.053   2.450  16.306 -0.2142 -0.2416 -0.1050
 6439TIP3    H240809   1.054   2.601  16.323  2.3122  0.0075 -2.0982
 6440TIP3   OH240810   0.560   2.925   2.843  0.0874  0.3399  0.5841
 6440TIP3    H140811   0.540   2.919   2.936 -2.6491  1.2171  0.0934
 6440TIP3    H240812   0.648   2.963   2.839  0.1151  0.5491  2.7657
 6441TIP3   OH240813   1.024   5.243   0.898  0.0562  0.3764  0.2357
 6441TIP3    H140814   0.979   5.217   0.979 -0.5936  1.0929  0.1024
 6441TIP3    H240815   1.004   5.174   0.836  0.0171  0.1579  0.4897
 6442TIP3   OH240816   6.576   3.254   0.110 -0.4034  0.2358 -0.8392
 6442TIP3    H140817   6.656   3.245   0.163  0.3472 -1.7169 -2.2065
 6442TIP3    H240818   6.517   3.307   0.163  1.6948  1.4298  0.3427
 6443TIP3   OH240819   4.730   1.817   2.225  0.8665 -0.0097  0.1790
 6443TIP3    H140820   4.739   1.787   2.315 -0.1081  0.5695  0.4792
 6443TIP3    H240821   4.695   1.741   2.178 -0.6337  0.3198  0.7279
 6444TIP3   OH240822   2.636   1.748  13.601  0.3294 -0.0706 -0.0025
 6444TIP3    H140823   2.613   1.840  13.589  0.5160 -0.3448 -2.7621
 6444TIP3    H240824   2.558   1.708  13.637 -0.4825  0.7554 -0.8244
 6445TIP3   OH240825   1.347   2.311   4.540 -0.5301  0.2575  0.1633
 6445TIP3    H140826   1.343   2.220   4.511 -0.5020  0.3751 -0.2184
 6445TIP3    H240827   1.265   2.324   4.588  0.1408 -0.3861  1.4790
 6446TIP3   OH240828   1.147   4.899   6.012  0.0441 -0.2777 -0.0715
 6446TIP3    H140829   1.069   4.888   6.065  0.3659  1.9096  0.8767
 6446TIP3    H240830   1.201   4.963   6.059  1.1356  0.3708 -2.1078
 6447TIP3   OH240831   0.423   0.976   0.313 -0.1413 -0.5716  0.7727
 6447TIP3    H140832   0.375   0.904   0.272  0.2337 -0.8926  0.8939
 6447TIP3    H240833   0.463   0.938   0.391  1.6011 -0.7011 -0.1593
 6448TIP3   OH240834   0.893   0.171  14.431 -0.6553  0.4482 -0.3218
 6448TIP3    H140835   0.923   0.242  14.374  0.5805 -0.6019 -1.0045
 6448TIP3    H240836   0.901   0.092  14.377  0.4085 -0.5440  1.2393
 6449TIP3   OH240837   6.684   0.773  16.339 -0.1800  0.1959 -0.4178
 6449TIP3    H140838   6.670   0.836  16.409  1.1476 -0.5259  0.5088
 6449TIP3    H240839   6.602   0.722  16.336 -0.0096 -0.1750  1.0169
 6450TIP3   OH240840   1.088   4.309   5.495 -0.4684 -0.3385 -1.3356
 6450TIP3    H140841   0.997   4.331   5.474 -0.4480  1.0946  0.0107
 6450TIP3    H240842   1.139   4.382   5.460  0.1201 -0.8947 -1.6391
 6451TIP3   OH240843   4.989   3.806   3.128 -0.2949  0.1094  0.1300
 6451TIP3    H140844   4.988   3.801   3.033 -3.6467  0.4206  0.0922
 6451TIP3    H240845   5.079   3.831   3.150  0.6669 -0.5090 -2.8912
 6452TIP3   OH240846   1.034   5.056   4.984  0.1972 -0.0236  0.0840
 6452TIP3    H140847   1.094   5.007   5.039  0.0231 -1.3459 -0.8755
 6452TIP3    H240848   1.059   5.034   4.895  0.8389  2.5199 -0.4218
 6453TIP3   OH240849   4.850   1.859  14.709 -0.4361  0.1232 -0.0195
 6453TIP3    H140850   4.794   1.798  14.660  1.4942 -0.6218 -1.3943
 6453TIP3    H240851   4.860   1.934  14.651  0.3168  0.0581  0.0178
 6454TIP3   OH240852   6.618   5.614  12.961 -0.6528 -0.1014  0.1098
 6454TIP3    H140853   6.711   5.633  12.951 -0.7676 -0.6356 -2.1825
 6454TIP3    H240854   6.610   5.584  13.052  1.3615  0.1629  0.4079
 6455TIP3   OH240855   2.562   2.713  12.496  0.7674 -0.5090  0.1690
 6455TIP3    H140856   2.644   2.732  12.451 -0.3570 -0.8861 -2.1373
 6455TIP3    H240857   2.549   2.787  12.555  1.4972  0.8210 -1.2991
 6456TIP3   OH240858   1.631   4.596  15.516 -0.3900 -0.4389  0.2406
 6456TIP3    H140859   1.701   4.552  15.565 -1.9483 -1.7069  1.3884
 6456TIP3    H240860   1.557   4.598  15.577 -0.9837  1.9977 -0.5214
 6457TIP3   OH240861   5.002   4.013  13.468 -0.4172  0.0073 -0.2779
 6457TIP3    H140862   5.062   4.084  13.491 -0.8721 -0.3887  2.3144
 6457TIP3    H240863   4.915   4.053  13.472 -0.5800 -0.3548 -0.1793
 6458TIP3   OH240864   2.617   4.463  11.779  0.4167 -0.0715 -0.2965
 6458TIP3    H140865   2.632   4.530  11.845  1.5927  0.9513 -1.5493
 6458TIP3    H240866   2.705   4.444  11.744  0.1209 -2.3851  0.1514
 6459TIP3   OH240867   3.753   6.819   6.029 -0.1077 -0.1537  0.1952
 6459TIP3    H140868   3.704   6.759   6.085 -0.8875 -0.7088 -1.0732
 6459TIP3    H240869   3.727   6.906   6.059  0.1613 -0.4447  1.2879
 6460TIP3   OH240870   5.833   4.748   4.672  0.2174 -0.3975 -0.0452
 6460TIP3    H140871   5.907   4.690   4.658  0.3232 -0.3322  0.2363
 6460TIP3    H240872   5.782   4.706   4.742 -0.8478 -1.2464 -1.3044
 6461TIP3   OH240873   1.533   0.810  12.977 -0.3296  0.6788 -0.0567
 6461TIP3    H140874   1.599   0.797  12.909 -1.6415 -1.1202 -1.0101
 6461TIP3    H240875   1.575   0.779  13.058 -0.1710 -0.8643 -0.7318
 6462TIP3   OH240876   3.415   0.401  14.871  0.0992  0.0164 -0.9465
 6462TIP3    H140877   3.455   0.488  14.881 -0.4670  0.0725  1.2381
 6462TIP3    H240878   3.487   0.344  14.847  1.1067  0.5233  0.7490
 6463TIP3   OH240879   0.378   0.644   0.613 -0.2395 -0.0250  0.6485
 6463TIP3    H140880   0.395   0.596   0.532  1.3875  0.0169  0.9457
 6463TIP3    H240881   0.465   0.664   0.648 -0.8973  2.1504  1.1209
 6464TIP3   OH240882   5.206   3.810  16.162 -0.0919 -0.5995  0.2497
 6464TIP3    H140883   5.247   3.847  16.240  0.3973  1.1398 -0.7947
 6464TIP3    H240884   5.256   3.731  16.143  0.2603 -0.6261  1.2495
 6465TIP3   OH240885   4.193   5.320  12.178 -0.1622 -0.0546  0.2140
 6465TIP3    H140886   4.219   5.270  12.100 -1.0337 -0.6342  0.2863
 6465TIP3    H240887   4.261   5.300  12.243  0.0625 -0.3196 -0.1026
 6466TIP3   OH240888   0.934   4.983  12.201  0.2122 -0.3159 -0.1682
 6466TIP3    H140889   1.008   4.930  12.229  1.3759  2.0594  1.4401
 6466TIP3    H240890   0.861   4.952  12.255  0.6689 -0.8344  0.1560
 6467TIP3   OH240891   0.597   0.215   1.570  0.7515 -0.4875 -0.2800
 6467TIP3    H140892   0.507   0.227   1.600  1.0654  0.3662  0.3418
 6467TIP3    H240893   0.640   0.298   1.590  1.6499 -0.8564 -0.6654
 6468TIP3   OH240894   2.753   4.068  14.137 -0.7612  0.1360  0.4677
 6468TIP3    H140895   2.773   4.027  14.221  1.4623 -0.1555 -0.1653
 6468TIP3    H240896   2.707   4.149  14.160  0.0399  0.1889  1.9742
 6469TIP3   OH240897   6.104   3.535  13.302  0.2268 -0.2373  0.8487
 6469TIP3    H140898   6.100   3.626  13.331 -0.0334 -0.1430  0.5157
 6469TIP3    H240899   6.155   3.538  13.221  0.2597 -0.3939  0.8637
 6470TIP3   OH240900   0.147   1.895   0.005  0.3808  0.0392  0.0087
 6470TIP3    H140901   0.072   1.836   0.001  1.6316 -1.7682  2.0580
 6470TIP3    H240902   0.220   1.843  -0.027  1.5789  0.2986  2.1980
 6471TIP3   OH240903   5.205   5.438  11.983  0.3257  0.3045  0.2996
 6471TIP3    H140904   5.123   5.486  11.995  0.7451  1.5624 -1.6258
 6471TIP3    H240905   5.193   5.391  11.901  0.5585 -1.6022  1.3381
 6472TIP3   OH240906   1.039   5.435   0.482 -0.1920 -0.3991  0.4588
 6472TIP3    H140907   1.064   5.419   0.391  0.6471  2.5400  0.1042
 6472TIP3    H240908   1.114   5.406   0.534  0.6619  0.9293 -0.0286
 6473TIP3   OH240909   3.834   5.090  15.401 -0.4535 -0.0556  0.1856
 6473TIP3    H140910   3.904   5.151  15.378 -0.6263  0.8139  1.9435
 6473TIP3    H240911   3.831   5.091  15.496 -1.4452 -1.7099  0.1888
 6474TIP3   OH240912   0.374   1.973   4.670 -0.1692 -0.0556  0.0112
 6474TIP3    H140913   0.459   1.948   4.633  0.5301  0.6799  1.0996
 6474TIP3    H240914   0.325   2.007   4.595  1.3783  1.7924 -0.2159
 6475TIP3   OH240915   6.152   5.635  12.536  0.1312 -0.1694 -0.1143
 6475TIP3    H140916   6.117   5.551  12.505  0.1968  0.1243 -1.0005
 6475TIP3    H240917   6.223   5.655  12.475  0.8112  0.0157  0.7302
 6476TIP3   OH240918   4.834   5.342  13.263 -0.7199 -0.0261  0.2387
 6476TIP3    H140919   4.762   5.405  13.260 -1.0967 -0.4613  0.1972
 6476TIP3    H240920   4.864   5.346  13.354 -0.0044  1.0405 -0.0358
 6477TIP3   OH240921   0.016   0.622   2.450  0.6482  0.1154 -0.2120
 6477TIP3    H140922   0.021   0.713   2.479 -1.5690 -0.1890  1.1967
 6477TIP3    H240923   0.098   0.582   2.480  1.6347  1.6220 -0.8457
 6478TIP3   OH240924   5.152   5.959  16.110 -0.2711  0.8400  0.0186
 6478TIP3    H140925   5.237   5.920  16.133 -1.2754 -1.8682 -0.7081
 6478TIP3    H240926   5.172   6.019  16.039  1.0352  0.2069 -0.1663
 6479TIP3   OH240927   2.565   5.797   6.694  0.2637 -0.7814 -0.2962
 6479TIP3    H140928   2.658   5.814   6.712 -0.3901  1.2667  1.2675
 6479TIP3    H240929   2.522   5.881   6.707 -1.8704 -1.7719 -0.7839
 6480TIP3   OH240930   6.744   2.498   4.431 -0.3525  0.0094 -0.7580
 6480TIP3    H140931   6.696   2.574   4.397  0.2056 -0.2692 -2.2111
 6480TIP3    H240932   6.724   2.497   4.525 -0.9879  1.4951 -0.8593
 6481TIP3   OH240933   1.632   1.286   0.197 -0.0756  1.1135 -0.1797
 6481TIP3    H140934   1.689   1.300   0.272 -0.9195  1.1381  0.4687
 6481TIP3    H240935   1.668   1.208   0.153  2.1452  2.7860 -1.4240
 6482TIP3   OH240936   1.957   3.173   4.763 -0.1295 -0.5808 -0.4263
 6482TIP3    H140937   1.954   3.267   4.780  1.7662 -0.6916  0.6010
 6482TIP3    H240938   1.972   3.166   4.668 -1.8319  0.1079 -0.7668
 6483TIP3   OH240939   4.925   5.018   4.683  0.0204 -0.5254 -0.2700
 6483TIP3    H140940   4.967   5.052   4.762  1.0488 -1.1282 -0.5435
 6483TIP3    H240941   4.859   5.084   4.661 -0.9690 -0.8489  1.6461
 6484TIP3   OH240942   3.547   4.820  11.764  0.2081  0.1042  0.3709
 6484TIP3    H140943   3.547   4.860  11.677 -1.1235 -1.1276 -0.1954
 6484TIP3    H240944   3.455   4.816  11.789  0.3383 -2.4061  0.5228
 6485TIP3   OH240945   0.418   4.281   2.990 -0.4897  0.1560 -0.1215
 6485TIP3    H140946   0.493   4.338   2.974 -0.6778  0.0572 -1.4354
 6485TIP3    H240947   0.452   4.210   3.044  0.2994  0.2586 -0.4844
 6486TIP3   OH240948   5.957   6.663   4.824  0.1699  0.2669  0.1323
 6486TIP3    H140949   6.014   6.602   4.777 -0.5554 -0.7462  0.5426
 6486TIP3    H240950   5.873   6.658   4.778 -0.1869  0.1921  0.7792
 6487TIP3   OH240951   2.203   3.521   5.088 -0.2402  0.5818 -0.1497
 6487TIP3    H140952   2.298   3.533   5.093 -0.1867  0.3152 -0.5347
 6487TIP3    H240953   2.169   3.610   5.078 -0.0095  0.6426 -0.3977
 6488TIP3   OH240954   1.395   5.810   3.948  0.3008  0.0299 -0.5858
 6488TIP3    H140955   1.445   5.729   3.939  0.7149  0.1859  0.2087
 6488TIP3    H240956   1.391   5.846   3.860  0.8485 -0.4303 -0.8011
 6489TIP3   OH240957   3.941   3.573  11.348  0.8335  0.1996 -0.4211
 6489TIP3    H140958   3.869   3.585  11.287  0.9193  1.5620 -0.2695
 6489TIP3    H240959   4.016   3.549  11.294  0.6278  0.2678 -0.7347
 6490TIP3   OH240960   5.868   0.739   0.630  0.0754 -0.1383  0.5153
 6490TIP3    H140961   5.906   0.659   0.592 -1.0092 -0.0017 -0.8782
 6490TIP3    H240962   5.937   0.772   0.688  1.6002 -0.6107 -0.9567
 6491TIP3   OH240963   4.250   6.456  11.216  0.0486 -0.4618  0.3267
 6491TIP3    H140964   4.274   6.397  11.287 -2.7187 -0.7065  1.1082
 6491TIP3    H240965   4.304   6.534  11.230  0.0711 -0.8089  2.2193
 6492TIP3   OH240966   0.022   3.454   4.451 -0.1118 -0.2595  0.3530
 6492TIP3    H140967   0.096   3.505   4.416  0.3709 -1.8463 -0.9838
 6492TIP3    H240968  -0.034   3.439   4.375 -1.2779  0.0198  1.1587
 6493TIP3   OH240969   1.503   0.603  14.391 -0.3487 -0.0078  0.3425
 6493TIP3    H140970   1.580   0.574  14.440 -1.0541 -0.9705  0.8875
 6493TIP3    H240971   1.529   0.597  14.299 -0.2216 -1.6705  0.4698
 6494TIP3   OH240972   3.645   1.218  10.513  0.2710  0.1975 -0.4483
 6494TIP3    H140973   3.549   1.225  10.515  0.3185  0.8579 -0.3047
 6494TIP3    H240974   3.670   1.220  10.606  0.3080 -1.8985 -0.3701
 6495TIP3   OH240975   1.024   1.698   0.891  0.4324 -0.5596  0.3342
 6495TIP3    H140976   0.957   1.761   0.921  0.5252 -0.7738  0.9860
 6495TIP3    H240977   1.072   1.675   0.970  1.0314 -0.7077 -0.0754
 6496TIP3   OH240978   4.717   0.844   1.851  0.7752  0.7413 -0.0406
 6496TIP3    H140979   4.792   0.873   1.902  0.8568 -1.9499  1.4256
 6496TIP3    H240980   4.750   0.772   1.797 -0.7098 -0.4118  0.5505
 6497TIP3   OH240981   2.905   1.074  12.620  0.6717  0.8164  0.2414
 6497TIP3    H140982   2.974   1.072  12.686 -1.1914 -1.0184  2.2211
 6497TIP3    H240983   2.926   1.002  12.561  0.2603 -0.0134  1.0872
 6498TIP3   OH240984   0.003   4.839   3.984 -0.8348 -0.3721 -0.2924
 6498TIP3    H140985  -0.039   4.860   4.067  0.5015 -0.5553  0.4608
 6498TIP3    H240986  -0.025   4.907   3.924 -1.2864  0.1464  0.5045
 6499TIP3   OH240987   6.495   3.514   4.191 -0.3083  0.1047 -0.3781
 6499TIP3    H140988   6.448   3.463   4.125  0.4408 -1.9796  0.6671
 6499TIP3    H240989   6.586   3.487   4.183  0.4197  2.5460 -0.9300
 6500TIP3   OH240990   2.394   2.972  15.705 -0.1679  0.1006 -0.1292
 6500TIP3    H140991   2.426   3.051  15.661  0.2015  0.1488  0.2286
 6500TIP3    H240992   2.441   2.970  15.788  0.6771 -1.1289 -0.6369
 6501TIP3   OH240993   1.456   1.936  16.767  0.2009  0.0933  0.0922
 6501TIP3    H140994   1.363   1.949  16.790 -0.6431  0.5953 -3.2568
 6501TIP3    H240995   1.504   1.988  16.831 -1.9903  1.7252  0.4707
 6502TIP3   OH240996   5.046   3.660  13.746  0.1717  0.1205 -0.6224
 6502TIP3    H140997   5.089   3.580  13.777 -0.6345  0.3412  1.1295
 6502TIP3    H240998   4.953   3.638  13.742 -0.4096  1.7685  2.6196
 6503TIP3   OH240999   3.337   2.391   0.353  0.8194 -0.2950  0.0401
 6503TIP3    H141000   3.262   2.386   0.293  0.4981 -1.8486  0.5566
 6503TIP3    H241001   3.306   2.446   0.425  0.0815 -1.0944  0.3479
 6504TIP3   OH241002   5.200   4.174  12.917 -0.2865  0.1490 -0.6854
 6504TIP3    H141003   5.133   4.122  12.872 -0.4757 -2.3141  2.3116
 6504TIP3    H241004   5.160   4.197  13.001  1.3269  1.7172 -0.3291
 6505TIP3   OH241005   1.526   1.063  16.545 -0.8457  0.1524 -0.0015
 6505TIP3    H141006   1.459   1.048  16.478  0.6532  0.9487 -1.7031
 6505TIP3    H241007   1.569   1.144  16.518  1.5891 -0.9633  0.4571
 6506TIP3   OH241008   5.048   3.437   3.346  0.0086 -0.2147  0.3690
 6506TIP3    H141009   4.984   3.435   3.417 -0.3032  0.4346  0.1127
 6506TIP3    H241010   5.007   3.389   3.275  0.3927 -1.0139  0.6903
 6507TIP3   OH241011   3.359   5.675   2.996 -0.2975  0.2565 -0.0127
 6507TIP3    H141012   3.307   5.677   3.076 -0.5469 -0.0609 -0.1618
 6507TIP3    H241013   3.377   5.582   2.982 -0.5016  0.2840 -0.4792
 6508TIP3   OH241014   1.433   4.227   2.541  0.3949  0.1303 -0.4498
 6508TIP3    H141015   1.398   4.198   2.625  1.3534 -2.0331 -0.7533
 6508TIP3    H241016   1.369   4.292   2.510 -1.1634 -0.6989  0.8904
 6509TIP3   OH241017   6.564   6.712  16.200  0.3076  0.7595 -0.6166
 6509TIP3    H141018   6.577   6.618  16.216 -0.8006  0.7574  0.3234
 6509TIP3    H241019   6.613   6.729  16.119  2.0369 -0.2426  0.1883
 6510TIP3   OH241020   1.341   1.746   2.641  0.6589 -0.0145  0.0772
 6510TIP3    H141021   1.405   1.718   2.575  0.5427  0.5979 -0.2941
 6510TIP3    H241022   1.335   1.671   2.701  0.2777 -0.8272 -0.9693
 6511TIP3   OH241023   4.267   2.990  15.751 -0.4440 -0.4686  0.4903
 6511TIP3    H141024   4.243   2.965  15.661  2.7798 -0.2829 -0.5032
 6511TIP3    H241025   4.238   2.917  15.805 -0.5389 -1.5470 -0.9961
 6512TIP3   OH241026   2.242   3.078  10.670  0.4091  0.1545  0.4206
 6512TIP3    H141027   2.153   3.083  10.634  0.2407  0.0651  0.8244
 6512TIP3    H241028   2.275   2.993  10.640  0.2873  0.1021  0.4313
 6513TIP3   OH241029   4.522   5.050   2.371 -0.0972 -0.0130  0.3380
 6513TIP3    H141030   4.468   5.042   2.292 -0.8101  2.4805  0.5104
 6513TIP3    H241031   4.507   4.969   2.419 -1.1475 -0.7442 -1.1858
 6514TIP3   OH241032   4.409   4.590   3.838  0.1546 -0.5317  0.1927
 6514TIP3    H141033   4.313   4.593   3.840  0.1975  0.9940  1.0867
 6514TIP3    H241034   4.434   4.554   3.923  0.3483 -2.6299 -0.7299
 6515TIP3   OH241035   1.178   5.973  15.800 -0.4837  0.7844 -0.3505
 6515TIP3    H141036   1.186   5.985  15.705  0.2507  1.7332 -0.1758
 6515TIP3    H241037   1.263   5.937  15.826  0.1872  2.7659  0.2811
 6516TIP3   OH241038   6.594   5.706  16.668  0.4964 -0.2345  0.1326
 6516TIP3    H141039   6.624   5.616  16.666  1.5205  0.0932  0.2815
 6516TIP3    H241040   6.546   5.718  16.586 -0.0695 -1.0475  0.3446
 6517TIP3   OH241041   2.455   6.026  13.343 -0.1665  0.0528  0.7898
 6517TIP3    H141042   2.375   5.974  13.351 -0.6165  0.9161  2.1046
 6517TIP3    H241043   2.472   6.057  13.432  1.7705 -0.3241  0.5732
 6518TIP3   OH241044   4.089   3.637  15.687  0.6552 -0.0302  0.6489
 6518TIP3    H141045   4.164   3.653  15.744  0.5073 -0.7048  1.0434
 6518TIP3    H241046   4.085   3.713  15.630  1.0056  0.5033  1.3265
 6519TIP3   OH241047   6.570   0.540   2.492  0.2054 -0.0669 -0.2020
 6519TIP3    H141048   6.557   0.581   2.578 -0.1031  0.0280 -0.2937
 6519TIP3    H241049   6.660   0.562   2.469 -0.1218  1.0224 -0.4835
 6520TIP3   OH241050   3.852   2.707  14.515 -0.3206  0.2485  0.0752
 6520TIP3    H141051   3.864   2.640  14.448 -0.8688  1.0235 -0.8110
 6520TIP3    H241052   3.765   2.691  14.551 -0.4949  0.5315 -0.2092
 6521TIP3   OH241053   0.724   3.337  10.900 -0.4535 -0.0675 -0.1389
 6521TIP3    H141054   0.696   3.318  10.811 -1.0682  0.5030 -0.0747
 6521TIP3    H241055   0.728   3.252  10.943  2.0517 -0.6174 -1.3249
 6522TIP3   OH241056   6.649   3.024  12.474 -0.1012  0.1957  0.0358
 6522TIP3    H141057   6.629   2.951  12.415  1.0586 -0.0311 -0.0885
 6522TIP3    H241058   6.694   3.088  12.420  1.3692 -0.2056  0.7589
 6523TIP3   OH241059   3.580   5.353  13.035 -0.9603 -0.3076  0.5336
 6523TIP3    H141060   3.574   5.261  13.009  1.6858 -1.1333  2.5727
 6523TIP3    H241061   3.505   5.366  13.093 -0.4274 -1.6913  1.5736
 6524TIP3   OH241062   3.665   1.584   0.999  0.1594  0.1843 -0.3212
 6524TIP3    H141063   3.732   1.602   0.933  0.4961 -0.0130 -0.0347
 6524TIP3    H241064   3.589   1.636   0.971  0.2062 -0.1170 -1.0185
 6525TIP3   OH241065   6.309   3.157  15.948  0.0855 -0.3189  0.2852
 6525TIP3    H141066   6.338   3.067  15.957  0.2616 -0.2158  0.7930
 6525TIP3    H241067   6.343   3.201  16.027  1.4691  0.5657 -0.7732
 6526TIP3   OH241068   3.466   5.042   4.072  0.0633 -0.1388  0.7548
 6526TIP3    H141069   3.404   5.017   4.003  1.2138  0.4511 -0.5255
 6526TIP3    H241070   3.416   5.036   4.153 -1.4989 -0.2308 -0.2008
 6527TIP3   OH241071   5.900   0.491  15.867 -0.3812  0.0934  0.0718
 6527TIP3    H141072   5.892   0.477  15.773 -0.8596 -1.3429  0.3063
 6527TIP3    H241073   5.989   0.525  15.879 -1.5890  3.8612 -1.2409
 6528TIP3   OH241074   5.170   6.575   0.211 -0.0657 -0.0567 -0.2413
 6528TIP3    H141075   5.155   6.578   0.305 -1.3142 -0.3242 -0.4234
 6528TIP3    H241076   5.219   6.493   0.197  0.3757  0.1320  0.2041
 6529TIP3   OH241077   1.069   5.643   3.587  0.0977  0.2174  0.5052
 6529TIP3    H141078   1.091   5.660   3.679 -0.0629  0.8371  0.4317
 6529TIP3    H241079   1.074   5.729   3.545 -1.5562  0.2313  0.2938
 6530TIP3   OH241080   0.330   1.267  14.909 -0.0874 -0.1767 -0.2761
 6530TIP3    H141081   0.237   1.249  14.898  0.4816 -2.0602 -2.4140
 6530TIP3    H241082   0.360   1.199  14.970 -0.0606  0.2320  0.1626
 6531TIP3   OH241083   1.558   2.201  15.048 -0.2198 -0.0932 -0.0366
 6531TIP3    H141084   1.617   2.275  15.031 -0.7399  0.2736 -0.2687
 6531TIP3    H241085   1.610   2.140  15.101  0.5183  0.0153 -0.6304
 6532TIP3   OH241086   0.796   4.734   4.196 -0.4795  0.0891  0.4588
 6532TIP3    H141087   0.808   4.692   4.281  0.9445 -0.9492 -0.2347
 6532TIP3    H241088   0.701   4.733   4.181 -0.5111 -2.5856  0.6260
 6533TIP3   OH241089   2.451   3.033   0.445  0.6089 -0.4130 -0.3617
 6533TIP3    H141090   2.493   3.108   0.403  0.2130 -0.4139 -0.7599
 6533TIP3    H241091   2.476   3.040   0.537 -0.5570  0.9841 -0.1319
 6534TIP3   OH241092   5.749   1.715   6.582  0.2042 -0.4939 -0.5752
 6534TIP3    H141093   5.680   1.781   6.572  0.7772 -0.2360 -3.0895
 6534TIP3    H241094   5.829   1.759   6.553  0.9336 -1.6856 -0.3934
 6535TIP3   OH241095   2.043   0.593  16.799  0.0891  0.6599  0.5050
 6535TIP3    H141096   2.001   0.621  16.881 -0.9807 -1.9790  0.9048
 6535TIP3    H241097   1.979   0.536  16.758  2.0211 -0.8276 -0.4833
 6536TIP3   OH241098   2.749   4.192   0.051 -0.3228 -0.0310 -0.0143
 6536TIP3    H141099   2.656   4.209   0.037 -0.6407 -0.8559  1.0402
 6536TIP3    H241100   2.781   4.159  -0.033 -0.7892  1.0475 -0.6178
 6537TIP3   OH241101   2.984   1.288   1.850  0.5811 -0.3938  0.6756
 6537TIP3    H141102   3.014   1.218   1.908  0.1234 -1.0469  0.1364
 6537TIP3    H241103   3.050   1.357   1.860  1.4604 -1.2128  0.6236
 6538TIP3   OH241104   5.317   5.009  15.949  0.7816  0.2533 -0.4196
 6538TIP3    H141105   5.410   5.008  15.927  0.7664 -2.9625 -0.5007
 6538TIP3    H241106   5.304   4.932  16.004 -1.9760  0.2000 -1.0740
 6539TIP3   OH241107   5.682   5.748  15.275  0.2643  0.2401  0.6190
 6539TIP3    H141108   5.601   5.788  15.307  1.4462  1.7407  1.8310
 6539TIP3    H241109   5.724   5.714  15.355  0.5895 -0.9818 -0.0649
 6540TIP3   OH241110   3.538   5.550   2.097  0.0192  0.1862 -0.9269
 6540TIP3    H141111   3.595   5.573   2.170 -0.1279  0.7571 -0.9889
 6540TIP3    H241112   3.568   5.463   2.069 -1.0485 -0.7868  0.9269
 6541TIP3   OH241113   3.809   3.662  15.727  0.6189 -0.2404  0.3912
 6541TIP3    H141114   3.785   3.613  15.649 -0.3568 -0.7937  1.0333
 6541TIP3    H241115   3.898   3.632  15.747  1.0993  0.3188 -0.8127
 6542TIP3   OH241116   2.898   0.941   5.488 -0.2301  0.1589  0.3210
 6542TIP3    H141117   2.889   0.997   5.411  0.9680  0.3273  0.2992
 6542TIP3    H241118   2.930   0.857   5.454  1.7706  0.7122  0.7982
 6543TIP3   OH241119   5.190   5.377   2.419 -0.2044  0.9622 -0.3543
 6543TIP3    H141120   5.272   5.367   2.467 -0.7715  0.9281  0.6282
 6543TIP3    H241121   5.216   5.377   2.327  0.8448  0.4720 -0.0687
 6544TIP3   OH241122   0.243   5.078  14.134 -0.0131 -0.3886 -0.0948
 6544TIP3    H141123   0.195   5.125  14.202 -0.9854 -0.7092 -0.5607
 6544TIP3    H241124   0.252   4.989  14.169 -0.3132 -0.4949 -0.2912
 6545TIP3   OH241125   0.950   3.863   6.712  0.1069  0.4971  0.4764
 6545TIP3    H141126   1.003   3.785   6.731  0.4238  0.1725 -1.6600
 6545TIP3    H241127   1.012   3.936   6.721  0.4444  0.2807 -0.0182
 6546TIP3   OH241128   0.640   0.742   3.516 -0.2589  0.3220  0.3262
 6546TIP3    H141129   0.708   0.689   3.557 -0.7886 -1.7303 -1.3821
 6546TIP3    H241130   0.558   0.697   3.539 -0.6693 -0.0065 -1.6803
 6547TIP3   OH241131   0.487   1.934  16.980 -0.3100 -0.4314  0.1086
 6547TIP3    H141132   0.559   1.976  17.027 -0.2887  1.0326 -1.1979
 6547TIP3    H241133   0.529   1.871  16.922  0.1226  1.8150 -2.1052
 6548TIP3   OH241134   5.801   4.986  14.899  1.0229  0.2729  1.0559
 6548TIP3    H141135   5.897   4.977  14.902  0.9121 -0.7557  2.0777
 6548TIP3    H241136   5.779   5.031  14.981  0.6766  1.0325  0.5484
 6549TIP3   OH241137   0.726   3.254  12.518  0.0457  0.4644  0.4387
 6549TIP3    H141138   0.800   3.235  12.576  0.1021  1.0058  0.5511
 6549TIP3    H241139   0.765   3.298  12.443 -0.3202  2.1390  1.1891
 6550TIP3   OH241140   4.910   0.139   5.642 -0.1807  0.8839 -0.5435
 6550TIP3    H141141   4.883   0.082   5.713  0.7039  0.8887 -0.1986
 6550TIP3    H241142   4.945   0.217   5.685  2.0384  0.1370 -0.9150
 6551TIP3   OH241143   2.026   2.932  12.262  0.1657 -0.4422  0.2331
 6551TIP3    H141144   2.102   2.905  12.212  1.2090  0.1973  1.4364
 6551TIP3    H241145   1.958   2.869  12.240  0.6176 -0.1915 -1.9377
 6552TIP3   OH241146   3.013   6.380   0.406 -0.3991 -1.0546 -0.0044
 6552TIP3    H141147   3.005   6.302   0.350 -1.8347 -0.8892 -0.0356
 6552TIP3    H241148   2.958   6.446   0.364  1.7717  0.3930 -0.6432
 6553TIP3   OH241149   3.797   2.011  12.883  0.2077  0.2863 -0.1382
 6553TIP3    H141150   3.791   1.951  12.809  0.4171  2.2947 -1.8368
 6553TIP3    H241151   3.889   2.011  12.907 -0.1039 -1.5497  1.1744
 6554TIP3   OH241152   6.788   0.214  12.883  0.1122 -0.4759  0.3896
 6554TIP3    H141153   6.753   0.208  12.972 -2.8482 -0.4101 -0.7170
 6554TIP3    H241154   6.848   0.288  12.886 -1.9739  1.2307  1.7164
 6555TIP3   OH241155   0.724   3.395  13.451  0.3924  0.6464 -0.2203
 6555TIP3    H141156   0.771   3.339  13.388 -0.6511 -0.2820 -0.1867
 6555TIP3    H241157   0.640   3.352  13.463 -0.6508  2.5326 -0.5922
 6556TIP3   OH241158   1.699   1.149  13.167 -0.5337 -0.0561  0.5459
 6556TIP3    H141159   1.698   1.235  13.125  0.2268 -0.0924  0.4578
 6556TIP3    H241160   1.629   1.100  13.122 -0.7514  0.4060  0.3791
 6557TIP3   OH241161   3.228   5.284  12.483  0.4512  0.6774  0.1049
 6557TIP3    H141162   3.311   5.284  12.434  0.0576 -0.9570 -0.5967
 6557TIP3    H241163   3.182   5.207  12.450 -0.8919  0.9824  1.2786
 6558TIP3   OH241164   0.238   3.223   5.477  0.7979 -0.6570 -0.7423
 6558TIP3    H141165   0.242   3.190   5.387  0.1741 -0.4418 -0.8500
 6558TIP3    H241166   0.232   3.145   5.531  0.1870 -0.7562 -0.9465
 6559TIP3   OH241167   6.293   5.668   0.382  0.5070 -0.0478  0.0892
 6559TIP3    H141168   6.294   5.692   0.289  0.5678  0.7582  0.2953
 6559TIP3    H241169   6.279   5.750   0.428  1.0572 -0.3653  0.8293
 6560TIP3   OH241170   4.889   3.695  14.011 -0.3959 -0.4929  0.6218
 6560TIP3    H141171   4.818   3.755  14.034  0.4198  1.0179 -0.6856
 6560TIP3    H241172   4.872   3.673  13.920  0.6615 -0.3199  0.3813
 6561TIP3   OH241173   4.020   3.619   4.730 -0.1041  0.1228 -0.5067
 6561TIP3    H141174   3.931   3.652   4.743  0.5464  1.4861  0.6119
 6561TIP3    H241175   4.068   3.694   4.695  0.6450 -0.5509 -0.9228
 6562TIP3   OH241176   3.178   4.727  16.315 -1.1324  0.0965  0.5837
 6562TIP3    H141177   3.180   4.714  16.220 -1.5412  0.4359  0.5278
 6562TIP3    H241178   3.269   4.748  16.338 -0.8202 -1.0022  0.4171
 6563TIP3   OH241179   4.534   4.779   3.620 -0.6513 -0.2817 -0.0347
 6563TIP3    H141180   4.603   4.840   3.592 -0.7833  0.0176  0.2944
 6563TIP3    H241181   4.578   4.720   3.681 -0.2785 -1.1585 -1.1396
 6564TIP3   OH241182   1.780   4.417   1.297 -0.4717 -0.1082  0.4097
 6564TIP3    H141183   1.715   4.481   1.325 -0.1784  1.4338 -2.2574
 6564TIP3    H241184   1.741   4.377   1.219 -0.9642 -3.7386  2.3988
 6565TIP3   OH241185   5.840   4.185   0.473 -0.1037 -0.1036  0.1165
 6565TIP3    H141186   5.776   4.129   0.431 -1.0683  0.7759  0.3877
 6565TIP3    H241187   5.855   4.145   0.559 -2.2776  1.1247  1.0956
 6566TIP3   OH241188   5.297   1.949   0.335  0.1634  0.0612  0.6014
 6566TIP3    H141189   5.325   1.904   0.255  0.8239  2.1859 -0.4087
 6566TIP3    H241190   5.353   1.914   0.404  0.0362 -1.3130  0.0322
 6567TIP3   OH241191   0.743   3.508   4.571  0.6122  0.5135  0.0954
 6567TIP3    H141192   0.719   3.516   4.663  0.7783 -0.4795  0.2309
 6567TIP3    H241193   0.820   3.452   4.571 -0.0097 -0.3627 -0.7185
 6568TIP3   OH241194   0.646   0.185  15.712  0.3262 -0.2416  0.0438
 6568TIP3    H141195   0.603   0.132  15.644 -1.4398 -1.1188  1.7970
 6568TIP3    H241196   0.663   0.269  15.670 -0.4939 -0.8636 -1.5758
 6569TIP3   OH241197   2.109   6.223  13.626 -0.3193  0.1863  0.0507
 6569TIP3    H141198   2.031   6.185  13.666 -1.1999  0.0335 -1.7750
 6569TIP3    H241199   2.163   6.148  13.602 -0.0607  0.2549  0.4136
 6570TIP3   OH241200   6.123   3.051   0.657  0.8946 -0.5730 -0.1255
 6570TIP3    H141201   6.048   3.038   0.716  1.0135  0.2030  0.1947
 6570TIP3    H241202   6.083   3.066   0.571  0.5894  2.4389  0.5053
 6571TIP3   OH241203   4.239   0.785   1.198 -0.4075 -0.1437  0.3164
 6571TIP3    H141204   4.308   0.719   1.204  2.2083  2.3025 -1.1090
 6571TIP3    H241205   4.254   0.842   1.274 -2.6880 -1.1899  1.5931
 6572TIP3   OH241206   6.216   4.220   1.240  0.1675  0.0810  0.0688
 6572TIP3    H141207   6.254   4.146   1.193  0.7937 -0.1899  0.9716
 6572TIP3    H241208   6.173   4.273   1.173  1.4122 -0.0660 -0.8485
 6573TIP3   OH241209   5.358   0.485  11.456  0.4613 -0.6577  0.3850
 6573TIP3    H141210   5.305   0.522  11.385  0.7689 -1.7075 -0.3890
 6573TIP3    H241211   5.336   0.540  11.532 -2.2692 -1.5045  0.2600
 6574TIP3   OH241212   5.210   6.729   4.675  0.8535 -0.3590 -0.3826
 6574TIP3    H141213   5.302   6.707   4.688  0.6428 -1.4371 -0.7124
 6574TIP3    H241214   5.162   6.668   4.730  0.3980  1.3723  1.2169
 6575TIP3   OH241215   1.394   5.976   5.697 -0.3021  0.2881 -0.3975
 6575TIP3    H141216   1.355   5.953   5.781  1.4634 -0.5915  0.1931
 6575TIP3    H241217   1.438   6.060   5.713 -1.4276  1.0008 -0.9239
 6576TIP3   OH241218   2.029   3.544  12.047  0.1016 -0.2833  0.0911
 6576TIP3    H141219   2.027   3.628  12.000  1.3036 -0.8412 -0.9697
 6576TIP3    H241220   2.056   3.480  11.982 -1.0491 -1.5561  0.8441
 6577TIP3   OH241221   1.314   0.591   4.759  0.2918 -0.0947  0.2258
 6577TIP3    H141222   1.409   0.586   4.765  0.2479 -0.0576  0.9742
 6577TIP3    H241223   1.298   0.642   4.680  0.9423  2.3154  1.5987
 6578TIP3   OH241224   4.605   3.298   5.178 -0.0397 -0.0841  0.2605
 6578TIP3    H141225   4.525   3.331   5.137 -0.1596  0.6939  1.1315
 6578TIP3    H241226   4.614   3.347   5.259  1.2033 -0.3336  0.2904
 6579TIP3   OH241227   5.465   1.910   1.613 -0.6587 -0.4211  0.0323
 6579TIP3    H141228   5.551   1.920   1.571 -0.1501 -1.4278  0.8043
 6579TIP3    H241229   5.418   1.991   1.591  1.3325  1.2232  1.5885
 6580TIP3   OH241230   5.683   6.485  16.030  0.1803  0.4487  0.2907
 6580TIP3    H141231   5.646   6.435  16.103  1.1918  1.2898  1.3864
 6580TIP3    H241232   5.727   6.559  16.071 -0.6678  1.8617 -1.2745
 6581TIP3   OH241233   3.959   3.226  17.184 -0.1942  0.6157  0.0104
 6581TIP3    H141234   3.903   3.287  17.136  0.8737  0.7258 -1.1330
 6581TIP3    H241235   4.044   3.271  17.189 -0.0518  0.2260  1.2308
 6582TIP3   OH241236   1.421   1.295  16.183 -0.2186 -0.1063  0.7236
 6582TIP3    H141237   1.431   1.386  16.211  1.2574 -0.6359  2.0223
 6582TIP3    H241238   1.478   1.287  16.107 -0.1220 -0.0167  0.7850
 6583TIP3   OH241239   1.262   2.203   5.262  0.0941  0.3569  0.9241
 6583TIP3    H141240   1.252   2.295   5.238 -1.1961  0.9403  3.5106
 6583TIP3    H241241   1.323   2.205   5.337  1.5375 -1.0768 -0.1914
 6584TIP3   OH241242   1.222   5.430  11.777 -0.4005 -0.1282  0.1333
 6584TIP3    H141243   1.236   5.365  11.846  0.2332 -0.1728 -0.0395
 6584TIP3    H241244   1.208   5.378  11.698  0.5509 -0.0422 -0.0877
 6585TIP3   OH241245   2.748   0.084   7.062  0.7834 -0.5314  0.0339
 6585TIP3    H141246   2.784   0.002   7.027  1.8272 -0.7153  1.5359
 6585TIP3    H241247   2.667   0.096   7.012  1.4374 -1.6183 -1.3493
 6586TIP3   OH241248   4.776   4.384   0.049 -0.0268 -0.5105  0.6526
 6586TIP3    H141249   4.686   4.362   0.023  0.4036  0.7870 -2.1383
 6586TIP3    H241250   4.814   4.301   0.077 -1.9045 -1.1873  1.2517
 6587TIP3   OH241251   1.538   1.279  17.149  0.4359 -0.7640 -0.7783
 6587TIP3    H141252   1.592   1.225  17.206  0.9539 -2.5241 -2.9050
 6587TIP3    H241253   1.503   1.219  17.084 -1.9076  0.8305 -1.0720
 6588TIP3   OH241254   6.781   2.515   4.009  0.1618  0.2420  0.7098
 6588TIP3    H141255   6.746   2.501   3.921 -0.3479  1.3667  0.7327
 6588TIP3    H241256   6.741   2.446   4.062 -0.5788  0.3855  0.3431
 6589TIP3   OH241257   1.626   1.996   1.548 -0.1616 -0.0548  1.0017
 6589TIP3    H141258   1.585   1.962   1.469 -0.9788  1.4481  0.7593
 6589TIP3    H241259   1.691   2.059   1.516 -0.2405  0.2875  1.5159
 6590TIP3   OH241260   0.731   4.337  16.385 -0.2039 -0.2033  0.3212
 6590TIP3    H141261   0.649   4.374  16.417  0.3887 -0.1661  1.8761
 6590TIP3    H241262   0.737   4.252  16.429  0.2769 -0.4869 -0.2911
 6591TIP3   OH241263   4.767   5.002  13.137 -0.4461  0.2270  0.1122
 6591TIP3    H141264   4.769   4.955  13.054 -0.8294  0.4429 -0.0189
 6591TIP3    H241265   4.725   5.086  13.117 -0.9081  0.1163  0.6056
 6592TIP3   OH241266   0.288   1.057  14.110  0.1868 -0.0367 -0.2307
 6592TIP3    H141267   0.197   1.061  14.141  0.3258  1.6321 -0.0109
 6592TIP3    H241268   0.340   1.042  14.190  0.1947  0.0745 -0.2146
 6593TIP3   OH241269   3.933   5.649  11.458  0.0350 -0.3663  0.5751
 6593TIP3    H141270   3.856   5.610  11.417  0.1105 -0.2202  0.2929
 6593TIP3    H241271   3.898   5.703  11.529 -0.1451 -0.0017  0.2058
 6594TIP3   OH241272   0.869   0.989   5.370 -0.4310 -0.4258  0.4038
 6594TIP3    H141273   0.861   0.915   5.430 -0.4209 -1.8894 -1.3696
 6594TIP3    H241274   0.931   1.048   5.413  0.3363 -1.9159  1.3752
 6595TIP3   OH241275   5.796   5.504   2.175 -0.0310 -0.4588  0.5803
 6595TIP3    H141276   5.761   5.451   2.247 -0.9674 -0.2437  0.2911
 6595TIP3    H241277   5.731   5.574   2.163  0.9479  0.4649  0.6286
 6596TIP3   OH241278   0.896   5.705  11.887 -0.1106 -0.4783 -0.0706
 6596TIP3    H141279   0.926   5.644  11.955 -1.2685 -0.7298  0.2262
 6596TIP3    H241280   0.870   5.649  11.814 -1.1342 -0.3385  0.1850
 6597TIP3   OH241281   6.716   1.086   1.137  0.3969 -0.2438  0.0894
 6597TIP3    H141282   6.786   1.050   1.082  0.2187  1.7168 -1.4676
 6597TIP3    H241283   6.758   1.101   1.222  1.6495  0.1449 -0.5880
 6598TIP3   OH241284   5.598   4.250  14.358 -0.5139 -0.2916  0.0564
 6598TIP3    H141285   5.505   4.232  14.373 -0.6349 -0.8523 -1.2366
 6598TIP3    H241286   5.599   4.298  14.275  0.3255  0.0294  0.2523
 6599TIP3   OH241287   2.923   4.869  14.750 -0.0797  0.5422 -0.1353
 6599TIP3    H141288   2.964   4.915  14.676  1.7363  1.0557  1.1551
 6599TIP3    H241289   2.995   4.819  14.789 -1.3075 -0.7057  0.5358
 6600TIP3   OH241290   5.470   1.255   1.182  0.0410  0.5549  0.1176
 6600TIP3    H141291   5.399   1.192   1.193  0.7722 -0.2997  0.0140
 6600TIP3    H241292   5.434   1.322   1.125 -0.7427  0.2287  0.2172
 6601TIP3   OH241293   1.420   5.634  16.790 -0.1596  0.2504  0.0175
 6601TIP3    H141294   1.405   5.649  16.884  0.6296  1.2361 -0.0099
 6601TIP3    H241295   1.335   5.651  16.749 -0.2819  0.6696  0.4494
 6602TIP3   OH241296   6.152   0.591   5.885  0.8328 -0.1709 -0.3885
 6602TIP3    H141297   6.129   0.514   5.936  0.2895 -1.2870 -2.2643
 6602TIP3    H241298   6.072   0.644   5.883  0.3143 -0.9888 -1.5720
 6603TIP3   OH241299   2.992   4.459   2.452  0.1818  0.5080  0.0569
 6603TIP3    H141300   3.061   4.521   2.430  2.2248 -1.6668  0.1584
 6603TIP3    H241301   3.037   4.375   2.463 -2.3078 -0.7253  1.3304
 6604TIP3   OH241302   5.038   0.911   3.862  0.6253 -0.2073 -0.4479
 6604TIP3    H141303   5.097   0.977   3.896  0.0242  0.5427 -0.8514
 6604TIP3    H241304   4.951   0.948   3.874  0.3456 -0.4217 -1.7582
 6605TIP3   OH241305   5.950   6.235  16.371  0.3220 -0.7068  0.0485
 6605TIP3    H141306   6.014   6.239  16.443  0.3693  1.3197 -0.0764
 6605TIP3    H241307   5.938   6.326  16.345  0.3950 -1.4283 -2.6247
 6606TIP3   OH241308   3.448   1.186  12.213 -0.1721  0.3585 -0.2846
 6606TIP3    H141309   3.405   1.159  12.294  1.0197 -2.5535 -0.5456
 6606TIP3    H241310   3.391   1.254  12.176 -2.5643 -0.7830  1.2103
 6607TIP3   OH241311   3.163   5.368   5.845  0.3735 -0.1050  0.1837
 6607TIP3    H141312   3.160   5.462   5.860 -0.3659  0.3578 -2.6466
 6607TIP3    H241313   3.209   5.358   5.762  0.8438 -2.2826  0.6713
 6608TIP3   OH241314   1.096   3.055  11.242  0.2308  0.8655 -0.0715
 6608TIP3    H141315   1.161   2.999  11.285 -1.5965 -0.0871  1.5080
 6608TIP3    H241316   1.062   3.001  11.170 -0.9857  0.1904  0.9868
 6609TIP3   OH241317   5.069   5.673  17.148 -0.0924 -0.0659  0.3312
 6609TIP3    H141318   5.026   5.758  17.142 -0.3739  0.0178  3.1138
 6609TIP3    H241319   5.157   5.689  17.114 -0.3052  1.1938  0.3445
 6610TIP3   OH241320   2.499   3.160   4.207 -0.5323  0.1716 -0.0872
 6610TIP3    H141321   2.458   3.074   4.212  0.0959 -0.2101 -1.2618
 6610TIP3    H241322   2.437   3.214   4.158  0.2414 -0.3534 -1.6933
 6611TIP3   OH241323   4.608   1.064   1.753 -0.3132  0.1394 -0.0547
 6611TIP3    H141324   4.632   0.986   1.803  0.4392 -0.0345 -0.6794
 6611TIP3    H241325   4.691   1.109   1.738 -0.2351 -0.9782 -3.1143
 6612TIP3   OH241326   3.689   6.540  13.951 -0.2921  0.4093  0.3326
 6612TIP3    H141327   3.721   6.556  13.862  0.7006  2.9519  1.1007
 6612TIP3    H241328   3.653   6.452  13.948  1.8945 -0.4499 -1.9707
 6613TIP3   OH241329   3.148   4.173   0.039  0.2963 -0.3111  0.1898
 6613TIP3    H141330   3.244   4.164   0.033  0.5634  2.4202 -0.2739
 6613TIP3    H241331   3.130   4.259   0.001 -2.3049 -0.5740  0.7706
 6614TIP3   OH241332   1.943   4.300  16.659  0.0269  0.3635  0.1391
 6614TIP3    H141333   1.848   4.293  16.657 -0.1837  3.0721 -1.7840
 6614TIP3    H241334   1.963   4.329  16.747 -1.0835  1.5977 -0.0093
 6615TIP3   OH241335   5.231   0.170   4.515 -0.3847  1.0777  0.1385
 6615TIP3    H141336   5.199   0.191   4.427  0.1030  2.1469  0.2082
 6615TIP3    H241337   5.297   0.102   4.500 -0.7539  0.8023 -0.2600
 6616TIP3   OH241338   4.377   6.121  15.270 -0.6624 -0.3765 -0.4239
 6616TIP3    H141339   4.429   6.077  15.337 -0.5546 -0.4376 -0.5476
 6616TIP3    H241340   4.430   6.113  15.190 -0.8002 -0.3214 -0.5194
 6617TIP3   OH241341   3.675   4.132   4.365 -0.3988 -0.7567 -0.8857
 6617TIP3    H141342   3.763   4.163   4.342  0.9794 -2.6922  1.5420
 6617TIP3    H241343   3.643   4.197   4.428  0.6020 -1.7057  0.6365
 6618TIP3   OH241344   5.354   4.966  15.140  0.2408 -0.6608  0.1997
 6618TIP3    H141345   5.415   4.980  15.068  0.4485  2.1869  0.8730
 6618TIP3    H241346   5.409   4.950  15.216  0.1154  0.3669  0.5078
 6619TIP3   OH241347   0.026   5.862   6.623 -0.3021  0.1748 -0.3548
 6619TIP3    H141348  -0.029   5.836   6.697  0.8917 -1.1367  0.1177
 6619TIP3    H241349   0.099   5.909   6.663 -1.2017  2.1516 -1.0000
 6620TIP3   OH241350   6.671   1.173  16.994 -0.0186  0.5575 -0.0199
 6620TIP3    H141351   6.651   1.137  17.080 -0.4112  0.6810 -0.0592
 6620TIP3    H241352   6.655   1.267  17.002  4.0692  1.2433  0.9941
 6621TIP3   OH241353   1.497   1.934  12.189 -0.5213 -0.3999  0.2305
 6621TIP3    H141354   1.530   1.851  12.155 -0.6908 -0.9245  1.3244
 6621TIP3    H241355   1.453   1.911  12.271  0.7516  0.9708  1.3271
 6622TIP3   OH241356   4.114   5.535   2.394  0.2168 -0.2558  0.0113
 6622TIP3    H141357   4.133   5.625   2.423 -1.3924  0.8262 -2.1786
 6622TIP3    H241358   4.200   5.500   2.369  0.5099  1.6516 -1.7672
 6623TIP3   OH241359   5.739   6.079  14.151 -0.4017 -0.3001 -0.3199
 6623TIP3    H141360   5.697   6.165  14.144  0.7466  0.2771 -0.2649
 6623TIP3    H241361   5.828   6.098  14.181  0.7118 -1.2909 -2.8135
 6624TIP3   OH241362   1.256   1.844   3.031  0.1655  0.1361 -0.1582
 6624TIP3    H141363   1.224   1.861   3.119  0.9385 -0.0331  0.1558
 6624TIP3    H241364   1.340   1.800   3.043  0.2678  0.0896 -0.9755
 6625TIP3   OH241365   2.469   5.638  17.043 -0.3386  0.9861  0.0467
 6625TIP3    H141366   2.484   5.696  16.968 -1.6699  1.3512  0.0426
 6625TIP3    H241367   2.548   5.584  17.048  0.3459  1.8822 -0.7805
 6626TIP3   OH241368   4.755   5.770  16.997  0.1079 -0.1460 -0.3474
 6626TIP3    H141369   4.677   5.748  17.047 -0.2721  1.2998 -0.2717
 6626TIP3    H241370   4.795   5.686  16.975 -0.8652 -0.8508  0.5701
 6627TIP3   OH241371   5.150   1.937  12.700  0.8373  0.1929  0.3783
 6627TIP3    H141372   5.140   1.951  12.606 -1.4864  2.2487  0.8946
 6627TIP3    H241373   5.120   1.847  12.714  0.5821  0.1011 -0.7524
 6628TIP3   OH241374   4.106   5.520  12.951 -0.3146 -0.1269  0.0248
 6628TIP3    H141375   4.107   5.576  13.029  2.2291  0.6447 -0.5139
 6628TIP3    H241376   4.094   5.580  12.878 -1.6002 -0.7390 -0.2890
 6629TIP3   OH241377   2.356   1.429  13.966 -0.1924  0.4705  0.2012
 6629TIP3    H141378   2.364   1.500  14.029  1.3159  0.3051  0.2115
 6629TIP3    H241379   2.366   1.349  14.019  0.9541  0.3286 -0.2125
 6630TIP3   OH241380   5.233   6.765  14.399  0.0056 -0.0328 -0.2792
 6630TIP3    H141381   5.247   6.677  14.364  0.6844 -0.3491  0.7697
 6630TIP3    H241382   5.297   6.819  14.353 -0.2528 -0.1286 -0.7564
 6631TIP3   OH241383   2.240   3.359  15.568 -0.7244 -0.4509 -0.9299
 6631TIP3    H141384   2.303   3.425  15.540 -1.0616  0.0749 -0.4584
 6631TIP3    H241385   2.289   3.277  15.566  0.1292  0.0245 -0.0699
 6632TIP3   OH241386   5.218   1.637  16.757  0.0623  0.3831 -0.2269
 6632TIP3    H141387   5.152   1.688  16.712  1.4970  1.7375 -0.8616
 6632TIP3    H241388   5.289   1.700  16.775  1.5900 -1.2270 -0.4467
 6633TIP3   OH241389   6.167   2.408   5.613 -0.4293 -0.1665 -0.2721
 6633TIP3    H141390   6.224   2.371   5.681  0.8999  2.4928  0.1274
 6633TIP3    H241391   6.095   2.345   5.605  0.8696 -1.9415  1.5697
 6634TIP3   OH241392   3.713   0.892  10.805 -0.4364  0.1282 -0.6351
 6634TIP3    H141393   3.642   0.891  10.741 -1.0064  0.3417 -0.0061
 6634TIP3    H241394   3.682   0.948  10.876 -1.1307 -2.6186  1.3327
 6635TIP3   OH241395   5.632   2.685   4.077  0.1230  0.2774 -1.0121
 6635TIP3    H141396   5.660   2.692   4.168 -0.3744  2.8999 -1.0077
 6635TIP3    H241397   5.691   2.620   4.038  1.1109  0.0069  0.8709
 6636TIP3   OH241398   2.247   1.230  16.832 -0.6054  0.4121  0.1185
 6636TIP3    H141399   2.177   1.170  16.806 -1.0031  1.0936 -0.4118
 6636TIP3    H241400   2.283   1.192  16.912 -1.4470 -0.0552  0.2837
 6637TIP3   OH241401   0.870   4.984   2.041  0.3871  0.7062 -0.2280
 6637TIP3    H141402   0.912   4.961   1.959  0.5071 -0.6307  0.1929
 6637TIP3    H241403   0.778   4.965   2.027  0.1291  2.2420 -0.6621
 6638TIP3   OH241404   5.972   4.232  16.853  0.6124  0.5773  0.1484
 6638TIP3    H141405   6.034   4.271  16.791  1.4847 -0.2641  0.4744
 6638TIP3    H241406   5.889   4.229  16.806  1.3202 -0.3085 -1.0837
 6639TIP3   OH241407   4.350   1.932   0.297  0.4982 -0.1378 -0.1726
 6639TIP3    H141408   4.363   2.025   0.313 -2.1030  0.3891 -0.8833
 6639TIP3    H241409   4.273   1.928   0.241  0.0786 -2.7694  0.5298
 6640TIP3   OH241410   3.391   1.262   1.265 -0.4807  0.1055  0.2995
 6640TIP3    H141411   3.315   1.218   1.226 -1.1718  1.8069 -0.3208
 6640TIP3    H241412   3.453   1.271   1.192  0.6051 -1.8410  0.9466
 6641TIP3   OH241413   6.237   1.613  16.722  0.1819  0.2971  0.0927
 6641TIP3    H141414   6.241   1.564  16.804 -1.0422  0.3414  0.1842
 6641TIP3    H241415   6.296   1.566  16.663 -0.6149 -1.0148  0.3160
 6642TIP3   OH241416   2.035   4.096  13.808 -0.2767  0.1726  0.5737
 6642TIP3    H141417   2.104   4.112  13.873 -1.7235 -0.2532  2.2349
 6642TIP3    H241418   1.962   4.152  13.836 -1.7544 -1.7567  0.6447
 6643TIP3   OH241419   0.583   4.969  13.202 -0.7318  1.1961 -0.1200
 6643TIP3    H141420   0.626   5.043  13.161  1.7286 -0.8083 -1.3074
 6643TIP3    H241421   0.613   4.970  13.293  1.7688 -0.0659 -0.8912
 6644TIP3   OH241422   4.394   0.298  12.450 -0.2375 -0.6434 -0.1225
 6644TIP3    H141423   4.330   0.294  12.521  1.8743 -0.9158  1.7947
 6644TIP3    H241424   4.474   0.262  12.487  0.9070 -0.8467 -2.6664
 6645TIP3   OH241425   2.230   1.813  11.906  0.0073  0.2530  0.2936
 6645TIP3    H141426   2.291   1.856  11.845  0.3839  0.4515  0.8019
 6645TIP3    H241427   2.260   1.722  11.909 -0.5230  0.0473 -0.4504
 6646TIP3   OH241428   5.915   3.433  11.005 -0.0361  0.0573  0.5693
 6646TIP3    H141429   5.892   3.355  11.055 -0.7293 -0.1871 -0.1298
 6646TIP3    H241430   5.961   3.400  10.929  0.2777  0.3801  0.6156
 6647TIP3   OH241431   0.517   3.807   2.952 -0.2533  0.2341  0.0188
 6647TIP3    H141432   0.580   3.812   3.024 -0.3213  0.4431  0.0658
 6647TIP3    H241433   0.563   3.848   2.878 -0.1465 -0.0688 -0.0857
 6648TIP3   OH241434   2.463   2.358  15.676  0.1755 -0.2391 -0.0441
 6648TIP3    H141435   2.441   2.428  15.737  1.3270 -0.7971  1.0497
 6648TIP3    H241436   2.436   2.390  15.590 -0.9119  0.8121  0.6825
 6649TIP3   OH241437   4.401   2.507   5.999 -0.1613  0.3712 -0.2603
 6649TIP3    H141438   4.482   2.535   6.042  0.1805  2.7341 -2.3602
 6649TIP3    H241439   4.417   2.415   5.976  2.3009  1.0906 -1.5351
 6650TIP3   OH241440   2.840   1.464  11.934 -0.3477 -0.3394 -0.8325
 6650TIP3    H141441   2.928   1.432  11.912  0.0137  0.8032 -1.0563
 6650TIP3    H241442   2.842   1.474  12.030 -0.6127 -1.4171 -0.7076
 6651TIP3   OH241443   4.204   1.003  11.836  0.1371  0.0457  0.1589
 6651TIP3    H141444   4.295   1.015  11.809  0.4829 -0.2853  1.1662
 6651TIP3    H241445   4.155   1.061  11.779  1.1585  1.5026  0.7336
 6652TIP3   OH241446   2.599   4.370   1.119  0.0845 -0.0951 -0.1469
 6652TIP3    H141447   2.637   4.457   1.127  0.8747 -0.4728  0.2430
 6652TIP3    H241448   2.636   4.320   1.192  1.1989 -1.3198 -1.5113
 6653TIP3   OH241449   1.664   6.554  11.800  0.1164  0.0090 -0.0041
 6653TIP3    H141450   1.593   6.509  11.755  0.4945  0.4776 -1.0829
 6653TIP3    H241451   1.678   6.635  11.750  1.3287 -0.0241  0.2534
 6654TIP3   OH241452   1.505   3.058  12.385  0.1065 -0.3406  0.3558
 6654TIP3    H141453   1.477   3.092  12.300  0.9939  1.2334  0.6830
 6654TIP3    H241454   1.549   2.976  12.364  0.8611  0.3345 -0.7680
 6655TIP3   OH241455   3.976   0.042  14.393 -0.0073  0.1100  0.4496
 6655TIP3    H141456   3.905   0.044  14.457  1.0593 -1.8621  1.7701
 6655TIP3    H241457   3.967  -0.044  14.351 -1.1975  1.6908 -2.6878
 6656TIP3   OH241458   5.948   3.254  12.001 -0.5885  0.1967 -0.0834
 6656TIP3    H141459   5.896   3.229  12.077 -0.2441  1.6886  0.6748
 6656TIP3    H241460   6.007   3.322  12.034 -0.7540  1.1966 -1.7860
 6657TIP3   OH241461   2.144   2.746   5.856 -0.0854  0.4060  0.3869
 6657TIP3    H141462   2.095   2.689   5.916 -0.1708  0.7702  0.6640
 6657TIP3    H241463   2.097   2.829   5.857 -1.2895 -0.2219 -1.7848
 6658TIP3   OH241464   0.108   6.413  15.727  0.1568  0.2061 -0.3421
 6658TIP3    H141465   0.128   6.504  15.703 -0.4307  1.3594  3.2470
 6658TIP3    H241466   0.019   6.416  15.761  0.1821 -1.6773 -0.0466
 6659TIP3   OH241467   4.404   3.451   0.267 -0.1434  0.1687 -0.0114
 6659TIP3    H141468   4.422   3.515   0.335  0.4075  0.1196 -0.1091
 6659TIP3    H241469   4.362   3.378   0.313  1.0682 -0.2623  0.4291
 6660TIP3   OH241470   3.192   6.492  15.635 -0.3113 -0.9950 -0.0801
 6660TIP3    H141471   3.235   6.454  15.558 -1.7918 -0.2483 -1.3169
 6660TIP3    H241472   3.106   6.520  15.602 -0.8110 -0.3147  1.7683
 6661TIP3   OH241473   2.563   5.126  14.612 -0.0790 -0.1782 -0.1200
 6661TIP3    H141474   2.638   5.184  14.603 -0.4803  0.5107  0.9366
 6661TIP3    H241475   2.598   5.038  14.596  0.9984  0.1157  0.5885
 6662TIP3   OH241476   4.559   6.802   0.495 -0.0346 -0.2264 -0.0423
 6662TIP3    H141477   4.519   6.740   0.434 -0.1436  1.6866 -1.9557
 6662TIP3    H241478   4.538   6.888   0.460  1.1047  0.9041  1.9444
 6663TIP3   OH241479   4.991   5.912  12.822 -0.3281  0.3058 -0.2024
 6663TIP3    H141480   4.945   5.963  12.889 -1.5802 -0.2511 -0.6025
 6663TIP3    H241481   4.937   5.922  12.743  0.5578  0.1033 -0.8438
 6664TIP3   OH241482   3.318   1.234   0.184 -0.1157  0.2399  0.7425
 6664TIP3    H141483   3.286   1.192   0.104  0.2406 -0.0747  0.7603
 6664TIP3    H241484   3.239   1.268   0.227 -0.3193  0.2973  0.3224
 6665TIP3   OH241485   1.138   5.395   0.208  0.3290  0.0791 -0.0808
 6665TIP3    H141486   1.211   5.436   0.161 -0.2648 -0.4324 -1.4969
 6665TIP3    H241487   1.060   5.436   0.170 -0.1114  2.7854  3.4656
 6666TIP3   OH241488   0.208   0.938  10.696 -0.1954 -0.1706  0.2869
 6666TIP3    H141489   0.120   0.957  10.663  0.3878 -0.3228 -1.4120
 6666TIP3    H241490   0.219   0.844  10.683  0.8998  0.1513 -1.2567
 6667TIP3   OH241491   0.725   4.064   4.173  0.1160  0.5278 -0.6153
 6667TIP3    H141492   0.735   4.044   4.266  0.7602  0.8358 -0.6165
 6667TIP3    H241493   0.806   4.109   4.149 -0.2311  0.8429 -1.2195
 6668TIP3   OH241494   5.391   3.779   2.156 -0.2789 -0.0406  0.1794
 6668TIP3    H141495   5.454   3.763   2.226 -1.0529 -0.4541  0.7902
 6668TIP3    H241496   5.429   3.737   2.079  0.2173 -0.2360  0.5334
 6669TIP3   OH241497   4.666   4.252   1.331  0.5199 -0.3498 -0.6241
 6669TIP3    H141498   4.600   4.184   1.315  0.4760  0.0221 -2.1550
 6669TIP3    H241499   4.705   4.229   1.415 -2.2680  0.0081  0.8139
 6670TIP3   OH241500   6.767   4.730  10.290  0.0816 -0.3946  0.4167
 6670TIP3    H141501   6.736   4.819  10.307  0.3741 -0.5818  2.0423
 6670TIP3    H241502   6.805   4.702  10.374 -0.1104 -2.0825 -0.0536
 6671TIP3   OH241503   4.448   2.461   4.798  0.7110 -0.4140  0.0238
 6671TIP3    H141504   4.395   2.381   4.799  1.2332 -0.7984 -1.6530
 6671TIP3    H241505   4.421   2.506   4.718  2.9642 -0.6523 -0.8887
 6672TIP3   OH241506   2.285   2.763  13.583  0.2168  0.1865  0.4894
 6672TIP3    H141507   2.293   2.687  13.526 -1.6005 -0.4231  1.0135
 6672TIP3    H241508   2.245   2.729  13.663 -2.0428  1.9320  0.1595
 6673TIP3   OH241509   3.388   3.793   1.838 -0.0825  0.4048 -0.0697
 6673TIP3    H141510   3.392   3.876   1.884 -0.6553  0.9739 -1.0221
 6673TIP3    H241511   3.431   3.730   1.896  1.3318  1.5796  0.1761
 6674TIP3   OH241512   4.384   0.801   0.823 -0.3867  0.1226 -0.2568
 6674TIP3    H141513   4.390   0.726   0.765  1.3427 -0.2252  0.3274
 6674TIP3    H241514   4.293   0.804   0.850 -0.7793 -0.8808 -1.4501
 6675TIP3   OH241515   1.928   3.222   2.200 -0.4286  0.7532 -0.0331
 6675TIP3    H141516   1.843   3.264   2.215 -0.5645  0.9274 -1.2197
 6675TIP3    H241517   1.912   3.163   2.126  0.1104 -0.3602  0.7311
 6676TIP3   OH241518   1.809   2.072  13.189 -0.2960  0.1234 -0.0492
 6676TIP3    H141519   1.743   2.079  13.121  1.0703  0.5522 -1.3527
 6676TIP3    H241520   1.827   2.163  13.214 -1.4612 -0.0713  1.5480
 6677TIP3   OH241521   4.962   2.357  11.280  0.0227  0.0636 -0.0832
 6677TIP3    H141522   4.892   2.403  11.233 -1.8561 -2.7453 -0.1442
 6677TIP3    H241523   5.005   2.425  11.332 -2.5918  1.9007 -0.2451
 6678TIP3   OH241524   2.507   3.229  15.591 -0.0260  0.1951 -0.2299
 6678TIP3    H141525   2.565   3.197  15.522  1.8677 -0.8074  1.7684
 6678TIP3    H241526   2.541   3.315  15.615 -1.7412  1.3286 -1.7035
 6679TIP3   OH241527   6.131   5.932  13.544 -0.4823  0.1046  0.7967
 6679TIP3    H141528   6.104   6.018  13.575  0.4126  0.2645  1.1405
 6679TIP3    H241529   6.093   5.871  13.607  0.2316  0.3477  1.4696
 6680TIP3   OH241530   6.142   4.681   0.770  0.6918 -0.3394  0.0685
 6680TIP3    H141531   6.117   4.737   0.843 -2.4643  0.4824 -1.5196
 6680TIP3    H241532   6.163   4.742   0.699 -0.6067 -1.1001 -1.0117
 6681TIP3   OH241533   2.496   5.414   5.370 -0.0762  0.1559  0.1995
 6681TIP3    H141534   2.565   5.388   5.431 -0.5717 -0.9704  0.2832
 6681TIP3    H241535   2.429   5.454   5.425  0.4080  1.0498  0.1435
 6682TIP3   OH241536   6.033   4.177  11.752  0.8126  0.0680 -0.5319
 6682TIP3    H141537   5.970   4.207  11.818  1.0276 -0.5051 -0.0655
 6682TIP3    H241538   6.114   4.224  11.772  0.8041  0.0908 -0.5489
 6683TIP3   OH241539   2.458   6.725   5.074 -0.1329  0.7200 -0.0366
 6683TIP3    H141540   2.436   6.785   5.002  0.8876  0.5483 -0.5041
 6683TIP3    H241541   2.458   6.638   5.034  0.7281  0.6525  0.0944
 6684TIP3   OH241542   2.017   3.465   2.667  0.8519 -0.2534  0.0725
 6684TIP3    H141543   2.087   3.404   2.644  1.2754  0.5181 -0.7441
 6684TIP3    H241544   1.936   3.416   2.652  1.0933  0.3246 -3.6162
 6685TIP3   OH241545   4.449   4.180   3.144 -0.0972 -0.0217  0.1940
 6685TIP3    H141546   4.500   4.143   3.217  2.1898  0.5465 -1.0682
 6685TIP3    H241547   4.358   4.176   3.175  0.9514  1.9559  3.8901
 6686TIP3   OH241548   4.438   2.044   0.647 -0.2142 -0.2978  1.1632
 6686TIP3    H141549   4.343   2.046   0.660 -0.3873 -0.7275  0.0151
 6686TIP3    H241550   4.463   2.136   0.640 -1.0996 -0.2502 -2.2968
 6687TIP3   OH241551   5.740   2.914   4.492 -0.4617  0.8480  0.2564
 6687TIP3    H141552   5.693   2.896   4.574 -0.7164  2.5425  0.4892
 6687TIP3    H241553   5.778   3.001   4.504  0.5254  0.5975 -0.9613
 6688TIP3   OH241554   5.942   5.083   0.737  0.1157 -0.5675 -0.2223
 6688TIP3    H141555   5.995   5.102   0.815 -0.1864 -0.3023 -0.0852
 6688TIP3    H241556   5.909   4.994   0.752 -0.9916 -0.0359  0.5419
 6689TIP3   OH241557   3.018   0.388  15.198 -0.0633 -0.0656  0.0452
 6689TIP3    H141558   3.070   0.445  15.141  1.1659  0.3385  1.5306
 6689TIP3    H241559   3.068   0.383  15.279 -1.4795 -1.1284  0.8811
 6690TIP3   OH241560   4.038   2.446   4.648 -0.1828 -0.1744 -0.1128
 6690TIP3    H141561   4.062   2.433   4.556 -0.3124  1.9033 -0.4503
 6690TIP3    H241562   4.063   2.536   4.667 -2.7607  0.3120  1.0870
 6691TIP3   OH241563   0.085   1.880   1.770  0.0609  0.3737  0.0288
 6691TIP3    H141564   0.170   1.922   1.761  0.3582 -0.2080  0.1127
 6691TIP3    H241565   0.099   1.810   1.835 -0.1010 -0.7226 -1.1057
 6692TIP3   OH241566   3.800   1.345   5.800 -0.9873  0.8204 -1.0891
 6692TIP3    H141567   3.872   1.282   5.793 -0.1594  1.2250  2.4131
 6692TIP3    H241568   3.838   1.428   5.771  0.3549  1.2434  1.6971
 6693TIP3   OH241569   1.833   3.897  10.418 -0.3147 -0.6416  0.1404
 6693TIP3    H141570   1.823   3.822  10.476  1.3879 -0.9730  0.0323
 6693TIP3    H241571   1.871   3.965  10.474 -1.7023  0.1093  0.1997
 6694TIP3   OH241572   3.953   1.273  11.103  0.6824  0.4040  0.1424
 6694TIP3    H141573   3.894   1.198  11.116 -0.5060  1.1875 -0.6152
 6694TIP3    H241574   3.905   1.331  11.043  1.9038  1.4277  0.1350
 6695TIP3   OH241575   4.561   5.312  14.239 -0.2065 -0.3884  0.4826
 6695TIP3    H141576   4.574   5.229  14.285  1.6217 -0.5020 -0.2065
 6695TIP3    H241577   4.474   5.341  14.266 -0.9003 -2.5637  0.6776
 6696TIP3   OH241578   3.079   4.543  14.973 -0.9847 -0.8790 -0.0428
 6696TIP3    H141579   3.139   4.598  14.923  1.8655 -3.1057  0.8423
 6696TIP3    H241580   2.996   4.548  14.924  1.1529 -1.4832 -3.9748
 6697TIP3   OH241581   6.257   5.033   5.103  0.7510 -0.3558 -0.0535
 6697TIP3    H141582   6.164   5.037   5.081  0.2610  1.5028  2.1672
 6697TIP3    H241583   6.302   5.062   5.023 -0.5083 -1.9349 -1.3608
 6698TIP3   OH241584   3.339   2.871  17.129  0.2478  0.2199  0.0422
 6698TIP3    H141585   3.335   2.777  17.117 -0.9489  0.3640 -0.8411
 6698TIP3    H241586   3.331   2.907  17.040 -0.4788  1.1801  0.4826
 6699TIP3   OH241587   2.508   0.775  16.773 -0.1001  0.0730  0.0067
 6699TIP3    H141588   2.511   0.867  16.797 -0.7875  0.6165 -1.8987
 6699TIP3    H241589   2.531   0.774  16.680 -1.0256 -1.5764 -0.2189
 6700TIP3   OH241590   5.766   6.354  10.447  0.4732 -0.4430  0.0372
 6700TIP3    H141591   5.684   6.400  10.465  1.1187  0.3165  1.0485
 6700TIP3    H241592   5.781   6.299  10.524  0.9677 -0.5201 -0.1113
 6701TIP3   OH241593   5.689   2.127  16.660  0.0663 -0.5456  0.0965
 6701TIP3    H141594   5.683   2.188  16.586  2.8252  0.1754  0.4186
 6701TIP3    H241595   5.646   2.047  16.628 -2.0158  0.9393 -0.9501
 6702TIP3   OH241596   3.583   0.638   0.873 -0.0247  0.3339  0.0265
 6702TIP3    H141597   3.561   0.574   0.805  0.4491  0.1070  0.0826
 6702TIP3    H241598   3.676   0.654   0.860 -0.3804  1.8483 -0.6884
 6703TIP3   OH241599   3.887   3.812  14.974 -0.3952 -0.0368  0.1344
 6703TIP3    H141600   3.883   3.863  14.893  1.2542  0.2087  0.1776
 6703TIP3    H241601   3.796   3.801  15.000 -0.8715  1.2452 -0.9022
 6704TIP3   OH241602   1.684   5.462  13.686 -0.2374  0.2119 -0.0429
 6704TIP3    H141603   1.738   5.385  13.666  1.2580  0.4768  2.6178
 6704TIP3    H241604   1.708   5.526  13.619 -0.0626 -0.9935 -1.1444
 6705TIP3   OH241605   4.391   0.435   1.646 -0.2232 -0.1017 -0.3702
 6705TIP3    H141606   4.319   0.445   1.583 -2.0031 -0.1974  1.5775
 6705TIP3    H241607   4.379   0.506   1.708  2.4289  0.9165 -0.9533
 6706TIP3   OH241608   3.253   3.025  11.444  0.0044 -0.2410  0.3826
 6706TIP3    H141609   3.198   3.040  11.367  0.9228  0.0721 -0.2235
 6706TIP3    H241610   3.296   3.109  11.458 -1.4146  0.1986  2.2557
 6707TIP3   OH241611   0.160   2.283   0.330 -0.3955 -0.3443 -0.6910
 6707TIP3    H141612   0.241   2.267   0.378  0.2828 -0.7060 -1.9262
 6707TIP3    H241613   0.102   2.211   0.356  0.6490 -1.6349 -1.8716
 6708TIP3   OH241614   6.535   6.266  15.900 -0.5172  0.0159 -1.1319
 6708TIP3    H141615   6.576   6.326  15.838  2.8528  0.1891  1.1504
 6708TIP3    H241616   6.475   6.321  15.951 -0.7857  0.5314 -1.9942
 6709TIP3   OH241617   0.143   4.038  13.489 -0.1511  0.0633  0.1534
 6709TIP3    H141618   0.117   4.034  13.396  1.4953  1.4666 -0.3899
 6709TIP3    H241619   0.062   4.020  13.537 -1.3704  0.8457 -1.5482
 6710TIP3   OH241620   4.957   2.832  11.425  0.2046  0.0295  0.5745
 6710TIP3    H141621   5.033   2.876  11.464  0.1887  0.7058 -0.1382
 6710TIP3    H241622   4.923   2.896  11.362 -1.3008 -0.0331  1.3088
 6711TIP3   OH241623   6.130   1.061  12.391  0.3796 -0.2870 -0.2860
 6711TIP3    H141624   6.086   1.112  12.459  0.6036 -2.6436  1.7132
 6711TIP3    H241625   6.180   1.125  12.341  1.1064  1.4095  2.4922
 6712TIP3   OH241626   1.265   1.583   0.366 -0.4722 -0.2132 -0.6215
 6712TIP3    H141627   1.176   1.615   0.384 -0.4010  0.5989 -1.6624
 6712TIP3    H241628   1.316   1.611   0.442 -1.7026 -3.3206  1.4401
 6713TIP3   OH241629   4.717   2.103   2.230 -0.2836  0.5670  0.8058
 6713TIP3    H141630   4.658   2.145   2.293 -0.4184  0.0428  1.0334
 6713TIP3    H241631   4.740   2.019   2.271  0.7275  0.8178  0.7806
 6714TIP3   OH241632   0.379   3.862  15.935 -0.2597 -0.5931 -0.0419
 6714TIP3    H141633   0.319   3.895  15.867  1.7998  2.2419 -0.6029
 6714TIP3    H241634   0.396   3.938  15.990  2.3080 -1.5055  0.4778
 6715TIP3   OH241635   2.635   1.756  14.466 -0.3680  0.0073 -0.1112
 6715TIP3    H141636   2.597   1.793  14.546 -2.0894 -1.1139 -0.3970
 6715TIP3    H241637   2.562   1.713  14.422  0.6696  0.1678 -2.0473
 6716TIP3   OH241638   5.487   0.400  16.388  0.1429  0.3136 -0.4050
 6716TIP3    H141639   5.442   0.331  16.340 -0.5901 -0.1839  0.9484
 6716TIP3    H241640   5.466   0.382  16.480  0.7049  1.7961  0.0291
 6717TIP3   OH241641   1.479   3.137   0.579  0.1873 -0.3386  0.7213
 6717TIP3    H141642   1.520   3.214   0.539  0.9864  0.6089  3.2525
 6717TIP3    H241643   1.459   3.165   0.668  0.4373 -3.0573  1.6654
 6718TIP3   OH241644   1.254   5.565   1.019  0.5478 -0.4702  0.2125
 6718TIP3    H141645   1.343   5.576   0.987 -0.0364 -0.3833 -1.4515
 6718TIP3    H241646   1.263   5.518   1.102  2.4370  3.3623  2.3029
 6719TIP3   OH241647   5.213   4.348  12.186  0.0565  0.2641 -0.2067
 6719TIP3    H141648   5.215   4.405  12.109  1.2225 -1.4348 -1.4745
 6719TIP3    H241649   5.130   4.367  12.228 -0.3724  1.5953 -1.6033
 6720TIP3   OH241650   1.748   5.894   0.329  0.3445  0.3493 -0.3429
 6720TIP3    H141651   1.689   5.819   0.324 -2.5808  2.4563  0.9881
 6720TIP3    H241652   1.786   5.901   0.242 -1.8825 -0.6959 -1.4257
 6721TIP3   OH241653   5.272   3.240   4.107 -0.2492 -0.3713 -0.0743
 6721TIP3    H141654   5.344   3.205   4.053 -0.1085 -1.3699  0.7397
 6721TIP3    H241655   5.299   3.329   4.129  0.1865 -0.3297 -0.7741
 6722TIP3   OH241656   1.537   2.396   6.925 -0.3683 -0.2768  0.3612
 6722TIP3    H141657   1.532   2.325   6.989  0.5517 -0.2348  0.4846
 6722TIP3    H241658   1.498   2.358   6.846 -0.9457 -0.5307  0.7611
 6723TIP3   OH241659   4.274   3.710  16.557 -0.1976  0.3638 -0.0001
 6723TIP3    H141660   4.270   3.636  16.617  2.8206  1.5328  1.8066
 6723TIP3    H241661   4.354   3.696  16.506  0.1883  2.1037  0.0678
 6724TIP3   OH241662   4.720   5.212  12.913 -0.0288 -0.3787  0.5538
 6724TIP3    H141663   4.718   5.205  12.817 -0.4259 -1.4811  0.6328
 6724TIP3    H241664   4.788   5.277  12.931 -1.6508  1.6675 -0.5569
 6725TIP3   OH241665   0.075   5.883   3.710  0.5327  0.1695  0.7063
 6725TIP3    H141666   0.016   5.900   3.784  0.8152  1.3918  0.6647
 6725TIP3    H241667   0.141   5.952   3.716  0.0115  0.8685 -1.2459
 6726TIP3   OH241668   6.009   2.695   0.537 -0.4054  0.0268 -0.9125
 6726TIP3    H141669   5.915   2.689   0.554 -0.5013  1.1745 -0.9969
 6726TIP3    H241670   6.032   2.785   0.557  0.6785 -0.2322 -0.9269
 6727TIP3   OH241671   2.806   1.797  15.884  0.1566  0.1790  0.1701
 6727TIP3    H141672   2.750   1.874  15.891  2.2720  1.9948 -2.0290
 6727TIP3    H241673   2.752   1.732  15.840 -1.0911  1.0046  0.4595
 6728TIP3   OH241674   0.678   0.841   0.593  0.0350  0.2535 -0.5662
 6728TIP3    H141675   0.744   0.814   0.529  1.6360 -0.3525  1.2907
 6728TIP3    H241676   0.706   0.928   0.620 -0.4386  0.3584 -0.4177
 6729TIP3   OH241677   5.329   2.118   1.489 -0.0209 -0.4305  0.1963
 6729TIP3    H141678   5.358   2.110   1.398 -0.4999  1.4965 -0.1352
 6729TIP3    H241679   5.237   2.143   1.483 -0.1937 -0.8133  1.2320
 6730TIP3   OH241680   0.165   6.309   4.235 -0.1310  0.6896 -0.1973
 6730TIP3    H141681   0.232   6.319   4.303 -2.0300 -0.9318  2.0207
 6730TIP3    H241682   0.094   6.262   4.279 -2.1249  1.0862 -2.8815
 6731TIP3   OH241683   4.329   3.769   6.367 -0.2517  0.1225  0.4568
 6731TIP3    H141684   4.239   3.794   6.388  0.2178  0.5687  1.9708
 6731TIP3    H241685   4.354   3.827   6.295 -1.6995 -1.0739 -1.0784
 6732TIP3   OH241686   0.505   6.290   1.328 -0.0076  0.7101 -0.3997
 6732TIP3    H141687   0.565   6.328   1.263 -0.0528  1.5813  0.0655
 6732TIP3    H241688   0.555   6.287   1.409  0.4476 -1.5091 -0.7483
 6733TIP3   OH241689   0.488   2.372   5.484 -0.0747 -0.5751  0.2866
 6733TIP3    H141690   0.454   2.413   5.405 -1.6865 -0.7897  0.8519
 6733TIP3    H241691   0.583   2.382   5.477 -0.2391  0.0341 -1.3226
 6734TIP3   OH241692   2.734   4.211  13.158 -0.1650  0.0466  0.3450
 6734TIP3    H141693   2.647   4.171  13.166  0.2929 -0.8413  1.0491
 6734TIP3    H241694   2.781   4.180  13.236  0.4317  1.3958  0.5306
 6735TIP3   OH241695   6.270   1.024   1.179 -0.3608 -0.5007  0.2935
 6735TIP3    H141696   6.264   1.050   1.270 -0.5833 -2.8249  0.9796
 6735TIP3    H241697   6.353   0.978   1.172 -0.0460  0.2153 -0.8314
 6736TIP3   OH241698   3.663   6.372   6.472 -0.2144 -0.0746  0.1222
 6736TIP3    H141699   3.665   6.466   6.490  1.4453 -0.0597  0.0062
 6736TIP3    H241700   3.756   6.347   6.471 -0.6383 -1.6513 -0.1445
 6737TIP3   OH241701   6.387   2.652   6.155 -0.1556  0.1846  0.0631
 6737TIP3    H141702   6.427   2.587   6.213 -1.5884  0.7521  1.7162
 6737TIP3    H241703   6.461   2.704   6.124  0.8853 -1.5476 -0.4432
 6738TIP3   OH241704   4.960   3.068  10.967 -0.2985  0.8814  0.4108
 6738TIP3    H141705   5.025   3.109  10.910 -1.5289  3.4798  0.7871
 6738TIP3    H241706   4.877   3.080  10.920 -0.8301 -0.2411  1.0587
 6739TIP3   OH241707   3.510   4.762   4.758  0.5570  0.3886  0.0715
 6739TIP3    H141708   3.487   4.673   4.731 -0.1319  0.7953 -0.7321
 6739TIP3    H241709   3.593   4.753   4.805  1.4725 -0.4445 -1.6634
 6740TIP3   OH241710   5.709   5.799  11.364  0.1807 -1.0005 -0.1529
 6740TIP3    H141711   5.651   5.871  11.340  0.4896 -0.5801  0.3428
 6740TIP3    H241712   5.721   5.750  11.283  0.9324  0.2064 -0.7920
 6741TIP3   OH241713   5.295   0.648   3.476 -0.0954 -0.1007 -0.0975
 6741TIP3    H141714   5.368   0.614   3.424  0.5931  0.4878  0.4795
 6741TIP3    H241715   5.286   0.739   3.447  0.1636  0.1701  0.6788
 6742TIP3   OH241716   6.342   1.432   0.496  0.0774 -0.1067 -0.4119
 6742TIP3    H141717   6.429   1.402   0.471 -0.0070 -1.8039  1.2190
 6742TIP3    H241718   6.324   1.506   0.437  2.6004  0.2794 -0.7370
 6743TIP3   OH241719   5.889   3.465  14.067  0.0368  0.2096 -0.1501
 6743TIP3    H141720   5.886   3.542  14.124  1.1360 -0.1063  0.3492
 6743TIP3    H241721   5.962   3.481  14.008  2.0597 -1.6560  1.7386
 6744TIP3   OH241722   5.249   0.014   4.963 -0.3018  0.0752 -0.0852
 6744TIP3    H141723   5.185   0.083   4.942  0.7215  0.6612 -1.3147
 6744TIP3    H241724   5.304   0.007   4.885  0.0957 -1.6108  0.3268
 6745TIP3   OH241725   5.015   3.607   0.863  0.3046 -0.0458  0.2362
 6745TIP3    H141726   5.089   3.599   0.804  1.0020  0.5827  1.0133
 6745TIP3    H241727   5.046   3.664   0.933 -1.1979  0.9289  0.1308
 6746TIP3   OH241728   4.828   4.854   3.597  0.3592 -0.2242  0.1401
 6746TIP3    H141729   4.838   4.825   3.688 -0.5641  1.7780  0.9060
 6746TIP3    H241730   4.904   4.816   3.552  2.0503  0.5763  2.2195
 6747TIP3   OH241731   5.622   4.134  12.551 -0.0961  0.0737 -0.2011
 6747TIP3    H141732   5.667   4.211  12.586  0.9476 -1.5463  2.1531
 6747TIP3    H241733   5.553   4.116  12.614  0.7086 -1.8747  0.1408
 6748TIP3   OH241734   5.254   2.187   1.148  0.0681  0.2287  0.0649
 6748TIP3    H141735   5.171   2.166   1.103 -0.1064 -0.5914  0.7651
 6748TIP3    H241736   5.321   2.145   1.094  0.1137  1.5623 -0.9486
 6749TIP3   OH241737   2.371   2.464   3.745 -0.0168  0.2220  0.2389
 6749TIP3    H141738   2.440   2.398   3.746 -1.5024 -1.3935 -0.5597
 6749TIP3    H241739   2.320   2.446   3.824  0.1035  1.0160  0.5037
 6750TIP3   OH241740   2.806   3.506  14.217 -0.0106 -0.1138  0.3523
 6750TIP3    H141741   2.848   3.461  14.290 -2.2815 -1.2545  1.0056
 6750TIP3    H241742   2.713   3.483  14.225 -0.4673  0.7042 -2.2058
 6751TIP3   OH241743   1.327   4.046  12.542 -0.1426 -0.2902 -0.1637
 6751TIP3    H141744   1.396   4.091  12.494 -0.4750  1.8162  1.2865
 6751TIP3    H241745   1.372   4.006  12.617 -0.4389  0.8143  0.6074
 6752TIP3   OH241746   6.651   2.404  17.009  0.4371  0.3638 -0.2950
 6752TIP3    H141747   6.658   2.376  17.100  2.8467 -1.1786 -0.8989
 6752TIP3    H241748   6.728   2.459  16.995  0.2467  0.3455 -1.4570
 6753TIP3   OH241749   3.578   2.716  17.193  0.0052  0.4212  0.0534
 6753TIP3    H141750   3.505   2.738  17.251  0.3174  1.5681  0.0182
 6753TIP3    H241751   3.656   2.721  17.249  0.0090 -1.5112  0.2716
 6754TIP3   OH241752   3.584   0.972  17.005  0.5424  0.1779 -0.4014
 6754TIP3    H141753   3.576   1.066  16.992  0.8842  0.1581 -0.7800
 6754TIP3    H241754   3.652   0.945  16.944  0.1426 -0.3824 -0.6101
 6755TIP3   OH241755   2.209   0.482  12.352  0.1544 -0.0222 -0.2569
 6755TIP3    H141756   2.251   0.462  12.435  0.8510  1.4849 -0.2219
 6755TIP3    H241757   2.173   0.399  12.322  2.0580 -1.0672  0.3256
 6756TIP3   OH241758   3.290   2.021   2.844 -0.0725  0.4798  0.4225
 6756TIP3    H141759   3.239   2.052   2.919  1.8708 -1.1291  2.4646
 6756TIP3    H241760   3.253   1.935   2.824 -0.6170  0.9245 -0.5266
 6757TIP3   OH241761   3.345   0.203   4.870 -0.5246  0.2384  0.0868
 6757TIP3    H141762   3.258   0.204   4.831 -1.3424 -0.9122  1.7936
 6757TIP3    H241763   3.395   0.267   4.820 -2.0537  0.1571 -1.5815
 6758TIP3   OH241764   5.860   4.344   4.355 -0.3379 -0.2095  0.7380
 6758TIP3    H141765   5.815   4.366   4.437 -0.5781  0.1851  0.5021
 6758TIP3    H241766   5.807   4.276   4.315 -0.4880 -0.0509  0.6686
 6759TIP3   OH241767   2.047   0.046   5.951  0.0102  0.1667  0.3828
 6759TIP3    H141768   2.121  -0.014   5.948  0.3848  0.5288  2.0679
 6759TIP3    H241769   2.087   0.133   5.948 -0.4753  0.3671 -0.8522
 6760TIP3   OH241770   3.746   1.990   0.756 -0.7914 -0.2350  0.0928
 6760TIP3    H141771   3.696   2.019   0.832 -0.1723  0.7497  0.1294
 6760TIP3    H241772   3.740   2.063   0.694  0.1607 -0.3132 -0.1032
 6761TIP3   OH241773   5.781   5.293  14.452  0.1860  0.5259 -0.4078
 6761TIP3    H141774   5.708   5.339  14.493  0.7165  1.2342 -0.2416
 6761TIP3    H241775   5.797   5.217  14.508 -0.0045  0.7191 -0.0930
 6762TIP3   OH241776   5.575   3.064  15.716 -0.2953 -0.0118  0.1759
 6762TIP3    H141777   5.485   3.062  15.681  0.5355  1.1361 -2.0863
 6762TIP3    H241778   5.631   3.072  15.639  1.6687  1.5586  1.7070
 6763TIP3   OH241779   6.419   5.406   0.236  0.7491  0.2019 -0.1436
 6763TIP3    H141780   6.497   5.440   0.281  0.7985  1.1111 -0.9131
 6763TIP3    H241781   6.346   5.448   0.281  0.7642  0.4735 -0.3728
 6764TIP3   OH241782   1.438   4.193   0.499  0.3745  0.7759 -0.1728
 6764TIP3    H141783   1.373   4.249   0.456  1.7226  2.1963 -0.3943
 6764TIP3    H241784   1.516   4.200   0.444  1.7754  1.7434  1.8769
 6765TIP3   OH241785   0.933   3.867  12.016  0.1319  0.2587  0.0440
 6765TIP3    H141786   0.902   3.915  12.092 -1.6509  0.4906 -0.8107
 6765TIP3    H241787   0.941   3.933  11.947 -1.2302 -0.4425 -0.8118
 6766TIP3   OH241788   4.846   4.761  16.683 -0.0870  0.5308  0.4595
 6766TIP3    H141789   4.845   4.703  16.607 -1.4233  0.0322  0.8427
 6766TIP3    H241790   4.767   4.815  16.672  0.5543  1.5319  0.6844
 6767TIP3   OH241791   4.170   2.406  13.345 -0.6283  0.1695 -0.0800
 6767TIP3    H141792   4.153   2.489  13.300  0.9735  0.2530 -0.5495
 6767TIP3    H241793   4.229   2.430  13.417 -2.5527 -0.0860  1.6234
 6768TIP3   OH241794   1.979   3.728   1.314 -0.3206  0.1882  0.3975
 6768TIP3    H141795   2.040   3.795   1.342 -0.4089  1.6068 -2.6078
 6768TIP3    H241796   2.022   3.645   1.336  1.7444  1.1812  0.1780
 6769TIP3   OH241797   1.444   2.729   0.215  0.3245 -0.7212  0.2192
 6769TIP3    H141798   1.452   2.800   0.279  2.3277 -1.3912  0.7512
 6769TIP3    H241799   1.350   2.709   0.214 -0.0033  0.5972  1.5199
 6770TIP3   OH241800   5.730   6.293   6.147 -0.1491 -0.4220 -0.2112
 6770TIP3    H141801   5.725   6.381   6.185  0.0998 -0.5438  0.1059
 6770TIP3    H241802   5.736   6.308   6.053  0.4947 -0.0733 -0.1228
 6771TIP3   OH241803   3.066   3.478  15.045  0.0571  0.3323  0.2390
 6771TIP3    H141804   2.996   3.450  14.986  0.0488 -1.9031  1.2915
 6771TIP3    H241805   3.132   3.409  15.039  1.2644  1.4015  0.8351
 6772TIP3   OH241806   5.219   6.385  15.984 -0.0558 -0.1449 -0.0918
 6772TIP3    H141807   5.232   6.403  16.077  2.8130  0.5729 -0.5953
 6772TIP3    H241808   5.166   6.305  15.983 -0.4627  0.0607  2.1420
 6773TIP3   OH241809   2.114   4.767   1.331  0.7816 -0.0287 -0.2774
 6773TIP3    H141810   2.101   4.681   1.372  0.9179  0.1939  0.2413
 6773TIP3    H241811   2.086   4.755   1.240 -2.7074  0.3169  0.6909
 6774TIP3   OH241812   3.344   4.187   6.362  0.1944 -0.6292  0.1792
 6774TIP3    H141813   3.407   4.122   6.396  1.5989 -0.3592 -1.8033
 6774TIP3    H241814   3.388   4.271   6.375 -0.2924 -0.3376 -0.0738
 6775TIP3   OH241815   6.649   4.443  17.174  0.0350  0.4597 -0.1896
 6775TIP3    H141816   6.625   4.529  17.138 -0.7899 -0.5543 -2.1431
 6775TIP3    H241817   6.605   4.439  17.259  0.4683  2.1493  0.1270
 6776TIP3   OH241818   1.406   5.377  16.385 -0.4176 -0.5028  0.0617
 6776TIP3    H141819   1.382   5.376  16.292  0.3495 -0.2886 -0.1448
 6776TIP3    H241820   1.335   5.424  16.427 -0.4802 -0.0801 -0.5055
 6777TIP3   OH241821   6.357   4.413  14.108 -0.5818 -0.4273  0.4867
 6777TIP3    H141822   6.370   4.434  14.201 -0.9729  2.5397 -0.0815
 6777TIP3    H241823   6.265   4.434  14.092 -0.5741 -1.1694 -0.5069
 6778TIP3   OH241824   0.529   2.388   2.429 -0.5262  0.5016  0.2819
 6778TIP3    H141825   0.554   2.391   2.337  0.1239 -0.5451  0.4095
 6778TIP3    H241826   0.480   2.469   2.444  0.1314  1.0971 -0.7569
 6779TIP3   OH241827   1.342   0.741   5.012 -0.3187  0.0267 -0.9953
 6779TIP3    H141828   1.395   0.786   4.946 -0.1283 -0.2508 -1.0289
 6779TIP3    H241829   1.303   0.667   4.966  0.2548 -0.4861 -0.6610
 6780TIP3   OH241830   3.213   5.783   5.660  0.2055  0.1022  0.6885
 6780TIP3    H141831   3.298   5.808   5.696  1.2948 -1.2991 -0.8355
 6780TIP3    H241832   3.177   5.721   5.724  1.0348 -0.4971  0.5752
 6781TIP3   OH241833   3.802   4.062  11.652 -0.4996 -0.1224  0.0947
 6781TIP3    H141834   3.778   4.135  11.596 -0.9524  0.4739  1.0396
 6781TIP3    H241835   3.724   4.006  11.654 -0.3670 -0.3181 -0.1325
 6782TIP3   OH241836   5.320   3.074  15.626  0.2499 -0.4015  0.6490
 6782TIP3    H141837   5.297   2.982  15.611  1.7027 -0.7830  0.6818
 6782TIP3    H241838   5.334   3.109  15.538 -1.9791  0.2543  0.5301
 6783TIP3   OH241839   4.113   4.238   4.376 -0.2387 -0.0820  0.0424
 6783TIP3    H141840   4.127   4.151   4.415  2.0648  0.1834 -0.0907
 6783TIP3    H241841   4.037   4.273   4.423 -2.1763 -2.7669 -0.9890
 6784TIP3   OH241842   3.928   4.888   0.155  0.5454  0.1406 -0.0823
 6784TIP3    H141843   3.833   4.902   0.158  0.4459 -0.0801 -1.8310
 6784TIP3    H241844   3.939   4.793   0.154  0.7251  0.1663 -1.1400
 6785TIP3   OH241845   1.609   4.193   0.271  0.2955  0.3986 -0.7429
 6785TIP3    H141846   1.693   4.238   0.259  1.1661 -0.0831  2.9355
 6785TIP3    H241847   1.634   4.104   0.296 -1.3155  0.3269  0.6522
 6786TIP3   OH241848   5.992   3.993  16.649 -0.0063 -0.2457 -0.2923
 6786TIP3    H141849   5.901   4.014  16.626  0.1116 -0.8851 -1.4062
 6786TIP3    H241850   5.988   3.961  16.739 -0.7782  0.4600 -0.0722
 6787TIP3   OH241851   0.703   3.578   0.833  0.1865 -0.1391  0.4787
 6787TIP3    H141852   0.672   3.669   0.830  0.0987 -0.1667  0.5509
 6787TIP3    H241853   0.623   3.525   0.828  0.1908 -0.2080  1.0334
 6788TIP3   OH241854   4.116   4.144   3.133  0.2531  0.3559  0.2858
 6788TIP3    H141855   4.133   4.093   3.054  0.3448  0.0552  0.4991
 6788TIP3    H241856   4.117   4.079   3.204  1.3499  0.7888  0.6777
 6789TIP3   OH241857   2.904   1.321   0.050 -0.0741  0.0431 -0.0935
 6789TIP3    H141858   2.912   1.376   0.128  0.9022 -0.8225  0.4289
 6789TIP3    H241859   2.987   1.333   0.004  0.4228 -1.4926  0.3660
 6790TIP3   OH241860   5.119   0.387  14.101  0.2972 -0.8357  0.2326
 6790TIP3    H141861   5.212   0.376  14.118  0.5633  0.9165 -0.0067
 6790TIP3    H241862   5.100   0.325  14.031  1.1968 -1.4990  0.5741
 6791TIP3   OH241863   3.715   4.095  12.376 -0.4221  0.3486 -0.4138
 6791TIP3    H141864   3.805   4.077  12.401 -0.3573 -0.1319 -0.9708
 6791TIP3    H241865   3.691   4.174  12.425 -0.1362 -0.2753  0.7455
 6792TIP3   OH241866   2.137   4.282  13.594 -0.5243  0.5898 -0.0236
 6792TIP3    H141867   2.191   4.203  13.587  0.4942  1.2634  0.1065
 6792TIP3    H241868   2.050   4.253  13.568  0.1466 -0.2431 -1.4065
 6793TIP3   OH241869   6.359   4.912  14.685  0.0051  0.0307 -0.4221
 6793TIP3    H141870   6.353   5.007  14.695 -0.3092  0.0262 -0.5707
 6793TIP3    H241871   6.268   4.882  14.685  0.1218 -0.3241  0.1453
 6794TIP3   OH241872   4.305   6.585  12.554 -0.0330 -0.6275  0.3655
 6794TIP3    H141873   4.324   6.666  12.602  0.9581 -1.1683  0.9016
 6794TIP3    H241874   4.289   6.520  12.623  1.0270 -1.3239 -0.0388
 6795TIP3   OH241875   3.217   3.442   3.183  0.4127  0.0733  0.7241
 6795TIP3    H141876   3.268   3.362   3.170 -1.5036 -0.8812 -1.1656
 6795TIP3    H241877   3.198   3.442   3.277  1.1875 -1.2154  0.9055
 6796TIP3   OH241878   0.381   6.196   6.164 -0.0061  0.3423  0.2397
 6796TIP3    H141879   0.295   6.157   6.182  0.5503 -1.3343 -0.5509
 6796TIP3    H241880   0.399   6.171   6.073  2.3203 -1.3344  1.1123
 6797TIP3   OH241881   6.819   3.420  11.562 -0.3252 -0.4586  0.2467
 6797TIP3    H141882   6.790   3.456  11.645  1.9906  1.6633  0.2206
 6797TIP3    H241883   6.915   3.421  11.568 -0.1411 -1.0356 -2.0998
 6798TIP3   OH241884   4.170   2.917   4.845 -0.2468 -0.1066  0.2332
 6798TIP3    H141885   4.120   2.853   4.895  0.9231  0.3093  2.0276
 6798TIP3    H241886   4.257   2.878   4.837 -0.6350 -0.5517 -2.3109
 6799TIP3   OH241887   1.752   5.203  10.576 -0.2237  0.7966  0.2941
 6799TIP3    H141888   1.737   5.228  10.667 -0.2310 -0.6166  0.6939
 6799TIP3    H241889   1.671   5.161  10.548  0.7331 -1.2881  0.5362
 6800TIP3   OH241890   3.098   6.487   2.483 -0.6540  0.0329  0.0391
 6800TIP3    H141891   3.099   6.417   2.549  0.6391 -0.3567 -0.3815
 6800TIP3    H241892   3.039   6.454   2.415 -0.8548 -0.1905  0.3152
 6801TIP3   OH241893   5.868   4.443   0.549  0.0996 -0.1103  0.3817
 6801TIP3    H141894   5.859   4.354   0.514 -0.7736  0.3570 -0.5935
 6801TIP3    H241895   5.779   4.467   0.576  0.4284  0.2674  1.1478
 6802TIP3   OH241896   3.637   4.102  14.644  0.5484 -0.0454  0.1383
 6802TIP3    H141897   3.564   4.072  14.698 -1.0056  0.2978 -1.7042
 6802TIP3    H241898   3.715   4.064  14.685 -0.5870  0.0566  2.4715
 6803TIP3   OH241899   5.500   6.184  15.953 -0.4644 -0.2013  0.3743
 6803TIP3    H141900   5.441   6.181  15.878 -1.6871  2.8357  1.1303
 6803TIP3    H241901   5.588   6.192  15.915 -1.0215  0.6299 -0.7605
 6804TIP3   OH241902   6.819   6.128   3.507 -0.0742  0.5197  0.4729
 6804TIP3    H141903   6.751   6.064   3.485  1.2321 -0.7142 -0.0606
 6804TIP3    H241904   6.870   6.086   3.576  1.1352  0.7474 -0.2631
 6805TIP3   OH241905   6.694   6.485   6.096 -0.1891  0.3654 -0.1214
 6805TIP3    H141906   6.671   6.392   6.100  0.1422  0.2657 -0.4307
 6805TIP3    H241907   6.638   6.521   6.027  1.2196 -0.0797 -1.5402
 6806TIP3   OH241908   6.741   1.855   4.161  0.2611 -0.0166 -0.1707
 6806TIP3    H141909   6.727   1.778   4.217  0.3568  0.6056  0.7264
 6806TIP3    H241910   6.672   1.850   4.095 -0.9997  0.2175  1.1036
 6807TIP3   OH241911   5.473   1.135  12.229  0.7489  0.2736  0.0766
 6807TIP3    H141912   5.548   1.077  12.216  0.5464  0.2140 -0.8671
 6807TIP3    H241913   5.475   1.194  12.154 -0.7520 -0.4050 -0.5191
 6808TIP3   OH241914   5.704   6.800   1.368 -0.2676  0.2202 -0.6232
 6808TIP3    H141915   5.770   6.778   1.434 -1.0309 -1.4190 -0.3714
 6808TIP3    H241916   5.726   6.889   1.340  1.3270  0.1351  0.3125
 6809TIP3   OH241917   0.927   1.750  12.378 -0.2569  0.4777  0.2549
 6809TIP3    H141918   0.912   1.843  12.396  0.9563  0.9009 -0.8787
 6809TIP3    H241919   0.966   1.748  12.291 -0.5396 -1.1229  0.1461
 6810TIP3   OH241920   0.680   6.066   3.567  0.3163 -0.6023 -0.0383
 6810TIP3    H141921   0.707   6.114   3.489  1.0246 -0.1227  0.5068
 6810TIP3    H241922   0.631   6.130   3.619  0.7446 -0.6358  0.4059
 6811TIP3   OH241923   4.503   4.991  16.321  0.0132  0.1700 -0.8348
 6811TIP3    H141924   4.473   4.932  16.251  1.4052 -2.3629  0.6058
 6811TIP3    H241925   4.424   5.007  16.373 -0.2607 -1.0062 -0.8603
 6812TIP3   OH241926   1.855   0.293   0.175 -0.5163  0.3099  0.1546
 6812TIP3    H141927   1.912   0.321   0.247 -1.0057  0.6264  0.4222
 6812TIP3    H241928   1.767   0.294   0.213 -0.9518  1.8950 -0.8775
 6813TIP3   OH241929   1.698   5.050  11.602  0.6156 -0.3066  0.5739
 6813TIP3    H141930   1.782   5.085  11.631 -0.0016  2.0313 -0.3769
 6813TIP3    H241931   1.633   5.115  11.629 -0.9230 -2.0718  1.2961
 6814TIP3   OH241932   1.144   5.860   4.105 -0.1622  0.1196 -0.2625
 6814TIP3    H141933   1.120   5.950   4.124  1.0806  0.4547 -0.2365
 6814TIP3    H241934   1.155   5.819   4.191 -2.7786 -0.6417 -0.2510
 6815TIP3   OH241935   3.416   6.366  11.918  0.3074  0.5153  0.3462
 6815TIP3    H141936   3.438   6.391  11.828 -1.9769 -1.1845 -0.7056
 6815TIP3    H241937   3.324   6.388  11.927 -0.3587 -2.4370  1.1471
 6816TIP3   OH241938   5.012   4.079   0.646 -0.3133  0.3625 -0.2652
 6816TIP3    H141939   5.093   4.078   0.596  1.0407 -1.5272  1.8681
 6816TIP3    H241940   5.024   4.148   0.711 -0.5443  0.2868 -0.1406
 6817TIP3   OH241941   4.716   2.041  14.903 -0.4826  0.4459 -0.2180
 6817TIP3    H141942   4.729   1.953  14.866  0.8552 -0.1401  1.5780
 6817TIP3    H241943   4.802   2.082  14.897 -1.0841  1.6087 -0.9513
 6818TIP3   OH241944   0.566   2.260   0.916  0.1402 -0.2326  0.3603
 6818TIP3    H141945   0.621   2.212   0.978  0.1045 -0.5824  0.1268
 6818TIP3    H241946   0.606   2.242   0.831  0.2469  0.3272  0.2959
 6819TIP3   OH241947   1.497   1.594  15.868 -0.2365  0.4004  0.1036
 6819TIP3    H141948   1.418   1.575  15.919  0.5814  0.3001  1.3523
 6819TIP3    H241949   1.557   1.523  15.890  0.0656  0.2473 -1.1577
 6820TIP3   OH241950   2.639   2.150   1.376 -0.2449  0.3943  0.3256
 6820TIP3    H141951   2.655   2.167   1.284  0.3154 -0.9090  0.1727
 6820TIP3    H241952   2.704   2.202   1.422 -0.2134  0.6678 -0.0310
 6821TIP3   OH241953   6.482   0.542  12.647 -0.2084  0.1494  0.1347
 6821TIP3    H141954   6.520   0.624  12.616 -0.0672  0.2970  0.6982
 6821TIP3    H241955   6.408   0.569  12.701 -0.3820 -0.1060  0.0252
 6822TIP3   OH241956   3.039   2.337  15.070  0.1262  0.6451 -0.5433
 6822TIP3    H141957   2.945   2.321  15.083 -0.0533  1.9690 -0.1714
 6822TIP3    H241958   3.074   2.347  15.158  0.9865 -1.7432 -0.5707
 6823TIP3   OH241959   5.574   2.127   2.656  0.3402  0.1244 -0.1259
 6823TIP3    H141960   5.531   2.209   2.631 -0.2854  0.3461  1.5919
 6823TIP3    H241961   5.503   2.074   2.693  0.6974 -1.2829 -1.4111
 6824TIP3   OH241962   2.671   4.656  11.967  0.6454  0.0187 -0.3174
 6824TIP3    H141963   2.721   4.710  11.906  0.5520  0.3778 -0.0734
 6824TIP3    H241964   2.681   4.698  12.052  3.3991 -2.2345  0.5489
 6825TIP3   OH241965   0.167   6.780   5.322 -0.0926  0.2975  0.4428
 6825TIP3    H141966   0.108   6.728   5.266  1.8373 -0.4340 -0.9779
 6825TIP3    H241967   0.180   6.861   5.273  2.0255 -0.5601 -0.4539
 6826TIP3   OH241968   3.486   1.810  14.629 -0.1482  0.0620 -0.7570
 6826TIP3    H141969   3.437   1.736  14.594 -0.0333 -0.3429 -0.0797
 6826TIP3    H241970   3.528   1.775  14.708  0.8352  0.5290 -1.0652
 6827TIP3   OH241971   3.503   6.135   6.419 -0.0365  0.3335 -0.0358
 6827TIP3    H141972   3.488   6.159   6.328 -0.1235 -1.7601 -0.5999
 6827TIP3    H241973   3.542   6.213   6.459 -0.8795  1.5867 -1.6160
 6828TIP3   OH241974   4.326   1.349   5.912  0.4013  0.0368  0.3373
 6828TIP3    H141975   4.329   1.269   5.965 -0.3322  0.9754  1.8552
 6828TIP3    H241976   4.279   1.323   5.833 -1.5974 -0.5890  1.6776
 6829TIP3   OH241977   4.145   4.144   4.120 -0.2594  0.5794 -0.0479
 6829TIP3    H141978   4.137   4.176   4.210 -1.3442 -0.3786  0.2096
 6829TIP3    H241979   4.101   4.210   4.066  0.0245  0.9453  0.1680
 6830TIP3   OH241980   6.662   0.710  12.309  0.4050 -0.3709 -0.6078
 6830TIP3    H141981   6.619   0.682  12.228 -1.4196  3.4947 -1.0769
 6830TIP3    H241982   6.726   0.775  12.281 -0.3426  1.1010  1.0187
 6831TIP3   OH241983   2.357   1.049  15.139  0.0314 -0.2631 -0.1748
 6831TIP3    H141984   2.270   1.082  15.115 -0.4289 -0.6111  0.9450
 6831TIP3    H241985   2.416   1.085  15.073 -1.0572 -0.5062 -1.2996
 6832TIP3   OH241986   5.863   4.724   3.963  0.2889  0.5078 -0.5549
 6832TIP3    H141987   5.787   4.670   3.943  0.9386 -1.3454  1.8084
 6832TIP3    H241988   5.828   4.795   4.017  0.3441 -0.7424  1.1336
 6833TIP3   OH241989   6.346   1.302  13.920 -0.0890 -0.0172  0.6974
 6833TIP3    H141990   6.274   1.363  13.935  0.6570  1.1768 -0.4078
 6833TIP3    H241991   6.322   1.223  13.968 -1.9654  0.4891  0.6232
 6834TIP3   OH241992   5.269   5.599  11.489 -0.2140  0.1919 -0.9683
 6834TIP3    H141993   5.235   5.595  11.400  1.1694  0.6207 -1.5305
 6834TIP3    H241994   5.364   5.600  11.478 -0.0281 -0.0151  0.5239
 6835TIP3   OH241995   4.115   1.942   0.980  0.0017  0.2663  0.2600
 6835TIP3    H141996   4.071   2.026   0.993  0.9493  0.5079  1.9450
 6835TIP3    H241997   4.156   1.922   1.064  0.1515 -1.6829 -0.2407
 6836TIP3   OH241998   2.604   4.959  15.890  0.3427 -0.7834 -0.0571
 6836TIP3    H141999   2.617   4.908  15.811 -0.3212 -2.5210  0.9388
 6836TIP3    H242000   2.539   4.910  15.940 -0.4099  1.0897  0.8716
 6837TIP3   OH242001   0.951   0.085   1.442 -0.5178 -0.5559 -0.1242
 6837TIP3    H142002   0.960   0.180   1.454  0.2612 -0.5287 -0.8860
 6837TIP3    H242003   0.910   0.055   1.523 -0.9898  0.4664  0.0279
 6838TIP3   OH242004   4.055   2.535   3.165  0.2600 -0.2952  0.0326
 6838TIP3    H142005   4.110   2.597   3.118  1.0327 -0.2938  0.9328
 6838TIP3    H242006   3.968   2.575   3.164  0.5395  0.3066 -0.2823
 6839TIP3   OH242007   3.608   0.579  12.144 -0.2523  0.6376 -0.4715
 6839TIP3    H142008   3.701   0.598  12.127 -0.7115  1.6410 -1.9496
 6839TIP3    H242009   3.572   0.558  12.058 -0.5942 -3.5047  0.6021
 6840TIP3   OH242010   5.842   5.230  15.084 -0.2193 -0.1591  0.1356
 6840TIP3    H142011   5.862   5.288  15.011  1.4946  1.3476  1.7431
 6840TIP3    H242012   5.877   5.275  15.161 -2.2018 -1.5652  1.9408
 6841TIP3   OH242013   6.746   1.528  15.191  0.4382  0.2941 -0.8820
 6841TIP3    H142014   6.773   1.503  15.103 -0.7091 -0.5972 -0.9999
 6841TIP3    H242015   6.688   1.603  15.178  0.5637  0.3953 -0.8576
 6842TIP3   OH242016   3.659   3.156  17.166  0.4957  0.2155  0.4620
 6842TIP3    H142017   3.645   3.080  17.222  2.9226  0.3358  1.2704
 6842TIP3    H242018   3.573   3.199  17.162 -0.2327 -1.0389  2.2181
 6843TIP3   OH242019   0.542   1.673  15.307 -0.2408  0.2229  0.0485
 6843TIP3    H142020   0.615   1.735  15.305  0.5111 -0.7026 -1.8964
 6843TIP3    H242021   0.511   1.676  15.398  2.4680  0.3267  1.0093
 6844TIP3   OH242022   4.493   2.299   0.666  0.0281 -0.2489 -0.4777
 6844TIP3    H142023   4.486   2.302   0.761  0.1433  0.5847 -0.4847
 6844TIP3    H242024   4.475   2.389   0.638 -0.1923 -0.5263 -1.2564
 6845TIP3   OH242025   3.613   0.605   0.059 -0.2155 -0.4170  0.1277
 6845TIP3    H142026   3.636   0.615   0.152  0.9319  0.3930 -0.2356
 6845TIP3    H242027   3.527   0.645   0.051  0.9260  2.1585  0.2801
 6846TIP3   OH242028   5.718   0.606  11.580  0.1201 -0.4269  0.0145
 6846TIP3    H142029   5.671   0.668  11.524 -0.1446 -0.3306  0.3409
 6846TIP3    H242030   5.762   0.547  11.519 -0.1855 -0.3354 -0.2928
 6847TIP3   OH242031   2.342   2.681  15.246 -0.3133 -0.1760  0.0560
 6847TIP3    H142032   2.336   2.673  15.151 -1.1037  0.1892  0.0641
 6847TIP3    H242033   2.254   2.657  15.277 -0.6628  1.6774  0.5467
 6848TIP3   OH242034   0.308   6.742  17.038  0.5119  0.6065  0.4518
 6848TIP3    H142035   0.304   6.659  16.990 -1.5506  1.9515 -1.7901
 6848TIP3    H242036   0.402   6.761  17.044  0.8614 -0.0505 -2.2739
 6849TIP3   OH242037   3.774   0.118   2.820 -0.2121 -0.0252 -0.0630
 6849TIP3    H142038   3.697   0.072   2.787  0.1769  0.4466 -1.7133
 6849TIP3    H242039   3.826   0.051   2.864 -0.5358 -0.7870 -0.8265
 6850TIP3   OH242040   5.613   0.250   0.174 -0.3117  0.3189 -0.1310
 6850TIP3    H142041   5.708   0.262   0.175 -0.3740  0.7646  1.8334
 6850TIP3    H242042   5.588   0.250   0.266 -1.9226 -2.3065 -0.5304
 6851TIP3   OH242043   1.500   1.686   4.516  0.5414 -0.0782 -0.6023
 6851TIP3    H142044   1.424   1.686   4.574  1.0685  2.5681  0.1522
 6851TIP3    H242045   1.463   1.704   4.429  0.2570  1.0875 -0.2546
 6852TIP3   OH242046   5.690   5.266  16.881 -0.0067 -0.0939  0.2674
 6852TIP3    H142047   5.706   5.185  16.832 -0.5603  0.4504 -0.8366
 6852TIP3    H242048   5.749   5.262  16.955  1.1796 -0.7331 -0.7074
 6853TIP3   OH242049   6.244   0.454   1.998 -0.1825 -0.0642  0.7358
 6853TIP3    H142050   6.310   0.405   1.949 -0.0481 -1.5257  2.3703
 6853TIP3    H242051   6.262   0.435   2.090 -0.4682  2.6209  1.4062
 6854TIP3   OH242052   6.590   2.183   4.986  0.3384  0.4976 -0.7657
 6854TIP3    H142053   6.535   2.260   4.976  0.3587  0.7446  0.9272
 6854TIP3    H242054   6.566   2.147   5.071 -1.6737 -2.9522 -2.6582
 6855TIP3   OH242055   2.495   0.123   6.232  0.3303 -0.0814  0.1232
 6855TIP3    H142056   2.553   0.100   6.304  1.2070  0.0502 -0.5299
 6855TIP3    H242057   2.422   0.063   6.240 -0.2020  0.7694  1.8757
 6856TIP3   OH242058   0.325   5.516   2.867 -0.3981  0.5380  0.7468
 6856TIP3    H142059   0.264   5.503   2.939  0.8032  1.9593  2.0706
 6856TIP3    H242060   0.294   5.595   2.824  0.8408  1.6253  1.8117
 6857TIP3   OH242061   2.793   2.307  12.682  0.1314 -0.4080  0.6088
 6857TIP3    H142062   2.869   2.291  12.739  0.0039  1.1716  1.2487
 6857TIP3    H242063   2.731   2.353  12.738 -0.9886 -0.9872 -0.1472
 6858TIP3   OH242064   0.888   2.379   2.331 -0.2003 -0.2420  0.0306
 6858TIP3    H142065   0.893   2.428   2.249  0.3456  0.4801  0.4906
 6858TIP3    H242066   0.861   2.291   2.305 -1.1358  0.2920 -0.8052
 6859TIP3   OH242067   3.678   3.027   5.612 -0.2750 -0.3509  0.1604
 6859TIP3    H142068   3.586   3.019   5.640 -0.1328 -0.8289  0.5028
 6859TIP3    H242069   3.728   3.024   5.694  0.0519 -0.0915 -0.0259
 6860TIP3   OH242070   3.010   3.296  14.719 -0.7400  0.3736 -0.0578
 6860TIP3    H142071   2.938   3.320  14.777  0.3741  1.6099  0.8727
 6860TIP3    H242072   2.988   3.335  14.635 -0.6024  1.7511  0.5365
 6861TIP3   OH242073   2.980   5.996  17.119  0.5533 -0.6518 -0.0892
 6861TIP3    H142074   3.041   6.059  17.156 -0.0886  0.0099 -0.1446
 6861TIP3    H242075   2.933   6.045  17.051 -0.3609 -1.0212  0.2684
 6862TIP3   OH242076   2.167   1.187   1.054 -0.4539  0.1649 -0.3241
 6862TIP3    H142077   2.081   1.161   1.022 -0.9490 -1.0071  1.8207
 6862TIP3    H242078   2.148   1.239   1.133  0.7981 -0.2120  0.2366
 6863TIP3   OH242079   5.082   5.901  15.387 -0.7832  0.3282 -0.0735
 6863TIP3    H142080   5.098   5.984  15.342  0.0330 -0.1133 -0.6091
 6863TIP3    H242081   5.087   5.835  15.318 -2.1184 -0.1074  0.2304
 6864TIP3   OH242082   0.199   5.693   4.319 -0.0069 -0.1052 -0.2629
 6864TIP3    H142083   0.225   5.664   4.406  0.0184  0.5214 -0.0604
 6864TIP3    H242084   0.251   5.772   4.303 -0.5378  0.1836 -0.5557
 6865TIP3   OH242085   6.070   6.218   1.121  0.0895 -0.2308 -0.1462
 6865TIP3    H142086   6.055   6.197   1.029  0.0432  0.9546 -0.4125
 6865TIP3    H242087   6.123   6.145   1.153 -0.1848 -0.8275 -1.0187
 6866TIP3   OH242088   2.772   0.411   3.905  0.1970  0.3284 -0.1888
 6866TIP3    H142089   2.851   0.370   3.939  0.3395  1.5827  1.0667
 6866TIP3    H242090   2.792   0.430   3.813 -0.5715 -4.0384 -1.3629
 6867TIP3   OH242091   2.047   3.621  12.667 -0.4197 -0.0130 -0.4089
 6867TIP3    H142092   2.128   3.579  12.637  0.1233  1.2001 -0.6907
 6867TIP3    H242093   1.981   3.551  12.664  0.0408 -0.4183 -2.6613
 6868TIP3   OH242094   1.491   2.681  15.333 -0.2299  0.8014  0.3107
 6868TIP3    H142095   1.500   2.634  15.416 -0.6436 -1.1569 -0.7103
 6868TIP3    H242096   1.414   2.737  15.345 -1.8490 -1.3850  0.4050
 6869TIP3   OH242097   5.378   0.642  15.127 -0.4785 -0.3258 -0.2816
 6869TIP3    H142098   5.313   0.612  15.191 -0.1250  1.8396  1.1310
 6869TIP3    H242099   5.462   0.629  15.170 -0.2936  2.1905  0.1862
 6870TIP3   OH242100   5.045   1.865   1.855 -0.0784 -0.5891  0.2786
 6870TIP3    H142101   5.089   1.943   1.822  2.0333 -2.0990 -0.5716
 6870TIP3    H242102   5.022   1.887   1.945 -1.5465  1.8099 -0.6351
 6871TIP3   OH242103   3.042   3.757  14.984  0.0833  0.7487  0.1087
 6871TIP3    H142104   3.127   3.796  14.964 -0.0067  1.0702  0.3577
 6871TIP3    H242105   3.062   3.665  15.000  0.3005  0.6979 -0.4306
 6872TIP3   OH242106   3.692   0.006  16.786 -0.1440 -0.0324 -0.2316
 6872TIP3    H142107   3.603  -0.027  16.771 -0.0796 -0.1223 -0.4156
 6872TIP3    H242108   3.739  -0.068  16.824  0.1079 -0.2782 -1.0130
 6873TIP3   OH242109   4.539   1.469   3.611 -0.3325  0.6498 -0.1732
 6873TIP3    H142110   4.587   1.396   3.574 -0.5676  0.9269 -1.0235
 6873TIP3    H242111   4.484   1.501   3.540 -1.7082  0.4067  0.7412
 6874TIP3   OH242112   4.737   3.809   4.426  0.0602 -0.0682 -0.2405
 6874TIP3    H142113   4.718   3.717   4.442 -0.4706  0.1082  0.1633
 6874TIP3    H242114   4.669   3.857   4.474  1.0440  0.5577  0.5493
 6875TIP3   OH242115   1.677   0.389  15.404 -0.2190  0.5821 -0.3115
 6875TIP3    H142116   1.645   0.368  15.316 -2.3572  1.6764  0.1770
 6875TIP3    H242117   1.771   0.404  15.392  0.3871 -3.6208 -1.6138
 6876TIP3   OH242118   0.030   0.200   1.311 -0.5084 -0.3126  0.0721
 6876TIP3    H142119   0.089   0.269   1.342  0.3170 -1.7359  1.7546
 6876TIP3    H242120   0.086   0.122   1.305 -1.5793 -0.9931 -1.1596
 6877TIP3   OH242121   2.021   5.909  15.838 -0.5119  0.8001 -0.1382
 6877TIP3    H142122   1.928   5.929  15.843 -0.7704 -0.6491  1.2738
 6877TIP3    H242123   2.054   5.930  15.926  0.0905 -0.5934 -0.0240
 6878TIP3   OH242124   3.369   5.127  14.819  0.2046  0.6339 -0.7423
 6878TIP3    H142125   3.348   5.160  14.732 -0.2008  0.3116 -0.7698
 6878TIP3    H242126   3.320   5.045  14.826  0.3142  0.6080 -0.2503
 6879TIP3   OH242127   6.678   0.379  16.369  0.7016  0.0472 -0.3810
 6879TIP3    H142128   6.587   0.409  16.372  0.9479  0.8422 -0.8014
 6879TIP3    H242129   6.671   0.283  16.365 -0.1356  0.1320 -1.1098
 6880TIP3   OH242130   0.371   4.161  13.416  0.1424  0.5298  0.2667
 6880TIP3    H142131   0.332   4.248  13.417  0.0227  0.5316  3.9014
 6880TIP3    H242132   0.297   4.101  13.425  0.3211  0.0986 -1.0548
 6881TIP3   OH242133   5.971   3.042  17.176  0.0263  0.3587  0.1697
 6881TIP3    H142134   5.994   3.059  17.267  1.4459  1.4212 -0.3704
 6881TIP3    H242135   5.962   2.947  17.170 -1.1659  0.3596  1.6506
 6882TIP3   OH242136   4.720   0.596   1.411  0.2614  0.2092  0.2810
 6882TIP3    H142137   4.711   0.616   1.504  0.6471 -0.5923  0.4982
 6882TIP3    H242138   4.649   0.535   1.393 -1.0228  1.8781 -0.4207
 6883TIP3   OH242139   0.617   6.715   1.864 -0.7419  0.1891  0.3413
 6883TIP3    H142140   0.658   6.741   1.947  0.9993 -0.1280 -0.3957
 6883TIP3    H242141   0.545   6.776   1.852  0.3119  1.5865  1.0439
 6884TIP3   OH242142   6.364   3.808   3.757  0.6988  0.1067  0.6226
 6884TIP3    H142143   6.333   3.734   3.810 -0.3790 -1.2381 -1.8066
 6884TIP3    H242144   6.418   3.768   3.690  1.8721  1.7752  0.5517
 6885TIP3   OH242145   5.070   2.385   3.835 -0.3581  0.9577 -0.1164
 6885TIP3    H142146   5.050   2.300   3.874  1.0536 -0.1864 -1.8197
 6885TIP3    H242147   5.120   2.430   3.904  1.1537 -0.6218 -0.1122
 6886TIP3   OH242148   0.818   6.329  14.194  0.0868  0.4442  0.4583
 6886TIP3    H142149   0.868   6.406  14.220  0.9522  0.0564 -0.0234
 6886TIP3    H242150   0.812   6.277  14.274 -0.5960  1.0628  0.8097
 6887TIP3   OH242151   2.117   5.600   1.335 -0.3515  0.0503  0.2997
 6887TIP3    H142152   2.061   5.522   1.337 -1.2270  0.6360 -0.6431
 6887TIP3    H242153   2.205   5.565   1.324 -0.5370 -0.8763  1.5591
 6888TIP3   OH242154   1.558   1.583   0.420  0.0492 -0.7529  0.0526
 6888TIP3    H142155   1.538   1.558   0.329  0.0461 -0.2577 -0.0852
 6888TIP3    H242156   1.642   1.629   0.414  0.3330 -1.2287  0.3819
 6889TIP3   OH242157   1.772   3.492  15.490  0.4375 -0.7736 -0.0477
 6889TIP3    H142158   1.864   3.480  15.468  0.2813 -0.8028 -0.6768
 6889TIP3    H242159   1.763   3.454  15.578  1.7810  2.3762  1.5323
 6890TIP3   OH242160   3.491   4.211  11.964 -0.8160  0.0847  0.3376
 6890TIP3    H142161   3.454   4.296  11.988 -1.2751  0.1678 -0.6582
 6890TIP3    H242162   3.501   4.166  12.048 -0.0016  1.3470  0.9404
 6891TIP3   OH242163   6.129   0.256   0.470 -0.2701 -0.3066 -0.0091
 6891TIP3    H142164   6.201   0.214   0.423  0.9916  0.6923  0.9864
 6891TIP3    H242165   6.131   0.216   0.557 -0.8388 -0.1927  0.0564
 6892TIP3   OH242166   6.723   4.997   3.059  0.6786  0.0881 -0.1970
 6892TIP3    H142167   6.674   4.932   3.109  0.2293  0.4225 -0.1987
 6892TIP3    H242168   6.790   5.028   3.119  1.5035 -1.0653 -0.5085
 6893TIP3   OH242169   3.233   2.598   1.877  0.1453 -0.6577  0.5158
 6893TIP3    H142170   3.255   2.642   1.795 -3.1891 -0.7734 -0.5206
 6893TIP3    H242171   3.286   2.518   1.875 -1.0626 -1.4860 -2.3915
 6894TIP3   OH242172   5.010   3.084   4.182  0.1326 -0.7198 -0.1612
 6894TIP3    H142173   5.010   3.157   4.121  1.2123 -1.5469 -1.1647
 6894TIP3    H242174   5.058   3.015   4.137  0.5740 -1.4803  1.4475
 6895TIP3   OH242175   6.658   5.386  14.849  0.1747 -0.6022  0.0099
 6895TIP3    H142176   6.726   5.409  14.786  0.4259  0.8356  0.7646
 6895TIP3    H242177   6.655   5.290  14.848  0.1090 -0.5946 -2.2199
 6896TIP3   OH242178   1.564   3.710   0.386  0.8204  0.7862  0.3187
 6896TIP3    H142179   1.584   3.803   0.375  1.3670  0.7444  0.9242
 6896TIP3    H242180   1.480   3.710   0.432 -0.7363  0.9597 -2.4210
 6897TIP3   OH242181   6.511   4.684  11.754 -0.1026  0.1077  0.6131
 6897TIP3    H142182   6.543   4.624  11.821  0.4169 -0.3447 -0.0291
 6897TIP3    H242183   6.578   4.681  11.685 -0.9019  0.1304 -0.1798
 6898TIP3   OH242184   1.831   5.120   0.546  0.1126 -0.4757  0.0692
 6898TIP3    H142185   1.846   5.065   0.623  1.0402  0.7378  0.7713
 6898TIP3    H242186   1.738   5.107   0.526 -0.0619 -1.0700  1.1876
 6899TIP3   OH242187   5.302   5.442  14.869 -0.1366  0.3820 -0.5522
 6899TIP3    H142188   5.291   5.522  14.816  0.5275 -0.6515 -2.2842
 6899TIP3    H242189   5.319   5.475  14.958  2.0692  2.2289 -1.5873
 6900TIP3   OH242190   4.256   4.418  10.998 -0.2922 -0.1256  0.1880
 6900TIP3    H142191   4.325   4.408  11.064 -0.8451 -0.7532  0.6765
 6900TIP3    H242192   4.200   4.486  11.033 -1.1758 -1.1896  0.8951
 6901TIP3   OH242193   4.072   4.898   2.576 -0.6267  0.4563 -0.6172
 6901TIP3    H142194   4.095   4.895   2.483 -1.1649  2.0618 -0.8177
 6901TIP3    H242195   3.981   4.928   2.577 -0.3517  1.2742  0.4767
 6902TIP3   OH242196   6.528   5.875  16.880 -0.4677 -0.1971  0.1050
 6902TIP3    H142197   6.581   5.815  16.828 -1.0961 -0.7745  0.1140
 6902TIP3    H242198   6.441   5.871  16.840 -0.8011 -0.1742  0.8146
 6903TIP3   OH242199   1.402   6.741  11.745  0.6404 -0.3456  0.1960
 6903TIP3    H142200   1.372   6.801  11.675  1.0641  2.3329  2.2267
 6903TIP3    H242201   1.330   6.679  11.755  0.5877 -0.8287 -2.6361
 6904TIP3   OH242202   2.104   5.158  15.611 -0.3347 -0.0172 -0.0188
 6904TIP3    H142203   2.085   5.249  15.633  1.9466  0.4676  0.0012
 6904TIP3    H242204   2.164   5.129  15.680 -0.0069 -1.1250 -0.7662
 6905TIP3   OH242205   1.618   5.932  14.379  0.4319 -0.7943 -0.3048
 6905TIP3    H142206   1.536   5.966  14.415  1.1037 -1.2450  1.7160
 6905TIP3    H242207   1.595   5.845  14.346  0.0406 -0.7952 -0.0357
 6906TIP3   OH242208   0.885   4.175  14.519  0.0775  0.1014 -0.1774
 6906TIP3    H142209   0.875   4.160  14.425 -0.5422 -1.6170  0.1512
 6906TIP3    H242210   0.846   4.261  14.534 -2.2423 -0.7456 -1.0925
 6907TIP3   OH242211   3.560   5.053  11.374  0.5074  0.3817  0.5901
 6907TIP3    H142212   3.611   5.063  11.453 -0.1561  1.4896  0.8867
 6907TIP3    H242213   3.495   4.986  11.396 -0.8158  1.9558  1.5863
 6908TIP3   OH242214   2.375   4.400  16.058  0.0500 -0.2291 -0.2760
 6908TIP3    H142215   2.401   4.409  15.966  0.5880  0.7803 -0.0307
 6908TIP3    H242216   2.409   4.314  16.084 -0.4533 -0.6882 -1.1353
 6909TIP3   OH242217   5.133   2.908   3.985  0.1941 -0.0724  0.2907
 6909TIP3    H142218   5.214   2.869   3.953 -1.5141 -2.5738 -1.1504
 6909TIP3    H242219   5.090   2.940   3.905 -1.6102 -1.4918  0.6647
 6910TIP3   OH242220   1.068   5.358  14.531  0.5733  0.2375 -0.4395
 6910TIP3    H142221   0.985   5.370  14.484  0.1624 -0.6798  0.0576
 6910TIP3    H242222   1.119   5.301  14.474  0.4425 -0.0964 -0.2205
 6911TIP3   OH242223   3.923   1.160   6.745 -0.4153 -0.3747  0.6909
 6911TIP3    H142224   3.929   1.104   6.823  0.5417  0.8786  1.5464
 6911TIP3    H242225   4.006   1.207   6.743 -0.0814 -1.0016 -1.5973
 6912TIP3   OH242226   3.584   5.911   2.094  0.4464  0.2684  0.3982
 6912TIP3    H142227   3.541   5.927   2.011  0.6836 -1.6559 -0.1176
 6912TIP3    H242228   3.620   5.996   2.120  0.4994  0.8412 -1.5216
 6913TIP3   OH242229   6.439   3.495  15.737  0.6635  0.0853  0.3430
 6913TIP3    H142230   6.364   3.535  15.781  0.0662 -0.1193 -0.4818
 6913TIP3    H242231   6.423   3.510  15.644  0.4248 -2.0785  0.0246
 6914TIP3   OH242232   5.628   6.387  16.422 -0.3711  0.1835  0.2508
 6914TIP3    H142233   5.693   6.337  16.373  0.0595 -0.1523  1.1628
 6914TIP3    H242234   5.554   6.395  16.361 -0.3941 -1.4391  0.0287
 6915TIP3   OH242235   4.291   4.358   2.820  0.0767  0.0600 -0.0694
 6915TIP3    H142236   4.346   4.282   2.841  0.9913  0.6143 -0.3921
 6915TIP3    H242237   4.269   4.396   2.905 -1.0347 -1.0036  0.1314
 6916TIP3   OH242238   2.314   5.396   3.941  0.3546 -0.0042  0.2364
 6916TIP3    H142239   2.310   5.313   3.987 -3.9958  1.0117  1.9263
 6916TIP3    H242240   2.353   5.457   4.004  1.7888 -0.3278 -0.3248
 6917TIP3   OH242241   0.463   0.772   2.767 -0.7447 -0.0529  0.2072
 6917TIP3    H142242   0.457   0.694   2.822 -1.1068  0.3681  0.7660
 6917TIP3    H242243   0.528   0.827   2.811  1.1674 -0.9723 -1.3498
 6918TIP3   OH242244   1.382   0.836  14.455 -0.1325 -0.5294 -0.2196
 6918TIP3    H142245   1.426   0.755  14.430  0.5307 -0.3319  0.2864
 6918TIP3    H242246   1.419   0.902  14.397 -0.0502 -0.4351 -0.0603
 6919TIP3   OH242247   6.244   0.067  11.702  0.0603  0.1709  0.2098
 6919TIP3    H142248   6.226  -0.023  11.677 -0.7267  0.1597  0.7868
 6919TIP3    H242249   6.287   0.106  11.626 -1.7265 -0.0283 -0.9166
 6920TIP3   OH242250   1.414   2.808  13.796 -0.6048 -0.9301 -0.0377
 6920TIP3    H142251   1.394   2.776  13.708 -0.8581 -1.9536  0.3918
 6920TIP3    H242252   1.447   2.897  13.781 -3.1282 -0.0801 -0.9535
 6921TIP3   OH242253   3.285   5.031  12.690 -0.0981 -0.4211 -0.4486
 6921TIP3    H142254   3.380   5.032  12.675 -0.4203  0.8056 -2.6212
 6921TIP3    H242255   3.276   4.997  12.779  2.3297 -1.4258 -0.5283
 6922TIP3   OH242256   5.714   1.676   0.104 -0.1044  0.8245  0.3489
 6922TIP3    H142257   5.784   1.713   0.051  0.8464 -1.7006 -0.2415
 6922TIP3    H242258   5.638   1.673   0.046  0.9832 -2.1000 -1.0061
 6923TIP3   OH242259   2.605   4.200   3.179  0.0717 -0.0534 -0.0289
 6923TIP3    H142260   2.628   4.111   3.156 -0.2806  0.3569 -2.0591
 6923TIP3    H242261   2.661   4.221   3.254 -0.0380 -2.0417  0.6332
 6924TIP3   OH242262   1.938   3.274  15.290 -0.3415  0.1819  0.7822
 6924TIP3    H142263   2.017   3.328  15.289 -0.2728  0.1797  3.0202
 6924TIP3    H242264   1.875   3.323  15.238  0.2344  1.6154  1.3993
 6925TIP3   OH242265   0.313   4.222   2.417 -0.0908  0.7186 -0.3022
 6925TIP3    H142266   0.388   4.193   2.470  1.0219  2.1888 -1.0241
 6925TIP3    H242267   0.261   4.275   2.477  0.1450  0.7917 -0.1589
 6926TIP3   OH242268   2.125   4.681  16.557 -0.6443 -0.1323 -0.5979
 6926TIP3    H142269   2.054   4.715  16.612  0.8156  0.1733  1.1664
 6926TIP3    H242270   2.160   4.759  16.513  1.0098  0.3053  1.4373
 6927TIP3   OH242271   0.389   6.549   5.716 -0.0983 -0.1684 -0.1741
 6927TIP3    H142272   0.370   6.610   5.645 -0.9065 -1.1013 -0.7779
 6927TIP3    H242273   0.303   6.525   5.751  0.3097  0.5657  1.3756
 6928TIP3   OH242274   0.118   1.434   5.287 -0.5082  0.4228  0.2526
 6928TIP3    H142275   0.194   1.399   5.334  0.8002  3.7735  0.7736
 6928TIP3    H242276   0.055   1.455   5.357 -1.9722 -2.3361 -0.1757
 6929TIP3   OH242277   3.848   1.967  11.169 -0.4168 -0.4995 -0.4743
 6929TIP3    H142278   3.805   2.048  11.200 -0.3776 -0.9926  0.9351
 6929TIP3    H242279   3.857   1.979  11.075 -3.4326 -0.2477 -0.7798
 6930TIP3   OH242280   4.246   2.620   3.745  0.0521 -0.3607 -0.0251
 6930TIP3    H142281   4.292   2.658   3.671  0.8428  0.8581  1.0643
 6930TIP3    H242282   4.201   2.543   3.709  0.1454  0.4040 -1.8062
 6931TIP3   OH242283   4.621   2.768  14.109 -0.3018  0.2170 -0.2511
 6931TIP3    H142284   4.567   2.793  14.035  0.2193  2.1212  0.0024
 6931TIP3    H242285   4.660   2.684  14.082 -0.7725  0.4731 -1.7853
 6932TIP3   OH242286   1.488   5.177  14.741 -0.0167 -0.3017 -0.4058
 6932TIP3    H142287   1.448   5.096  14.773  0.2760  0.2184  1.2961
 6932TIP3    H242288   1.553   5.147  14.677  0.4364 -1.4452  0.5622
 6933TIP3   OH242289   5.453   4.218  10.397 -0.1278 -0.0803 -0.1569
 6933TIP3    H142290   5.382   4.229  10.333 -0.2665 -0.0323  0.0034
 6933TIP3    H242291   5.477   4.307  10.422 -1.2786 -0.1233  1.1709
 6934TIP3   OH242292   6.424   1.952  14.947  0.1238 -0.0699 -0.5853
 6934TIP3    H142293   6.455   1.915  14.864 -0.6004  0.7028 -1.2203
 6934TIP3    H242294   6.330   1.937  14.946 -0.0687  1.0285 -0.4881
 6935TIP3   OH242295   3.190   5.653   5.949 -0.3178 -0.4569 -0.0507
 6935TIP3    H142296   3.279   5.628   5.973 -0.4725 -1.5976 -0.6152
 6935TIP3    H242297   3.139   5.635   6.028 -0.0766  0.0192  0.2127
 6936TIP3   OH242298   4.245   3.446   3.095 -0.5619 -0.1400  0.6110
 6936TIP3    H142299   4.338   3.423   3.085 -0.6446  0.1877 -1.1484
 6936TIP3    H242300   4.221   3.411   3.180  0.8235 -1.4783  0.4911
 6937TIP3   OH242301   4.965   0.839   2.853 -0.1568  0.5111  0.8313
 6937TIP3    H142302   5.012   0.907   2.804 -0.9483 -0.1907 -0.9639
 6937TIP3    H242303   5.033   0.776   2.877  0.7795  2.4374  3.4893
 6938TIP3   OH242304   1.950   4.109   5.372  0.7900 -0.2714 -0.1443
 6938TIP3    H142305   1.945   4.020   5.408  0.4746 -0.9293 -1.7926
 6938TIP3    H242306   2.029   4.109   5.319  2.0124  1.1119  1.6003
 6939TIP3   OH242307   3.222   3.470  12.560 -0.3171 -0.0127 -0.3221
 6939TIP3    H142308   3.217   3.561  12.532 -3.2241 -0.1839 -0.5313
 6939TIP3    H242309   3.211   3.420  12.479  1.7896 -0.5968 -0.2863
 6940TIP3   OH242310   5.065   0.607   4.514  0.3088 -0.6587  0.8362
 6940TIP3    H142311   5.026   0.670   4.575 -0.8628  1.0937 -1.6284
 6940TIP3    H242312   5.148   0.646   4.488 -0.5494  0.0474 -0.9163
 6941TIP3   OH242313   1.756   6.394  13.653 -0.6080 -0.4809 -0.0746
 6941TIP3    H142314   1.683   6.382  13.592 -2.1999 -1.0811  1.8874
 6941TIP3    H242315   1.824   6.437  13.601 -1.9471 -0.8839 -2.2295
 6942TIP3   OH242316   0.232   3.801   0.495  0.2373 -0.2286 -0.1579
 6942TIP3    H142317   0.170   3.764   0.558 -1.2890  2.7524  0.1683
 6942TIP3    H242318   0.240   3.733   0.427 -1.0843 -1.8809  1.2811
 6943TIP3   OH242319   0.541   6.766   6.025  0.1178 -0.7215 -0.1116
 6943TIP3    H142320   0.621   6.797   6.067 -0.0204  1.6698 -1.5181
 6943TIP3    H242321   0.555   6.672   6.013  2.1684 -0.5666  0.8108
 6944TIP3   OH242322   5.071   1.550  13.777  0.2463 -0.4733 -0.2068
 6944TIP3    H142323   5.042   1.492  13.707 -1.3730 -1.4295  1.1977
 6944TIP3    H242324   5.031   1.634  13.757 -0.3845 -0.7985 -0.3187
 6945TIP3   OH242325   5.036   5.199  14.372  0.4370 -0.9805 -0.3282
 6945TIP3    H142326   4.997   5.145  14.442  0.8100  0.2600  0.8613
 6945TIP3    H242327   5.120   5.229  14.409  0.0424  0.7586 -0.7963
 6946TIP3   OH242328   3.243   5.377  15.814  0.4461 -0.0609  0.3105
 6946TIP3    H142329   3.165   5.430  15.834 -0.6061 -1.5166  0.0944
 6946TIP3    H242330   3.297   5.434  15.759 -1.0021  0.5376 -0.5171
 6947TIP3   OH242331   3.655   1.182   6.685  0.3577 -0.2456 -0.0383
 6947TIP3    H142332   3.639   1.252   6.621  1.6054 -0.9531 -1.1615
 6947TIP3    H242333   3.748   1.162   6.676  0.3899 -0.8655  1.5069
 6948TIP3   OH242334   6.811   6.353  14.081  0.1141 -0.4560 -0.2403
 6948TIP3    H142335   6.863   6.366  14.001  0.7755 -0.3405  0.2016
 6948TIP3    H242336   6.852   6.277  14.124  1.3185  0.9757  1.2102
 6949TIP3   OH242337   4.842   0.822   1.001 -0.3554  0.3716  0.0337
 6949TIP3    H142338   4.788   0.808   1.078 -1.1506  0.4213 -0.5105
 6949TIP3    H242339   4.795   0.889   0.950  0.3247  0.5778 -0.3325
 6950TIP3   OH242340   2.112   0.535  11.630  0.1032  0.5209 -0.1619
 6950TIP3    H142341   2.102   0.445  11.599  0.1111  0.2408  0.6363
 6950TIP3    H242342   2.055   0.540  11.707  1.4389  0.6895  0.8244
 6951TIP3   OH242343   1.869   0.595   3.565  0.2847 -0.0647 -0.1161
 6951TIP3    H142344   1.869   0.620   3.473 -0.7719 -1.6127 -0.5654
 6951TIP3    H242345   1.891   0.675   3.612 -1.1972  1.2493 -1.5925
 6952TIP3   OH242346   6.422   2.206  10.490 -0.0124  0.1534  0.2427
 6952TIP3    H142347   6.338   2.214  10.443  0.5920 -0.5973 -0.9812
 6952TIP3    H242348   6.419   2.277  10.554 -2.1834 -0.6928  1.1535
 6953TIP3   OH242349   0.230   0.008   1.305 -0.2768  0.0767 -0.1905
 6953TIP3    H142350   0.288   0.070   1.261 -0.7093  0.5674 -0.0699
 6953TIP3    H242351   0.240  -0.073   1.255 -0.6514  0.5930 -1.1181
 6954TIP3   OH242352   4.778   4.322  12.232  0.0266 -0.0472  0.3728
 6954TIP3    H142353   4.762   4.383  12.160  1.8270 -1.1403 -1.0023
 6954TIP3    H242354   4.696   4.275  12.244 -0.7709  1.2672  0.1415
 6955TIP3   OH242355   4.280   1.478   4.612  0.6774  0.0960 -0.7952
 6955TIP3    H142356   4.215   1.535   4.654 -0.1419 -1.1606 -0.3207
 6955TIP3    H242357   4.239   1.452   4.529  1.0484  0.1900 -1.0101
 6956TIP3   OH242358   0.854   5.524  13.869 -0.0616  0.1671 -0.1781
 6956TIP3    H142359   0.780   5.464  13.866 -0.2639  0.4560 -1.0614
 6956TIP3    H242360   0.835   5.583  13.942 -0.6417  0.1610 -0.3244
 6957TIP3   OH242361   2.109   1.220  13.921 -0.3281 -0.0134  0.1653
 6957TIP3    H142362   2.162   1.146  13.951  0.7736  1.6761  2.5206
 6957TIP3    H242363   2.172   1.282  13.886 -1.0275  0.7548  0.2448
 6958TIP3   OH242364   2.150   4.764   2.858 -0.1537  0.0955  0.4390
 6958TIP3    H142365   2.236   4.777   2.900  1.9545 -0.2927 -3.5139
 6958TIP3    H242366   2.116   4.684   2.900  2.0424 -0.5325  1.1262
 6959TIP3   OH242367   3.154   5.189   5.234 -0.9056  0.2557 -0.1637
 6959TIP3    H142368   3.139   5.145   5.150 -1.7092  1.0103 -0.4231
 6959TIP3    H242369   3.245   5.218   5.229 -0.4787 -1.0330 -0.1423
 6960TIP3   OH242370   0.756   5.514   0.924 -0.0571 -0.4396 -0.7320
 6960TIP3    H142371   0.810   5.530   0.846  0.4828 -1.6992 -0.6231
 6960TIP3    H242372   0.764   5.595   0.975  1.7591 -0.6103 -0.7045
 6961TIP3   OH242373   5.367   3.537  11.724  0.3730 -0.2579 -0.2909
 6961TIP3    H142374   5.320   3.512  11.804  0.5412  0.7418  0.1369
 6961TIP3    H242375   5.347   3.468  11.661 -1.3302 -0.0541  0.0156
 6962TIP3   OH242376   6.054   3.664  11.138 -0.2756 -0.0988  0.0514
 6962TIP3    H142377   6.036   3.576  11.106 -2.1518  0.0122  0.7956
 6962TIP3    H242378   6.008   3.721  11.077 -0.2665  0.3090  0.4262
 6963TIP3   OH242379   5.899   5.520  15.414  0.4892  0.3248 -0.3232
 6963TIP3    H142380   5.943   5.471  15.344  1.1124  2.7458 -1.6734
 6963TIP3    H242381   5.806   5.509  15.394  0.6323 -0.0380 -0.8163
 6964TIP3   OH242382   3.596   5.320   6.425  0.4184  0.0439 -0.1229
 6964TIP3    H142383   3.588   5.297   6.517  1.8058 -0.4122 -0.1112
 6964TIP3    H242384   3.678   5.281   6.397  0.0596  0.2662 -1.5305
 6965TIP3   OH242385   3.982   2.669   1.407  0.6334  0.0374 -0.1068
 6965TIP3    H142386   4.045   2.651   1.476  0.3573  0.2051  0.1875
 6965TIP3    H242387   3.947   2.755   1.427  2.0286  0.9801 -1.5827
 6966TIP3   OH242388   1.325   1.245  14.466  0.1522  0.2044  0.0239
 6966TIP3    H142389   1.256   1.185  14.493 -0.0138 -0.4060 -1.7036
 6966TIP3    H242390   1.319   1.318  14.528 -0.8812 -0.6603  0.9695
 6967TIP3   OH242391   4.588   3.619   4.970  0.3387 -0.2760 -0.8520
 6967TIP3    H142392   4.510   3.573   4.941 -0.5719 -0.2404  1.4289
 6967TIP3    H242393   4.648   3.549   4.998 -0.7349 -0.1739  1.8510
 6968TIP3   OH242394   4.183   5.588  12.272 -0.5920 -0.1998 -0.2600
 6968TIP3    H142395   4.202   5.506  12.225 -1.3107 -0.5701  0.0879
 6968TIP3    H242396   4.197   5.566  12.364 -0.7825  0.0782 -0.1673
 6969TIP3   OH242397   2.719   4.458   5.571 -0.4590 -0.2947 -0.3870
 6969TIP3    H142398   2.696   4.551   5.567  1.4211  0.2772  1.1828
 6969TIP3    H242399   2.743   4.443   5.662 -0.3348 -2.2335 -0.7173
 6970TIP3   OH242400   0.797   1.549   3.748  0.6009  0.1926  0.1881
 6970TIP3    H142401   0.732   1.574   3.682  0.1461 -2.5206 -0.4610
 6970TIP3    H242402   0.881   1.571   3.708  0.4163 -2.7270 -1.9881
 6971TIP3   OH242403   6.672   3.149  12.976  0.0293  0.8013 -0.1231
 6971TIP3    H142404   6.642   3.238  12.958 -0.2470  0.8736  0.6976
 6971TIP3    H242405   6.613   3.093  12.925  0.2268  1.0870 -0.6703
 6972TIP3   OH242406   6.380   5.098  16.508 -0.1838  0.0558  0.1454
 6972TIP3    H142407   6.473   5.086  16.494 -0.1848  0.8475 -0.5852
 6972TIP3    H242408   6.356   5.030  16.571  0.8483 -0.2482  0.2171
 6973TIP3   OH242409   3.000   4.141   5.534 -0.6036 -0.4907 -0.1994
 6973TIP3    H142410   3.091   4.150   5.505 -0.0525  0.8425  1.8047
 6973TIP3    H242411   2.986   4.217   5.592 -3.0680 -0.5382 -0.6751
 6974TIP3   OH242412   4.040   1.458  16.294  0.0558 -0.3863 -0.0686
 6974TIP3    H142413   3.957   1.450  16.340  0.2626 -2.1601  0.0411
 6974TIP3    H242414   4.015   1.461  16.201 -0.2023  0.3741  0.0237
 6975TIP3   OH242415   6.354   3.215   2.480 -0.1176  0.0689 -0.0312
 6975TIP3    H142416   6.270   3.238   2.441 -0.5684  0.1340  0.9838
 6975TIP3    H242417   6.377   3.290   2.534  0.7762  0.2122 -0.5951
 6976TIP3   OH242418   4.961   1.792  15.082 -0.0989 -0.3129  0.1478
 6976TIP3    H142419   4.974   1.707  15.125  0.3512 -0.0117  0.6189
 6976TIP3    H242420   5.049   1.817  15.052 -0.2169  0.0157  0.0742
 6977TIP3   OH242421   2.160   0.493  13.524 -0.5538 -0.4032  0.3899
 6977TIP3    H142422   2.142   0.559  13.591 -0.9634 -1.5283  1.4069
 6977TIP3    H242423   2.080   0.490  13.472  0.3298  1.5724 -1.1144
 6978TIP3   OH242424   4.618   1.274   2.001  0.0462  0.1574 -0.1265
 6978TIP3    H142425   4.637   1.201   1.942  1.0507  0.0229  0.3320
 6978TIP3    H242426   4.703   1.295   2.040 -0.2220  1.6212 -0.2974
 6979TIP3   OH242427   5.450   4.145  16.633 -0.4470  0.0018 -0.2317
 6979TIP3    H142428   5.405   4.155  16.550 -1.6063 -0.7271  0.2918
 6979TIP3    H242429   5.409   4.208  16.691 -0.4593 -0.3224  0.1166
 6980TIP3   OH242430   4.309   4.392  15.377  0.0554 -0.2891  0.2149
 6980TIP3    H142431   4.399   4.396  15.409  0.4986 -0.1564 -1.0273
 6980TIP3    H242432   4.288   4.482  15.353 -0.2190 -0.4150 -0.0207
 6981TIP3   OH242433   2.680   4.909   1.964  0.1845 -0.3297 -0.1080
 6981TIP3    H142434   2.587   4.918   1.943 -0.1326  1.7257  1.9731
 6981TIP3    H242435   2.682   4.842   2.033  0.3047 -0.7218 -0.4897
 6982TIP3   OH242436   6.704   4.848   4.514 -0.0140 -0.3694 -0.1651
 6982TIP3    H142437   6.692   4.943   4.513  3.6368  0.1753 -0.0822
 6982TIP3    H242438   6.631   4.815   4.566 -1.6854  2.3280 -0.7189
 6983TIP3   OH242439   0.056   0.171   3.513 -0.4680  0.1230 -0.3704
 6983TIP3    H142440   0.066   0.076   3.510 -0.9866  0.0384  0.4959
 6983TIP3    H242441   0.005   0.192   3.435  0.7698 -0.1563 -1.2779
 6984TIP3   OH242442   2.595   1.685  16.876 -0.5196  0.4255  0.1847
 6984TIP3    H142443   2.569   1.685  16.968  0.4337 -0.9560  0.4645
 6984TIP3    H242444   2.517   1.654  16.829 -0.9719  1.0338  0.5245
 6985TIP3   OH242445   1.363   4.456   4.839  0.6202 -0.4982 -0.6362
 6985TIP3    H142446   1.297   4.398   4.800  0.4562  0.5602 -1.9609
 6985TIP3    H242447   1.442   4.403   4.841  0.2333 -1.0997 -0.9340
 6986TIP3   OH242448   3.565   0.017   1.692  0.5840 -0.1446  0.5432
 6986TIP3    H142449   3.544   0.110   1.703 -1.6922 -0.5882  0.2789
 6986TIP3    H242450   3.533  -0.005   1.605  3.2603 -0.6391 -0.3509
 6987TIP3   OH242451   4.493   5.248  15.819 -0.3094  0.4445  0.5695
 6987TIP3    H142452   4.494   5.286  15.731 -2.6486  1.4866  0.9527
 6987TIP3    H242453   4.570   5.285  15.862  0.7575  0.0561 -0.9784
 6988TIP3   OH242454   4.599   0.151   0.867  0.4984 -0.0569  0.5140
 6988TIP3    H142455   4.660   0.100   0.814 -0.3424 -1.2642  0.6815
 6988TIP3    H242456   4.546   0.198   0.803  0.1654 -0.7130  0.2980
 6989TIP3   OH242457   1.043   4.149   6.122 -0.0561  0.5156 -0.4095
 6989TIP3    H142458   0.988   4.189   6.189 -0.0100  1.2464 -0.8068
 6989TIP3    H242459   1.119   4.116   6.171  0.5420  2.0885 -0.2504
 6990TIP3   OH242460   3.497   5.634   6.008 -0.0012 -0.4799  0.3473
 6990TIP3    H142461   3.548   5.701   6.054 -1.0741  0.8883 -0.4031
 6990TIP3    H242462   3.477   5.569   6.075  1.1523 -0.1206  1.0681
 6991TIP3   OH242463   4.352   4.365   4.808 -0.0255  0.0794  0.1958
 6991TIP3    H142464   4.432   4.315   4.818 -0.3761 -0.5558 -0.1567
 6991TIP3    H242465   4.378   4.456   4.823  0.5081 -0.2618  1.4032
 6992TIP3   OH242466   1.241   0.175   1.469  0.4065 -0.8612  0.1010
 6992TIP3    H142467   1.165   0.117   1.472  0.2158 -0.7002 -1.3530
 6992TIP3    H242468   1.219   0.247   1.528 -1.1482 -0.1126 -1.3668
 6993TIP3   OH242469   4.376   5.942  13.525 -0.1883 -0.2079 -0.3751
 6993TIP3    H142470   4.432   5.914  13.597  0.7234 -0.7237 -1.2641
 6993TIP3    H242471   4.341   6.027  13.553  1.5570  0.4414 -0.0710
 6994TIP3   OH242472   0.517   1.576   1.084  0.5333 -0.0847  0.8671
 6994TIP3    H142473   0.525   1.668   1.110  1.0190 -0.0959  0.7590
 6994TIP3    H242474   0.428   1.552   1.110 -0.8195  1.3822 -2.1697
 6995TIP3   OH242475   5.935   3.330   1.693 -0.1356  0.3888 -0.0176
 6995TIP3    H142476   5.842   3.316   1.707 -0.0423 -0.1397  0.1033
 6995TIP3    H242477   5.972   3.334   1.782  0.0995 -0.4310 -0.0736
 6996TIP3   OH242478   5.798   3.493  11.824 -0.5685 -0.0675  0.0776
 6996TIP3    H142479   5.881   3.519  11.785 -1.8530  2.2145 -1.2867
 6996TIP3    H242480   5.811   3.502  11.918 -0.2749  3.6581 -0.2638
 6997TIP3   OH242481   4.028   2.904  16.589  0.2872  0.2652 -0.1006
 6997TIP3    H142482   4.016   2.909  16.684  1.8706 -1.1494  0.2064
 6997TIP3    H242483   4.006   2.813  16.566 -1.0743  0.8643 -1.2511
 6998TIP3   OH242484   1.767   3.464  13.550 -0.3540 -0.5552 -0.5911
 6998TIP3    H142485   1.825   3.470  13.474  0.8242 -1.3386  0.2176
 6998TIP3    H242486   1.764   3.552  13.586 -1.5747 -0.0024 -2.0112
 6999TIP3   OH242487   4.910   5.051   0.757  0.1295  0.3603 -0.4799
 6999TIP3    H142488   4.994   5.082   0.792 -0.4418  0.9361  0.3763
 6999TIP3    H242489   4.890   5.110   0.685  0.3133  0.3981 -0.4990
 7000TIP3   OH242490   6.176   5.746   1.844 -0.3985 -0.8617 -0.5999
 7000TIP3    H142491   6.134   5.677   1.896  2.4928 -0.3369  2.6058
 7000TIP3    H242492   6.126   5.825   1.865 -0.3907 -1.0009 -0.0464
 7001TIP3   OH242493   2.581   5.339   3.739  0.4175 -0.0949  0.0309
 7001TIP3    H142494   2.640   5.348   3.664 -0.0410 -3.3163 -0.7720
 7001TIP3    H242495   2.495   5.326   3.699 -0.1977  0.4606  1.1673
 7002TIP3   OH242496   6.382   6.675  12.538  0.6727 -0.2119  0.4080
 7002TIP3    H142497   6.418   6.610  12.478 -0.3238 -0.9092  0.5506
 7002TIP3    H242498   6.454   6.736  12.555  1.3018 -0.6934 -0.5452
 7003TIP3   OH242499   4.617   2.493   3.210 -0.2490 -0.2681 -0.5728
 7003TIP3    H142500   4.651   2.493   3.300 -1.5795  1.0954 -0.0503
 7003TIP3    H242501   4.583   2.404   3.198 -0.7831 -0.2300  0.5643
 7004TIP3   OH242502   1.196   4.114  11.814 -0.0432  0.0250  0.8119
 7004TIP3    H142503   1.173   4.096  11.722 -2.2262  1.3974  1.0432
 7004TIP3    H242504   1.115   4.145  11.853  1.8746  3.8596  2.0451
 7005TIP3   OH242505   2.796   0.740   3.088 -0.0353  0.2587 -0.2749
 7005TIP3    H142506   2.751   0.818   3.122  0.0163 -0.3854  1.3253
 7005TIP3    H242507   2.830   0.697   3.166  2.0003 -0.1177 -1.3247
 7006TIP3   OH242508   0.620   2.452   3.630 -0.1458 -0.4619 -0.3760
 7006TIP3    H142509   0.643   2.385   3.694 -0.0966  0.7715  0.9151
 7006TIP3    H242510   0.525   2.460   3.637  0.0803  1.1682  1.0667
 7007TIP3   OH242511   2.378   5.320   3.424  0.4827 -0.0657 -0.2766
 7007TIP3    H142512   2.333   5.310   3.341 -0.2459  1.5674 -0.0940
 7007TIP3    H242513   2.310   5.307   3.490  1.1833 -2.0091  0.0990
 7008TIP3   OH242514   6.410   6.208  17.150 -0.3624  0.5950  0.3114
 7008TIP3    H142515   6.403   6.112  17.146  0.7952  0.5572 -1.0940
 7008TIP3    H242516   6.338   6.240  17.096  0.1637  0.4929 -0.4501
 7009TIP3   OH242517   4.903   0.902   3.516  0.2481  0.1003 -0.2362
 7009TIP3    H142518   4.846   0.825   3.509  0.2222  0.0277  0.7411
 7009TIP3    H242519   4.858   0.960   3.577 -0.1990  1.3185 -1.6804
 7010TIP3   OH242520   6.589   6.518  12.406 -0.2391  0.3417 -0.3478
 7010TIP3    H142521   6.648   6.565  12.464  0.9111  0.1863 -1.3875
 7010TIP3    H242522   6.574   6.434  12.451 -0.2923  0.6914  0.2915
 7011TIP3   OH242523   1.365   5.684   4.204 -0.0286  0.2445  0.3352
 7011TIP3    H142524   1.275   5.677   4.237 -0.1430  0.2247  0.0168
 7011TIP3    H242525   1.359   5.741   4.128  0.2347  0.2672  0.3296
 7012TIP3   OH242526   4.882   2.777  15.777  0.1100 -0.0119  0.4006
 7012TIP3    H142527   4.969   2.749  15.806 -0.2337  0.2975  1.7615
 7012TIP3    H242528   4.843   2.698  15.741  0.6279 -0.3589  0.5898
 7013TIP3   OH242529   3.646   3.765   2.486 -0.3249  0.1092 -0.0161
 7013TIP3    H142530   3.724   3.810   2.453 -0.8616  0.1175 -1.3004
 7013TIP3    H242531   3.673   3.729   2.570  1.2793 -0.4510 -0.7450
 7014TIP3   OH242532   0.554   6.129  13.126  0.3082 -0.3800  0.0546
 7014TIP3    H142533   0.536   6.052  13.072 -1.0121 -2.0670  2.7293
 7014TIP3    H242534   0.649   6.134  13.129  0.4060 -1.2706 -1.0450
 7015TIP3   OH242535   1.754   5.313  13.350  0.0881  0.0686  0.2550
 7015TIP3    H142536   1.684   5.375  13.372  0.8140  0.8827  0.2851
 7015TIP3    H242537   1.835   5.362  13.365  0.6622 -0.7723 -0.0778
 7016TIP3   OH242538   3.148   4.559   5.641  0.4673 -0.7245 -0.0874
 7016TIP3    H142539   3.089   4.535   5.713 -1.3680  2.6483 -0.3440
 7016TIP3    H242540   3.119   4.505   5.568  0.0856 -1.7178  0.7774
 7017TIP3   OH242541   6.188   3.412   2.581  0.6108  0.1067 -0.2306
 7017TIP3    H142542   6.212   3.499   2.615 -1.3310  0.1963  1.0068
 7017TIP3    H242543   6.108   3.427   2.532 -0.5781 -1.2085  1.2678
 7018TIP3   OH242544   3.785   0.353   1.086 -0.6688  0.0830 -0.5061
 7018TIP3    H142545   3.746   0.376   1.170  0.8492  2.8641 -0.4771
 7018TIP3    H242546   3.830   0.270   1.102  1.0965  1.4479  1.9701
 7019TIP3   OH242547   1.840   6.727  15.930 -0.2814  0.4239  0.3689
 7019TIP3    H142548   1.758   6.712  15.976 -0.5045  0.4306 -0.0228
 7019TIP3    H242549   1.818   6.792  15.863  0.6233  2.4406  1.9443
 7020TIP3   OH242550   4.028   5.324   5.739  0.2819 -0.2924  0.1738
 7020TIP3    H142551   3.969   5.260   5.778  0.6015  0.4825  1.9871
 7020TIP3    H242552   4.102   5.273   5.707  2.0755 -0.6063  4.4758
 7021TIP3   OH242553   1.265   5.660   4.599  0.3221 -0.2510  0.1469
 7021TIP3    H142554   1.205   5.586   4.606 -0.7320  0.6864  1.2017
 7021TIP3    H242555   1.340   5.626   4.550 -0.6578 -1.6893 -0.3705
 7022TIP3   OH242556   0.352   6.563   0.318  0.2798 -0.5194  0.4510
 7022TIP3    H142557   0.375   6.631   0.254 -0.9847 -0.6622 -0.1700
 7022TIP3    H242558   0.436   6.537   0.356  0.8857  0.6750 -0.0336
 7023TIP3   OH242559   4.026   6.481  10.768  0.6022  0.0961  0.1251
 7023TIP3    H142560   3.932   6.468  10.753  0.1648  2.3905  0.7628
 7023TIP3    H242561   4.047   6.423  10.841 -0.5339  0.3026  0.6244
 7024TIP3   OH242562   5.839   2.083   3.376  0.4543 -0.2057  0.0890
 7024TIP3    H142563   5.748   2.094   3.404  1.2374  1.8100  1.9020
 7024TIP3    H242564   5.848   2.142   3.301  0.5940  0.4381  0.6178
 7025TIP3   OH242565   6.595   0.211   5.347  0.4128 -0.4141  0.0174
 7025TIP3    H142566   6.593   0.242   5.257 -1.8163  0.0065  0.1886
 7025TIP3    H242567   6.529   0.142   5.351  1.2094 -1.1449  1.0845
 7026TIP3   OH242568   3.347   1.064   4.712 -0.0649 -0.5766 -1.1060
 7026TIP3    H142569   3.351   0.992   4.774 -1.6290  0.3644  0.1279
 7026TIP3    H242570   3.278   1.038   4.650 -1.9379  0.6524  0.4174
 7027TIP3   OH242571   1.381   0.344  12.547  0.1848 -0.5213 -0.1033
 7027TIP3    H142572   1.369   0.273  12.610 -1.5366  0.6980  1.0230
 7027TIP3    H242573   1.415   0.302  12.469  0.1902 -2.4188  0.8915
 7028TIP3   OH242574   1.822   0.861   3.595 -0.2450  0.4555  0.1874
 7028TIP3    H142575   1.732   0.849   3.564  0.7265 -0.6246 -2.3433
 7028TIP3    H242576   1.841   0.953   3.577  0.0652  0.0138 -1.9227
 7029TIP3   OH242577   6.256   4.855   5.587 -0.7206 -0.1208  0.4294
 7029TIP3    H142578   6.237   4.945   5.613  0.2775 -0.0605  0.9911
 7029TIP3    H242579   6.327   4.863   5.523  0.8927 -0.6134  2.1047
 7030TIP3   OH242580   0.329   1.036   3.911  0.7177  1.1692  0.5160
 7030TIP3    H142581   0.399   1.022   3.847 -0.0090  0.0118 -0.0292
 7030TIP3    H242582   0.248   1.032   3.860  0.1959  1.5380  1.2997
 7031TIP3   OH242583   1.766   5.605  15.548  0.7919  0.7777 -0.0501
 7031TIP3    H142584   1.719   5.647  15.620 -0.8819 -1.6043  0.3333
 7031TIP3    H242585   1.696   5.567  15.494  2.1901 -0.6522 -0.8736
 7032TIP3   OH242586   0.332   5.089  15.142 -0.0113 -0.1092  0.8715
 7032TIP3    H142587   0.321   5.178  15.177 -0.5800  0.3636 -0.4898
 7032TIP3    H242588   0.243   5.060  15.122  0.0968 -1.3262  2.1066
 7033TIP3   OH242589   2.311   4.209   2.727  0.2403  0.3204 -1.1093
 7033TIP3    H142590   2.366   4.201   2.649 -0.4082 -3.8181 -1.2359
 7033TIP3    H242591   2.373   4.235   2.796  1.3700  1.0566 -2.3747
 7034TIP3   OH242592   1.884   2.243   5.487 -0.4120 -0.3990  0.1900
 7034TIP3    H142593   1.960   2.295   5.515 -1.2298  0.2239  1.2697
 7034TIP3    H242594   1.855   2.198   5.566 -1.4446 -0.2940 -0.1269
 7035TIP3   OH242595   6.815   4.027   0.910 -0.4986  0.3223  0.6318
 7035TIP3    H142596   6.846   3.998   0.995 -0.8012  0.6758  0.8613
 7035TIP3    H242597   6.735   3.976   0.895  0.8877 -1.5736 -0.5520
 7036TIP3   OH242598   6.480   6.336  11.777  0.5165 -0.3507  0.0480
 7036TIP3    H142599   6.475   6.358  11.684 -0.8403 -1.8825 -0.2540
 7036TIP3    H242600   6.404   6.281  11.793  0.9210 -0.3680  2.0015
 7037TIP3   OH242601   3.718   3.647   5.510 -0.7274  0.2703  0.3801
 7037TIP3    H142602   3.751   3.613   5.427 -1.8499  0.0298  0.0255
 7037TIP3    H242603   3.796   3.653   5.566 -0.1782 -0.9189 -0.2288
 7038TIP3   OH242604   5.417   1.556   0.538 -0.6740  0.1859 -0.4067
 7038TIP3    H142605   5.391   1.464   0.546  2.2623 -0.6136  0.3535
 7038TIP3    H242606   5.345   1.604   0.578 -1.6344 -1.8528  0.4044
 7039TIP3   OH242607   3.226   5.435   3.855 -0.0637 -0.0426 -0.3950
 7039TIP3    H142608   3.159   5.371   3.830 -0.1718 -0.4014  0.7578
 7039TIP3    H242609   3.308   5.396   3.826 -0.3815  0.6226 -2.2505
 7040TIP3   OH242610   4.848   0.763  16.621  0.1478  0.8896  0.3091
 7040TIP3    H142611   4.813   0.732  16.705 -2.2156  0.7183 -0.7013
 7040TIP3    H242612   4.834   0.857  16.622  1.3805  1.0781  0.6595
 7041TIP3   OH242613   2.038   0.918   3.795 -0.0900  0.1891 -0.2408
 7041TIP3    H142614   1.958   0.892   3.748  0.5059  0.6250 -1.5318
 7041TIP3    H242615   2.094   0.840   3.791  0.0518  0.3017 -0.4631
 7042TIP3   OH242616   2.728   6.095   0.022  0.2695 -0.5245 -0.2366
 7042TIP3    H142617   2.792   6.025   0.040 -0.0403 -0.4355  1.3008
 7042TIP3    H242618   2.780   6.167  -0.012  1.0779 -0.2549  1.5322
 7043TIP3   OH242619   6.633   6.577   4.248 -0.5959 -0.1860 -0.4566
 7043TIP3    H142620   6.572   6.650   4.257  0.5332  1.1246 -2.8682
 7043TIP3    H242621   6.695   6.588   4.320 -1.4185  0.2540  0.1841
 7044TIP3   OH242622   0.573   4.461  12.462 -0.0214  0.1087  0.3625
 7044TIP3    H142623   0.592   4.544  12.507 -0.1868 -0.0715  0.7695
 7044TIP3    H242624   0.608   4.473  12.374 -0.9504  0.9888  0.1027
 7045TIP3   OH242625   5.766   4.587  15.597  0.5883 -0.1956  0.3098
 7045TIP3    H142626   5.734   4.671  15.563  0.9910 -0.9720 -2.0736
 7045TIP3    H242627   5.712   4.521  15.553  1.7125 -1.2799  0.5445
 7046TIP3   OH242628   5.034   4.710   2.638 -0.0570 -0.1679 -0.2653
 7046TIP3    H142629   5.061   4.715   2.546 -0.8941  1.4339 -0.4422
 7046TIP3    H242630   5.110   4.675   2.684  1.0002  0.7451 -1.2974
 7047TIP3   OH242631   1.596   4.853   3.410  0.1988  0.6742 -0.0120
 7047TIP3    H142632   1.556   4.842   3.323  0.7110  0.6106 -0.2399
 7047TIP3    H242633   1.554   4.931   3.445 -0.9931 -0.0560  0.2344
 7048TIP3   OH242634   5.137   0.977   4.161 -0.0993 -0.0021  0.0999
 7048TIP3    H142635   5.224   0.961   4.196  0.2522  0.6962 -0.4520
 7048TIP3    H242636   5.078   0.959   4.234  0.5995  0.9791  0.9208
 7049TIP3   OH242637   6.128   3.256   2.149 -0.7557  0.0296  0.1906
 7049TIP3    H142638   6.145   3.209   2.230 -3.4829 -0.5609  0.4604
 7049TIP3    H242639   6.215   3.268   2.110  0.2098 -3.4512  1.0814
 7050TIP3   OH242640   5.605   5.142   3.190  0.5786 -0.0403  0.3899
 7050TIP3    H142641   5.619   5.222   3.241  0.8928 -1.2179  2.1804
 7050TIP3    H242642   5.551   5.087   3.246  2.0633 -1.9120  0.0208
 7051TIP3   OH242643   3.733   0.303  15.816  0.1363 -0.1119  0.1528
 7051TIP3    H142644   3.822   0.276  15.838 -0.1460 -2.7564 -1.7655
 7051TIP3    H242645   3.683   0.290  15.897  0.4194 -3.7569 -0.1930
 7052TIP3   OH242646   1.496   3.572  16.449  0.0555 -0.5427 -0.1689
 7052TIP3    H142647   1.509   3.658  16.410  1.5319 -0.8706 -0.4122
 7052TIP3    H242648   1.444   3.590  16.528  0.7651  0.6282  0.0422
 7053TIP3   OH242649   1.280   4.075   1.347 -0.0942  0.3385  0.3414
 7053TIP3    H142650   1.283   4.168   1.371 -1.4017  0.3004  0.6559
 7053TIP3    H242651   1.309   4.073   1.255 -0.5766  1.1078  0.1736
 7054TIP3   OH242652   4.200   3.553  16.851 -0.7344 -0.4219  0.0192
 7054TIP3    H142653   4.197   3.511  16.765 -1.1004 -1.5922  0.5916
 7054TIP3    H242654   4.181   3.645  16.834  2.2489 -0.0343 -1.5375
 7055TIP3   OH242655   4.421   4.519  11.660 -0.9490 -0.6121  0.0797
 7055TIP3    H142656   4.403   4.442  11.605 -1.3134 -0.2112 -0.3709
 7055TIP3    H242657   4.435   4.590  11.598  2.3468 -0.9042  0.4216
 7056TIP3   OH242658   1.254   1.949   1.292 -0.4929  0.0560  0.0312
 7056TIP3    H142659   1.317   1.909   1.352  0.6841 -0.3873 -1.4638
 7056TIP3    H242660   1.246   1.887   1.220  0.1493  1.7426 -1.5559
 7057TIP3   OH242661   6.722   3.037   5.062 -0.2839 -0.5622  0.1879
 7057TIP3    H142662   6.628   3.019   5.059 -0.5745  0.7849  0.6894
 7057TIP3    H242663   6.742   3.049   5.155  0.2314 -0.0522  0.0159
 7058TIP3   OH242664   4.076   5.769   2.750 -0.2902 -0.2184  0.1280
 7058TIP3    H142665   4.028   5.717   2.814 -0.5670 -2.6544 -1.9790
 7058TIP3    H242666   4.042   5.858   2.760 -1.3498 -0.8513  2.3358
 7059TIP3   OH242667   0.136   5.323  15.888 -0.2517 -0.0609 -0.4487
 7059TIP3    H142668   0.132   5.418  15.873 -0.6910 -0.0725 -0.3923
 7059TIP3    H242669   0.226   5.308  15.917 -0.5352  0.5189  0.7600
 7060TIP3   OH242670   4.777   5.426  16.315  0.0248 -0.1244  0.2131
 7060TIP3    H142671   4.717   5.462  16.249 -0.4410 -0.2402  0.5729
 7060TIP3    H242672   4.842   5.494  16.328  0.4887 -0.3430 -0.8335
 7061TIP3   OH242673   0.212   1.988  16.952 -0.1255 -0.3212 -0.8555
 7061TIP3    H142674   0.297   1.947  16.939  0.3469  0.8664 -1.6308
 7061TIP3    H242675   0.150   1.916  16.951  0.6102 -0.9591 -2.8722
 7062TIP3   OH242676   6.583   5.547  13.606  0.1904  0.4561  0.2631
 7062TIP3    H142677   6.600   5.608  13.678  1.3514 -0.5203  0.8321
 7062TIP3    H242678   6.649   5.478  13.617 -0.8688 -0.7067 -0.5909
 7063TIP3   OH242679   0.841   4.598   0.640 -0.4448 -0.3961 -0.6251
 7063TIP3    H142680   0.853   4.692   0.649 -1.4963 -0.3234  0.1815
 7063TIP3    H242681   0.774   4.588   0.572  1.3617 -0.6624 -2.4217
 7064TIP3   OH242682   2.429   6.252   1.708 -0.4170  0.4676 -0.2155
 7064TIP3    H142683   2.506   6.221   1.756 -0.0344  0.4357 -0.8451
 7064TIP3    H242684   2.459   6.333   1.666  0.3324 -1.2742 -3.2487
 7065TIP3   OH242685   0.086   6.562  11.769  0.5283  0.2823 -0.2167
 7065TIP3    H142686  -0.006   6.585  11.774  0.4682  0.0706 -0.3354
 7065TIP3    H242687   0.121   6.580  11.856  0.1110 -0.7503  0.1698
 7066TIP3   OH242688   0.528   4.422   0.859 -0.2244 -0.7180  0.1335
 7066TIP3    H142689   0.588   4.490   0.890 -0.3881 -0.1547 -0.7752
 7066TIP3    H242690   0.454   4.427   0.921 -0.0874 -0.2947  0.2665
 7067TIP3   OH242691   2.248   6.367  13.816 -0.2135  0.6570 -0.2409
 7067TIP3    H142692   2.195   6.324  13.750  0.9494  0.4474 -1.0456
 7067TIP3    H242693   2.189   6.379  13.890 -0.3322 -3.1898  0.3963
 7068TIP3   OH242694   5.145   5.512   2.804  0.6757 -0.1967 -0.4661
 7068TIP3    H142695   5.173   5.602   2.787 -1.5978  0.5430 -0.4687
 7068TIP3    H242696   5.133   5.475   2.717  0.0493  0.0097 -0.4690
 7069TIP3   OH242697   3.359   4.736   3.330 -0.3692  0.0810  0.0470
 7069TIP3    H142698   3.406   4.731   3.412  0.7088  0.1548 -0.5585
 7069TIP3    H242699   3.363   4.647   3.294 -0.4324  0.1536 -0.1427
 7070TIP3   OH242700   3.190   3.916   2.459 -0.0851  0.1174 -0.1844
 7070TIP3    H142701   3.258   3.856   2.427  0.1981  0.4186 -0.1477
 7070TIP3    H242702   3.107   3.873   2.435  0.0958 -0.8039  0.7705
 7071TIP3   OH242703   2.283   0.628   4.161  0.0950 -0.3328 -0.3031
 7071TIP3    H142704   2.368   0.594   4.187 -0.1172  0.4062  1.4517
 7071TIP3    H242705   2.301   0.679   4.082  1.3611  0.1850  0.3074
 7072TIP3   OH242706   0.235   4.694  12.257  0.4137  0.0431 -0.3059
 7072TIP3    H142707   0.325   4.709  12.288  0.1666  2.0189 -0.5051
 7072TIP3    H242708   0.245   4.677  12.164  0.8985 -3.3483  0.2766
 7073TIP3   OH242709   5.179   2.336   5.634 -0.0620 -0.1362  0.3526
 7073TIP3    H142710   5.212   2.297   5.553  0.0359  0.4690  0.0954
 7073TIP3    H242711   5.163   2.428   5.611  1.4366  0.4103  1.4272
 7074TIP3   OH242712   5.610   4.493   0.609  0.7852 -0.0921 -0.0521
 7074TIP3    H142713   5.566   4.465   0.528  0.9268 -0.5041  0.0113
 7074TIP3    H242714   5.546   4.549   0.653  0.6743  0.0598 -0.4055
 7075TIP3   OH242715   2.682   3.488   0.340  0.4794 -0.2539 -0.4179
 7075TIP3    H142716   2.602   3.533   0.314 -0.0617 -1.2922 -0.5344
 7075TIP3    H242717   2.734   3.556   0.384 -0.5267  0.3735 -0.1920
 7076TIP3   OH242718   4.062   1.057   3.356 -0.1312  0.2762 -0.4129
 7076TIP3    H142719   4.045   1.029   3.266  1.4549 -0.3085 -0.5588
 7076TIP3    H242720   4.075   0.976   3.404 -1.3943  0.5771  0.4429
 7077TIP3   OH242721   2.884   3.948  15.165 -0.6417 -0.5567  0.1391
 7077TIP3    H142722   2.907   3.954  15.258  0.9655 -1.1677 -0.1932
 7077TIP3    H242723   2.944   3.882  15.130 -0.1429  0.8038 -1.6523
 7078TIP3   OH242724   5.324   3.066  16.152 -0.4666 -0.2039 -0.6503
 7078TIP3    H142725   5.236   3.054  16.186 -0.4655 -1.0651 -0.9454
 7078TIP3    H242726   5.322   3.027  16.064  0.9170 -2.6873  0.3808
 7079TIP3   OH242727   4.229   2.658   2.677  0.4402  0.0728  0.0044
 7079TIP3    H142728   4.187   2.683   2.595 -0.0777 -1.0131 -0.0702
 7079TIP3    H242729   4.207   2.566   2.688  0.9904  0.0622  1.0732
 7080TIP3   OH242730   1.201   2.334  11.322  0.3401  0.3295  0.1580
 7080TIP3    H142731   1.168   2.358  11.408 -1.3257 -0.1752 -0.3297
 7080TIP3    H242732   1.152   2.256  11.297  1.0227  0.2782 -1.1117
 7081TIP3   OH242733   0.038   3.999   5.246 -0.5019 -0.3569 -0.2440
 7081TIP3    H142734   0.115   3.987   5.191 -0.6823  1.7574 -0.9737
 7081TIP3    H242735  -0.036   4.001   5.185 -1.2706 -3.2169  0.5082
 7082TIP3   OH242736   2.408   5.468   4.240 -0.2916  0.0961 -0.1402
 7082TIP3    H142737   2.373   5.401   4.298 -1.8958  0.2879 -0.8743
 7082TIP3    H242738   2.373   5.550   4.273 -1.8331  0.1352 -1.8009
 7083TIP3   OH242739   1.380   4.923   1.129  0.6743 -0.3107 -0.7451
 7083TIP3    H142740   1.443   4.880   1.071  0.3722  0.1524 -1.4350
 7083TIP3    H242741   1.371   5.011   1.093 -0.9196 -0.5942 -1.1115
 7084TIP3   OH242742   2.031   4.787  15.490  0.2504 -0.6743  0.2514
 7084TIP3    H142743   2.092   4.852  15.454 -0.4241  0.0950  0.4664
 7084TIP3    H242744   2.086   4.730  15.544  1.1632 -1.4586 -1.4712
 7085TIP3   OH242745   3.503   5.160  13.469 -0.1375 -0.0011  0.3454
 7085TIP3    H142746   3.558   5.229  13.434 -2.7182  2.5641  1.1653
 7085TIP3    H242747   3.415   5.178  13.434 -1.0953 -2.2476  1.4241
 7086TIP3   OH242748   1.191   0.355  14.684  0.0370  0.0859 -0.4422
 7086TIP3    H142749   1.216   0.341  14.593 -0.5743  1.3788 -0.8178
 7086TIP3    H242750   1.142   0.277  14.708 -0.9317  0.3150 -1.6362
 7087TIP3   OH242751   4.634   2.111   1.747  0.0548  0.5718  0.2642
 7087TIP3    H142752   4.681   2.158   1.815 -0.8698  1.3307  0.4058
 7087TIP3    H242753   4.666   2.149   1.665  0.5223  0.2812  0.3142
 7088TIP3   OH242754   3.087   0.684  13.437 -0.0095 -0.2621 -0.2728
 7088TIP3    H142755   3.101   0.640  13.521  2.3585  0.2861 -0.3401
 7088TIP3    H242756   3.060   0.773  13.460 -0.2229 -0.3740 -0.0957
 7089TIP3   OH242757   1.415   4.670  17.204  0.1392  0.0914 -0.0860
 7089TIP3    H142758   1.465   4.591  17.225 -0.3737 -0.2275 -0.0543
 7089TIP3    H242759   1.455   4.738  17.257 -0.6255 -0.5434  1.3213
 7090TIP3   OH242760   3.763   1.927  16.572  0.4480 -0.0594  0.2999
 7090TIP3    H142761   3.826   1.921  16.500  0.5025 -3.3609  0.5491
 7090TIP3    H242762   3.808   1.887  16.647 -1.7643 -2.1214  0.5715
 7091TIP3   OH242763   2.229   0.131   3.771  0.1049  0.2736  0.2822
 7091TIP3    H142764   2.161   0.183   3.815  0.3056 -0.7476  1.8461
 7091TIP3    H242765   2.310   0.177   3.790 -0.1728  1.7546 -1.9830
 7092TIP3   OH242766   6.641   4.779   0.543 -0.3280  0.3692  0.3920
 7092TIP3    H142767   6.616   4.859   0.497 -0.4719  1.8756  2.9856
 7092TIP3    H242768   6.566   4.720   0.532  0.5578 -0.2403 -3.1984
 7093TIP3   OH242769   6.211   1.626   0.964 -0.2754 -0.2832 -0.8482
 7093TIP3    H142770   6.242   1.613   0.875 -1.6571 -1.2498 -1.2054
 7093TIP3    H242771   6.192   1.537   0.996 -0.0133  0.0706  0.3262
 7094TIP3   OH242772   6.676   0.439   4.002 -0.3264  0.0760 -0.0687
 7094TIP3    H142773   6.681   0.488   3.920  0.6022 -0.5555 -0.4054
 7094TIP3    H242774   6.763   0.449   4.041 -1.3907  2.0651  1.8502
 7095TIP3   OH242775   3.790   0.474   3.510 -0.2921 -0.1354  0.0779
 7095TIP3    H142776   3.839   0.463   3.428  0.9954  0.4500  0.7662
 7095TIP3    H242777   3.709   0.518   3.483  0.8831  1.6259 -0.6426
 7096TIP3   OH242778   4.847   3.219   0.448  0.1004  0.4494 -0.5803
 7096TIP3    H142779   4.823   3.284   0.382  0.3757  0.3598 -0.7701
 7096TIP3    H242780   4.842   3.266   0.531 -0.7866  0.4143 -0.6127
 7097TIP3   OH242781   1.674   5.681  13.534 -0.3894 -0.3763  0.1445
 7097TIP3    H142782   1.694   5.731  13.455  1.6380 -0.7553  0.3906
 7097TIP3    H242783   1.591   5.718  13.566 -1.9876 -1.1502 -2.9002
 7098TIP3   OH242784   2.211   5.348  11.771  0.4771 -0.5573 -0.0639
 7098TIP3    H142785   2.233   5.261  11.805  0.3676 -0.1980  0.9403
 7098TIP3    H242786   2.224   5.341  11.676  0.6168 -1.6226  0.0300
 7099TIP3   OH242787   3.043   6.294  16.032  0.1783 -0.3371 -0.6135
 7099TIP3    H142788   2.975   6.227  16.046 -0.0201 -0.3300 -1.4922
 7099TIP3    H242789   3.089   6.265  15.953 -0.5375  1.0639 -1.5683
 7100TIP3   OH242790   1.187   3.261  16.585  0.3940 -0.3803 -0.3070
 7100TIP3    H142791   1.129   3.227  16.518  2.0310  0.8537 -2.4292
 7100TIP3    H242792   1.270   3.279  16.539  0.8584  2.6243  1.4987
 7101TIP3   OH242793   1.571   2.363  14.269 -0.5615  0.0384 -0.6406
 7101TIP3    H142794   1.653   2.394  14.307 -1.0494 -0.2375  0.6715
 7101TIP3    H242795   1.526   2.443  14.240 -0.6394  0.3528  0.3219
 7102TIP3   OH242796   0.803   5.105  15.074 -0.1929  0.6899  0.4368
 7102TIP3    H142797   0.731   5.049  15.103  0.4396 -0.6097 -0.4088
 7102TIP3    H242798   0.790   5.114  14.980  2.0291 -1.5414 -0.1462
 7103TIP3   OH242799   3.137   0.203  14.049 -0.4088  0.5856  0.4493
 7103TIP3    H142800   3.065   0.263  14.070 -0.9270  0.2188 -0.2753
 7103TIP3    H242801   3.107   0.155  13.972 -0.9928 -2.2297  2.3283
 7104TIP3   OH242802   5.195   4.368  14.035 -0.3656 -1.1308 -0.6345
 7104TIP3    H142803   5.119   4.311  14.019 -1.9610  1.2531 -1.9362
 7104TIP3    H242804   5.158   4.443  14.082  1.8217 -1.4567  1.6969
 7105TIP3   OH242805   2.955   4.562  11.913  0.2787 -0.7643  0.2781
 7105TIP3    H142806   2.956   4.655  11.935  3.1250 -0.5718 -0.4256
 7105TIP3    H242807   2.930   4.560  11.820 -0.3631 -0.7466  0.4498
 7106TIP3   OH242808   2.531   3.840  14.554  0.8082 -0.0249 -0.0593
 7106TIP3    H142809   2.515   3.778  14.483 -1.6727  1.6497 -1.0202
 7106TIP3    H242810   2.532   3.787  14.633  1.6619 -1.6531 -1.1394
 7107TIP3   OH242811   0.006   0.499  12.143 -0.7310  0.1240  0.4201
 7107TIP3    H142812  -0.058   0.431  12.124 -0.3680  0.0475 -0.5236
 7107TIP3    H242813   0.001   0.559  12.069  3.1093 -1.9876 -1.7128
 7108TIP3   OH242814   5.186   4.060   4.576  0.2899 -0.0379  0.0174
 7108TIP3    H142815   5.119   4.034   4.513 -0.4222  0.5181  0.5478
 7108TIP3    H242816   5.252   4.105   4.523 -1.6723  2.9969  0.0426
 7109TIP3   OH242817   5.768   2.344   1.775 -0.2588  0.2668 -0.0846
 7109TIP3    H142818   5.698   2.330   1.711 -0.0948 -0.8283 -0.0427
 7109TIP3    H242819   5.723   2.337   1.860 -0.2657  0.5274 -0.0664
 7110TIP3   OH242820   1.320   5.674   5.863  0.1713 -0.4146  0.1832
 7110TIP3    H142821   1.263   5.637   5.795  0.3389 -0.4909  0.0842
 7110TIP3    H242822   1.288   5.764   5.874  0.3951 -0.2758 -0.2776
 7111TIP3   OH242823   5.473   6.546  10.733  0.7193  0.0409 -0.1852
 7111TIP3    H142824   5.391   6.573  10.693  0.9573  1.0842  0.0174
 7111TIP3    H242825   5.534   6.538  10.660  0.1487 -1.8527 -0.4663
 7112TIP3   OH242826   4.812   2.964  16.391  0.2371  0.2085  0.5502
 7112TIP3    H142827   4.858   2.957  16.307  0.7662 -0.4472  0.8947
 7112TIP3    H242828   4.723   2.934  16.372  0.5460 -0.6034  0.3782
 7113TIP3   OH242829   0.810   0.970   2.650  0.0649  0.2466  0.4499
 7113TIP3    H142830   0.834   0.941   2.738  0.7262 -0.0550  0.1713
 7113TIP3    H242831   0.721   1.005   2.660  0.5048  1.1195  1.4314
 7114TIP3   OH242832   0.901   6.744   4.490 -0.1580  0.0383  0.4362
 7114TIP3    H142833   0.924   6.793   4.411  1.0843 -1.7187 -0.3197
 7114TIP3    H242834   0.809   6.722   4.478  0.0475 -0.3148 -0.5923
 7115TIP3   OH242835   5.644   2.908  15.056 -0.1569  0.0427 -0.3695
 7115TIP3    H142836   5.660   2.970  15.127 -0.3615 -0.1498 -0.1517
 7115TIP3    H242837   5.598   2.959  14.989  0.4718  0.3443 -0.5731
 7116TIP3   OH242838   2.158   1.168   6.045 -0.2455  0.2536  0.3913
 7116TIP3    H142839   2.075   1.202   6.012 -0.4037  2.3438  2.7644
 7116TIP3    H242840   2.225   1.205   5.988 -0.7199  1.1845  0.4452
 7117TIP3   OH242841   1.828   6.297  17.022  0.2475  0.3038 -0.2191
 7117TIP3    H142842   1.874   6.374  16.991  1.4554 -1.1694 -2.1604
 7117TIP3    H242843   1.794   6.322  17.108  1.9410  2.4624 -0.1587
 7118TIP3   OH242844   1.286   6.542  10.978 -0.0993 -0.5486 -0.4437
 7118TIP3    H142845   1.359   6.518  10.922  1.4855  1.8328  0.5531
 7118TIP3    H242846   1.232   6.599  10.923  1.9283  2.5349  0.6406
 7119TIP3   OH242847   6.706   3.239  16.845 -0.3231  0.5285  0.5398
 7119TIP3    H142848   6.649   3.222  16.770 -0.5395  1.1544  0.5552
 7119TIP3    H242849   6.662   3.310  16.893  0.2223  0.6854  0.8092
 7120TIP3   OH242850   2.958   2.090   6.291  0.3288 -0.0057  0.3213
 7120TIP3    H142851   3.012   2.046   6.357 -0.4638  0.0914  1.0464
 7120TIP3    H242852   2.884   2.126   6.341  0.9556  2.1238 -0.2807
 7121TIP3   OH242853   5.019   4.716   4.063  0.3507  0.0070  0.4165
 7121TIP3    H142854   5.008   4.623   4.043 -0.7099  0.5471 -1.6930
 7121TIP3    H242855   4.995   4.723   4.156 -0.2479 -1.7168  0.4191
 7122TIP3   OH242856   3.600   6.475  15.166  0.1611 -0.2325  0.9934
 7122TIP3    H142857   3.680   6.497  15.118 -0.4052 -3.5101 -1.6122
 7122TIP3    H242858   3.543   6.551  15.154  2.5407  1.8878  2.3510
 7123TIP3   OH242859   6.417   5.931  17.129  0.6480  0.4508  0.4324
 7123TIP3    H142860   6.364   5.852  17.137 -1.9961  2.2710  1.4462
 7123TIP3    H242861   6.443   5.933  17.037 -2.0196  0.1280 -0.3662
 7124TIP3   OH242862   4.102   1.846  14.993 -0.1158  0.1042 -0.5829
 7124TIP3    H142863   4.109   1.812  15.082 -1.2912 -0.8602 -0.8387
 7124TIP3    H242864   4.106   1.941  15.002  1.4178 -0.0413  0.3253
 7125TIP3   OH242865   4.109   0.851  14.921 -0.6557  0.5158  0.1695
 7125TIP3    H142866   4.039   0.913  14.939 -1.7516 -0.4369 -0.7431
 7125TIP3    H242867   4.077   0.799  14.848  0.1611 -1.2561  1.0381
 7126TIP3   OH242868   0.753   5.950   3.207 -0.5672  0.3475  0.1284
 7126TIP3    H142869   0.775   6.034   3.246 -1.5448  0.6567  0.0352
 7126TIP3    H242870   0.698   5.973   3.131  0.1843 -0.3039 -0.6210
 7127TIP3   OH242871   3.629   1.390   1.342  0.3688 -0.3161  0.3641
 7127TIP3    H142872   3.706   1.334   1.347 -0.8101 -1.9846  0.2235
 7127TIP3    H242873   3.575   1.351   1.273 -1.0691  0.2417  1.1496
 7128TIP3   OH242874   1.588   3.443  14.896  0.8388  0.5981  0.1756
 7128TIP3    H142875   1.539   3.474  14.821  0.4817 -1.0966 -0.3109
 7128TIP3    H242876   1.667   3.497  14.898 -0.7833  3.0309  0.6967
 7129TIP3   OH242877   4.349   2.023   5.179  0.4880 -0.7202  0.4068
 7129TIP3    H142878   4.274   2.082   5.177  1.5060  0.5950  0.9802
 7129TIP3    H242879   4.348   1.981   5.092 -0.2208  0.1235 -0.0009
 7130TIP3   OH242880   1.327   6.805  12.978 -1.0124 -0.2971 -0.3105
 7130TIP3    H142881   1.328   6.820  13.073  1.5904 -1.8727 -0.0414
 7130TIP3    H242882   1.332   6.893  12.940  1.9914  0.2102  1.0979
 7131TIP3   OH242883   0.110   2.184  11.956 -0.4784 -0.1220  0.3661
 7131TIP3    H142884   0.098   2.125  12.030  0.5947  0.4410  1.0059
 7131TIP3    H242885   0.199   2.166  11.924 -0.9613 -0.4145 -0.8390
 7132TIP3   OH242886   1.228   5.034   4.395 -0.6419 -0.1680  0.4006
 7132TIP3    H142887   1.237   5.019   4.489 -1.5261 -1.6307  0.2737
 7132TIP3    H242888   1.142   5.075   4.386 -0.4195  0.2700  0.2558
 7133TIP3   OH242889   5.699   1.472   4.085 -0.1479 -0.9105 -0.0122
 7133TIP3    H142890   5.639   1.469   4.010 -0.4994  0.3616  0.2190
 7133TIP3    H242891   5.655   1.420   4.152 -2.9047  3.1474  1.5208
 7134TIP3   OH242892   2.935   4.973  16.096  0.3080  0.2820  0.1712
 7134TIP3    H142893   2.960   4.880  16.093  1.0597  0.4940 -0.3142
 7134TIP3    H242894   2.852   4.974  16.143  0.6571 -0.5720  0.8246
 7135TIP3   OH242895   6.451   1.632  10.927 -0.2957  0.5532 -0.4467
 7135TIP3    H142896   6.545   1.618  10.935 -0.4697 -0.2913  0.1579
 7135TIP3    H242897   6.413   1.578  10.995 -1.3402 -0.5305 -1.8698
 7136TIP3   OH242898   3.605   2.881   4.096 -0.1690  0.4484  0.4773
 7136TIP3    H142899   3.512   2.874   4.074  0.2166 -0.9136 -0.7724
 7136TIP3    H242900   3.624   2.974   4.090 -1.2203  0.6323 -0.2121
 7137TIP3   OH242901   0.147   5.099   3.166  0.4923  0.1453  0.2211
 7137TIP3    H142902   0.219   5.159   3.141  0.2117  0.9346  1.2860
 7137TIP3    H242903   0.184   5.012   3.152  1.6867  0.5390  0.7807
 7138TIP3   OH242904   1.399   1.397  14.079 -0.0028  0.8076  0.0793
 7138TIP3    H142905   1.456   1.468  14.111  2.0724  0.0112 -1.7023
 7138TIP3    H242906   1.452   1.318  14.091 -0.9530 -0.0182 -1.1010
 7139TIP3   OH242907   0.123   5.584   0.065  0.0339  0.1104  0.4857
 7139TIP3    H142908   0.105   5.573  -0.028  1.1681 -1.8104  0.4751
 7139TIP3    H242909   0.061   5.652   0.093 -0.2940  0.7432 -1.6542
 7140TIP3   OH242910   3.596   1.085   0.605 -0.4503 -0.4269 -0.0166
 7140TIP3    H142911   3.672   1.041   0.644  0.0606  1.2559  0.9265
 7140TIP3    H242912   3.563   1.022   0.541  1.1627 -1.5822  0.2378
 7141TIP3   OH242913   1.357   1.421   4.152  0.3708  0.1194  0.1167
 7141TIP3    H142914   1.374   1.353   4.087  0.5072 -0.4261  0.7132
 7141TIP3    H242915   1.263   1.416   4.168  0.2174  0.7487 -0.5767
 7142TIP3   OH242916   2.651   6.404   3.962  0.0543 -0.1616  0.1544
 7142TIP3    H142917   2.688   6.397   3.874  1.1262  0.4439  0.5444
 7142TIP3    H242918   2.570   6.452   3.950  1.6962  2.6537 -0.1351
 7143TIP3   OH242919   1.522   0.455   2.170  0.0305  0.6385 -0.1032
 7143TIP3    H142920   1.521   0.464   2.265 -0.6392 -2.1601  0.2029
 7143TIP3    H242921   1.494   0.540   2.137  1.8569  2.1615  2.1419
 7144TIP3   OH242922   3.894   6.544  14.169 -0.5389  0.5528 -0.1922
 7144TIP3    H142923   3.962   6.536  14.103  1.0817  2.9914  1.0902
 7144TIP3    H242924   3.812   6.531  14.120  0.7259 -0.1601 -2.1928
 7145TIP3   OH242925   0.319   4.574  17.059  0.7462  0.1732 -0.1546
 7145TIP3    H142926   0.361   4.514  17.120  0.9350 -0.4524 -0.8996
 7145TIP3    H242927   0.227   4.549  17.059  0.6166  0.6318  0.4042
 7146TIP3   OH242928   6.445   0.370   0.157  0.1075 -0.4650  0.0592
 7146TIP3    H142929   6.363   0.383   0.205  1.5940  0.0867  2.5507
 7146TIP3    H242930   6.459   0.275   0.160 -1.0305 -0.6990 -1.4384
 7147TIP3   OH242931   4.097   2.128  14.968  0.5500  0.2713 -0.2270
 7147TIP3    H142932   4.157   2.133  14.894 -0.8148  1.7609 -1.2600
 7147TIP3    H242933   4.015   2.165  14.936 -0.7167 -1.0236  1.3906
 7148TIP3   OH242934   6.638   4.232  16.083  0.4458 -0.5502 -0.5651
 7148TIP3    H142935   6.732   4.246  16.071  0.5428 -2.1466 -1.8626
 7148TIP3    H242936   6.621   4.146  16.045 -1.9887  0.8207 -2.8233
 7149TIP3   OH242937   1.545   2.493  12.112  0.1355  0.4584 -0.2672
 7149TIP3    H142938   1.543   2.413  12.061 -0.5914  1.1035 -1.2717
 7149TIP3    H242939   1.500   2.471  12.193 -0.3286 -0.0593 -0.6642
 7150TIP3   OH242940   5.899   3.008   1.760 -0.1419 -0.3725 -0.0684
 7150TIP3    H142941   5.859   2.926   1.788 -0.3377 -0.2928 -0.1199
 7150TIP3    H242942   5.906   3.000   1.665  0.4507 -0.6105 -0.0085
 7151TIP3   OH242943   2.542   6.320   2.635  0.7807 -0.1184 -0.0110
 7151TIP3    H142944   2.474   6.257   2.657  1.2860 -0.7488 -0.2368
 7151TIP3    H242945   2.610   6.306   2.702  1.5065 -0.7741 -0.8708
 7152TIP3   OH242946   2.620   2.707  15.330 -0.5038  0.5535  0.1055
 7152TIP3    H142947   2.528   2.687  15.311 -1.1840  2.2092  1.5458
 7152TIP3    H242948   2.658   2.726  15.244 -1.3534 -0.6864 -0.5679
 7153TIP3   OH242949   3.644   2.011   3.659  0.2298  0.2478  0.1855
 7153TIP3    H142950   3.666   2.080   3.596 -0.3027  0.8640  0.6674
 7153TIP3    H242951   3.588   1.951   3.610  0.3667  0.3713 -0.1233
 7154TIP3   OH242952   3.205   4.523   2.700 -0.1375  0.1399 -0.0444
 7154TIP3    H142953   3.241   4.459   2.762  0.7646  1.0878  0.4490
 7154TIP3    H242954   3.133   4.564   2.748  0.7073  1.0320  0.4728
 7155TIP3   OH242955   1.974   4.392   1.806 -0.3900  0.6970  0.7274
 7155TIP3    H142956   2.015   4.367   1.723 -0.5026 -0.7446  1.0820
 7155TIP3    H242957   1.969   4.487   1.804  0.7598  0.7390 -0.3747
 7156TIP3   OH242958   0.922   5.819   0.525  0.2294  0.2837  0.3172
 7156TIP3    H142959   0.940   5.906   0.562 -0.8652  0.7729 -0.2976
 7156TIP3    H242960   0.830   5.821   0.500  0.3666 -0.8274 -0.3451
 7157TIP3   OH242961   0.916   1.848  16.300 -0.8857  0.0766  0.0694
 7157TIP3    H142962   0.968   1.909  16.247  2.0267 -1.5659  0.9495
 7157TIP3    H242963   0.885   1.783  16.237  0.2396 -0.3262 -0.0787
 7158TIP3   OH242964   6.554   4.850  10.629 -0.0174  0.0840 -0.5292
 7158TIP3    H142965   6.480   4.801  10.593  1.0945 -1.3557 -0.9091
 7158TIP3    H242966   6.631   4.796  10.608  0.7196 -0.5884  3.5358
 7159TIP3   OH242967   6.722   0.446  13.966 -0.5616  0.2589 -0.3314
 7159TIP3    H142968   6.693   0.530  14.002 -0.5284 -0.9972  2.8275
 7159TIP3    H242969   6.797   0.421  14.020  0.1171 -1.2950 -1.9323
 7160TIP3   OH242970   2.610   0.817  13.262 -0.0890 -0.2983 -0.0810
 7160TIP3    H142971   2.661   0.736  13.268  1.5030  0.6430 -0.6297
 7160TIP3    H242972   2.584   0.821  13.170 -0.4282 -0.3204  0.0109
 7161TIP3   OH242973   4.540   5.584   0.903 -0.0368 -0.2325 -0.0736
 7161TIP3    H142974   4.600   5.548   0.968 -0.4431 -2.4246 -0.8938
 7161TIP3    H242975   4.596   5.624   0.837  0.5410 -1.9627 -0.6526
 7162TIP3   OH242976   0.527   3.476  12.312 -0.3703 -0.8961  0.7856
 7162TIP3    H142977   0.621   3.465  12.323 -0.3543 -0.7245  0.8197
 7162TIP3    H242978   0.514   3.571  12.305 -0.3836 -0.9850 -0.5954
 7163TIP3   OH242979   0.915   5.911   3.545 -0.1802 -0.2407  0.7066
 7163TIP3    H142980   0.907   5.869   3.459  0.4130 -0.9918  1.0188
 7163TIP3    H242981   0.859   5.988   3.538 -1.4260 -1.1621  0.1736
 7164TIP3   OH242982   3.658   1.500  14.013  0.2216 -0.2478  0.2119
 7164TIP3    H142983   3.693   1.557  14.081  0.5285  1.1330 -1.0485
 7164TIP3    H242984   3.728   1.438  13.994  1.7723  1.9879 -1.7342
 7165TIP3   OH242985   2.463   6.540  13.212 -0.1752 -0.0186  0.2328
 7165TIP3    H142986   2.458   6.630  13.180 -1.2412 -0.4714 -0.9108
 7165TIP3    H242987   2.522   6.496  13.151 -0.1791 -0.2555  0.3989
 7166TIP3   OH242988   5.639   3.428  16.204 -0.0401  0.8600  0.3203
 7166TIP3    H142989   5.729   3.458  16.193  0.5737 -0.7709  0.8702
 7166TIP3    H242990   5.624   3.368  16.131  0.2415 -0.9958  1.7542
 7167TIP3   OH242991   3.697   3.090   1.594  0.1979  0.3010  0.2109
 7167TIP3    H142992   3.682   3.107   1.687 -0.1525  2.6243 -0.2505
 7167TIP3    H242993   3.738   3.170   1.561  1.4689 -0.9769 -1.3814
 7168TIP3   OH242994   0.391   1.933   5.221 -0.8159 -0.5336  0.0150
 7168TIP3    H142995   0.466   1.897   5.268 -1.8130 -2.1373  0.4089
 7168TIP3    H242996   0.403   1.904   5.130  0.3565  1.3601 -0.4636
 7169TIP3   OH242997   2.050   3.515   0.371 -0.3044 -0.1910  0.5775
 7169TIP3    H142998   2.018   3.427   0.389  0.1991 -0.7154 -0.9758
 7169TIP3    H242999   2.109   3.504   0.296 -0.1248  1.4466  0.4593
 7170TIP3   OH243000   2.004   2.454  13.491 -0.2229 -0.2509  0.0295
 7170TIP3    H143001   2.030   2.541  13.459  0.4076 -0.6499 -0.5253
 7170TIP3    H243002   2.013   2.397  13.416  1.2150 -1.1836  0.8860
 7171TIP3   OH243003   4.242   5.215  16.035  0.4771  0.5295 -0.3378
 7171TIP3    H143004   4.276   5.290  16.084 -1.4739 -0.4183  2.6177
 7171TIP3    H243005   4.156   5.243  16.005 -0.3690 -0.5537  0.9991
 7172TIP3   OH243006   2.983   5.946  12.327 -0.3531  0.2548 -0.4996
 7172TIP3    H143007   2.950   5.894  12.253 -0.1212  0.4780 -0.7634
 7172TIP3    H243008   2.936   6.029  12.320 -0.5088  0.1845 -0.2545
 7173TIP3   OH243009   3.924   3.817  12.339 -0.1313  0.4423  0.4178
 7173TIP3    H143010   3.863   3.808  12.266 -0.0289  2.0806  0.0921
 7173TIP3    H243011   3.884   3.770  12.411 -0.3772 -0.9421 -0.6133
 7174TIP3   OH243012   4.972   0.762   4.715  0.4606  0.3169  0.3017
 7174TIP3    H143013   4.891   0.811   4.730  0.1581  0.5341 -1.9784
 7174TIP3    H243014   5.042   0.826   4.728  0.2080  0.5281  0.6287
 7175TIP3   OH243015   0.583   1.269   2.741 -0.2123 -0.0877 -0.0139
 7175TIP3    H143016   0.654   1.259   2.805 -1.7069 -3.2157  1.2751
 7175TIP3    H243017   0.526   1.336   2.779  0.8884  0.8602  0.0059
 7176TIP3   OH243018   5.724   5.724   1.963  0.3545  0.3084 -0.0135
 7176TIP3    H143019   5.727   5.629   1.976  1.9798  0.0188 -2.0901
 7176TIP3    H243020   5.641   5.739   1.917 -0.1858 -0.0225  0.8421
 7177TIP3   OH243021   0.661   0.615  16.671 -0.3303 -0.2274 -0.9956
 7177TIP3    H143022   0.695   0.625  16.582  0.8898  0.8814 -0.4279
 7177TIP3    H243023   0.572   0.650  16.667  0.5627  2.0809 -1.2572
 7178TIP3   OH243024   6.541   6.318   3.153 -0.2686  0.0137 -0.4758
 7178TIP3    H143025   6.630   6.348   3.133  0.0377 -0.1661  0.5777
 7178TIP3    H243026   6.553   6.253   3.223 -1.2927  0.4796  0.1400
 7179TIP3   OH243027   4.545   5.472  15.273 -0.5943  0.5710  0.1479
 7179TIP3    H143028   4.482   5.544  15.269 -1.0788  0.1225 -0.6144
 7179TIP3    H243029   4.527   5.422  15.193  0.0537 -0.1246  0.4406
 7180TIP3   OH243030   4.359   4.758  16.512  0.3505 -0.2257  0.2234
 7180TIP3    H143031   4.328   4.847  16.499 -1.3129 -0.8458 -0.1406
 7180TIP3    H243032   4.290   4.702  16.477  2.0431 -1.6464 -0.9827
 7181TIP3   OH243033   4.543   3.192  17.187 -0.5684 -0.0939 -0.6650
 7181TIP3    H143034   4.540   3.256  17.116 -1.8433 -0.3313 -0.8333
 7181TIP3    H243035   4.566   3.110  17.143  0.0141  0.0320 -0.6002
 7182TIP3   OH243036   1.858   4.141   0.777  0.3487 -0.1148 -0.1645
 7182TIP3    H143037   1.889   4.195   0.704  1.1460  0.5400  0.6341
 7182TIP3    H243038   1.817   4.204   0.837  0.7507 -0.4660  0.4919
 7183TIP3   OH243039   3.209   2.990   1.702 -0.2976  0.3176 -0.7082
 7183TIP3    H143040   3.255   3.071   1.682  1.4259 -0.4057  0.2059
 7183TIP3    H243041   3.164   3.008   1.784 -0.4273  0.5579 -0.8321
 7184TIP3   OH243042   3.065   2.975  14.123  0.3229  0.2165  0.4147
 7184TIP3    H143043   3.043   2.887  14.153 -0.9017  0.2554 -0.3545
 7184TIP3    H243044   3.149   2.965  14.078 -0.2711 -0.7222 -0.4914
 7185TIP3   OH243045   3.247   1.589  13.300  0.5624  0.7536 -0.4129
 7185TIP3    H143046   3.292   1.505  13.312  1.1649  0.9598 -1.2047
 7185TIP3    H243047   3.305   1.640  13.244 -0.2021  1.3842 -0.6445
 7186TIP3   OH243048   2.567   3.345   4.444 -0.1913  0.0413 -0.4388
 7186TIP3    H143049   2.542   3.318   4.356  1.3325 -2.2046 -0.2237
 7186TIP3    H243050   2.526   3.280   4.501 -0.8465  1.2576  0.4927
 7187TIP3   OH243051   6.193   6.622  14.170 -0.2328 -0.1061 -0.9982
 7187TIP3    H143052   6.285   6.598  14.178 -0.7707 -3.0666 -2.9284
 7187TIP3    H243053   6.194   6.707  14.127  1.5861 -0.1161 -1.0208
 7188TIP3   OH243054   6.261   3.760  12.275  0.4105 -0.1237 -0.2564
 7188TIP3    H143055   6.210   3.793  12.348 -0.6639 -2.5893  0.1705
 7188TIP3    H243056   6.211   3.785  12.197  0.9001  1.3820 -0.1026
 7189TIP3   OH243057   3.759   6.328   5.532  0.3555 -0.3876  0.2045
 7189TIP3    H143058   3.755   6.280   5.449  1.1898 -0.2231  0.0574
 7189TIP3    H243059   3.703   6.404   5.518 -1.1829 -1.4439  0.5304
 7190TIP3   OH243060   6.633   5.951  14.551 -0.0228  0.0964 -0.2803
 7190TIP3    H143061   6.555   5.999  14.523 -0.7016 -0.1426  1.1476
 7190TIP3    H243062   6.694   6.020  14.579  0.0430  0.2595 -0.8354
 7191TIP3   OH243063   5.839   2.493   0.029 -0.1799  0.0308  0.0451
 7191TIP3    H143064   5.821   2.427  -0.038 -0.3236  1.0623 -0.9519
 7191TIP3    H243065   5.754   2.530   0.050  0.0057  0.5244 -0.0635
 7192TIP3   OH243066   5.610   1.124   0.938  0.4851 -0.1919 -0.5230
 7192TIP3    H143067   5.545   1.173   0.888 -0.7527 -0.4710  0.7791
 7192TIP3    H243068   5.619   1.172   1.020  1.8077 -0.2570 -0.6079
 7193TIP3   OH243069   6.038   2.639  14.381  0.1586 -0.1813 -0.4025
 7193TIP3    H143070   6.008   2.570  14.440 -0.2494  0.5211  0.2267
 7193TIP3    H243071   6.133   2.633  14.383  0.2862  1.9063  2.8891
 7194TIP3   OH243072   4.662   0.720  11.024 -0.0347  0.4853 -0.0668
 7194TIP3    H143073   4.576   0.763  11.024  0.4598  1.4937  0.9351
 7194TIP3    H243074   4.712   0.767  10.957 -0.0912  0.2694 -0.2588
 7195TIP3   OH243075   1.612   2.658   6.924 -0.1145  0.0161 -0.0729
 7195TIP3    H143076   1.674   2.666   6.997 -1.4847  0.8322  1.0419
 7195TIP3    H243077   1.578   2.569   6.931  0.2194 -0.1082 -0.0674
 7196TIP3   OH243078   0.818   1.772  15.784  0.5648  0.4542  0.7122
 7196TIP3    H143079   0.753   1.842  15.776  0.7041  0.4317 -0.7164
 7196TIP3    H243080   0.800   1.713  15.711  1.5906 -0.0527  0.8525
 7197TIP3   OH243081   1.050   3.712   1.004 -0.4630  0.2499 -0.2272
 7197TIP3    H143082   1.001   3.773   1.059 -2.1347 -0.0316 -1.3823
 7197TIP3    H243083   1.001   3.630   1.007  0.6371 -0.4294 -0.3601
 7198TIP3   OH243084   3.999   2.830   3.067 -0.4397  0.0380 -0.2086
 7198TIP3    H143085   3.959   2.899   3.119  0.5120  0.0639  0.5124
 7198TIP3    H243086   3.926   2.774   3.040 -1.2757  1.6333 -1.2650
 7199TIP3   OH243087   4.774   3.097  12.941  0.3154 -0.3555  0.2918
 7199TIP3    H143088   4.695   3.056  12.907  0.6491 -1.0283  0.3209
 7199TIP3    H243089   4.800   3.041  13.015  1.4580 -0.7965 -0.4279
 7200TIP3   OH243090   4.748   0.881  13.831 -0.2163 -0.4395 -0.0294
 7200TIP3    H143091   4.774   0.943  13.899 -0.4368 -1.0677  0.6408
 7200TIP3    H243092   4.831   0.853  13.791 -0.2551  2.3149 -2.2022
 7201TIP3   OH243093   0.567   1.373   0.040 -0.7500  0.3272  0.4790
 7201TIP3    H143094   0.596   1.319   0.114 -0.4963  0.6539  0.6211
 7201TIP3    H243095   0.484   1.335   0.013  0.6706 -1.7816 -1.0916
 7202TIP3   OH243096   2.546   3.836   5.299  0.5429 -0.1100  0.2495
 7202TIP3    H143097   2.528   3.744   5.280 -0.6525 -0.0622  1.0810
 7202TIP3    H243098   2.517   3.883   5.221  0.6448 -0.3798  0.0473
 7203TIP3   OH243099   0.527   2.058  16.109  0.2479  0.1095  0.1966
 7203TIP3    H143100   0.579   2.067  16.189 -0.2416 -1.6317  0.7382
 7203TIP3    H243101   0.524   1.964  16.092 -0.2234  0.4108 -1.5008
 7204TIP3   OH243102   3.278   0.266  15.948  0.4603  0.5934  0.2897
 7204TIP3    H143103   3.331   0.204  15.997  2.7772  1.2742 -1.2534
 7204TIP3    H243104   3.338   0.338  15.929 -0.8962  1.1880 -1.8965
 7205TIP3   OH243105   5.848   2.685   4.649 -0.3727 -0.3253  0.6993
 7205TIP3    H143106   5.921   2.660   4.707  0.2329 -2.3077 -0.8913
 7205TIP3    H243107   5.888   2.746   4.586 -0.3063 -0.6808  0.3982
 7206TIP3   OH243108   3.061   6.617   0.020 -0.2886 -0.3537  0.1016
 7206TIP3    H143109   3.104   6.532   0.026 -0.2817 -0.3594 -0.0233
 7206TIP3    H243110   3.025   6.619  -0.069  2.3966  1.0366 -1.0166
 7207TIP3   OH243111   3.431   3.614  12.242  0.1637 -0.2107 -0.2289
 7207TIP3    H143112   3.463   3.644  12.326  1.1882 -0.1911 -0.6191
 7207TIP3    H243113   3.352   3.666  12.226 -0.4544 -0.7378  1.0472
 7208TIP3   OH243114   3.805   5.977   5.465 -0.0879 -0.1273 -0.3176
 7208TIP3    H143115   3.869   6.021   5.410  0.8621 -0.7029  0.3083
 7208TIP3    H243116   3.720   6.006   5.432  0.5147  1.8770 -0.1420
 7209TIP3   OH243117   2.985   6.729   0.816 -0.6828 -0.3955  0.4413
 7209TIP3    H143118   2.899   6.770   0.824 -0.8943 -1.0359  1.5988
 7209TIP3    H243119   2.966   6.640   0.787 -0.5808 -1.2343  2.8445
 7210TIP3   OH243120   6.626   0.957  16.835  0.1383  0.0333 -0.0013
 7210TIP3    H143121   6.655   1.034  16.883  0.2076  1.3476 -2.1226
 7210TIP3    H243122   6.531   0.958  16.843  0.2008 -0.2857  0.8833
 7211TIP3   OH243123   6.159   5.827  12.764 -0.3579  0.2567 -0.6517
 7211TIP3    H143124   6.215   5.794  12.834  1.0931  0.1043 -1.8470
 7211TIP3    H243125   6.152   5.754  12.702 -1.3624  0.4890 -0.8248
 7212TIP3   OH243126   6.068   6.369   2.252  0.2618  0.3605 -0.1395
 7212TIP3    H143127   6.139   6.338   2.308  1.0098 -0.1720 -1.3757
 7212TIP3    H243128   6.103   6.448   2.210  0.0793  0.1639 -0.6664
 7213TIP3   OH243129   4.786   3.210  13.347  0.1426 -0.7383  0.0291
 7213TIP3    H143130   4.767   3.138  13.408 -0.0244 -1.0301 -0.3579
 7213TIP3    H243131   4.820   3.280  13.401 -1.1183 -0.5692  0.6228
 7214TIP3   OH243132   0.703   6.399   1.178  0.1517 -0.1192 -0.2582
 7214TIP3    H143133   0.792   6.363   1.176  0.4687  0.5808  1.0460
 7214TIP3    H243134   0.707   6.474   1.120  0.0719 -0.8371 -1.2096
 7215TIP3   OH243135   3.820   5.744   1.496  0.5842 -0.5462  0.4769
 7215TIP3    H143136   3.759   5.686   1.450  1.0610 -0.1970 -0.6268
 7215TIP3    H243137   3.774   5.827   1.502  1.1738 -0.0919 -0.9442
 7216TIP3   OH243138   2.731   2.710  14.551 -0.1542 -0.2493  0.1694
 7216TIP3    H143139   2.791   2.778  14.520  1.6440 -2.4429 -1.3529
 7216TIP3    H243140   2.645   2.735  14.515  0.3340  1.5728  0.2370
 7217TIP3   OH243141   3.395   3.430  12.782  0.8357  0.3962  0.3314
 7217TIP3    H143142   3.424   3.342  12.758  1.4585  0.7442 -0.2239
 7217TIP3    H243143   3.322   3.448  12.723 -0.4169 -0.4153  1.6147
 7218TIP3   OH243144   0.597   5.525  13.414  0.7673  0.0336  0.5854
 7218TIP3    H143145   0.554   5.471  13.348  3.0481 -1.5105  0.2880
 7218TIP3    H243146   0.536   5.527  13.487  0.5469 -2.8671  0.5470
 7219TIP3   OH243147   0.562   6.148   5.482  0.3987 -0.2408  0.2060
 7219TIP3    H143148   0.627   6.128   5.415  1.8017  0.0938  1.4371
 7219TIP3    H243149   0.572   6.079   5.547 -2.0397 -1.4693 -0.6292
 7220TIP3   OH243150   5.890   3.413   5.381 -0.1110 -0.6549 -0.7776
 7220TIP3    H143151   5.918   3.495   5.340 -0.4766 -0.2274 -0.1791
 7220TIP3    H243152   5.871   3.355   5.307  1.4901 -0.6654 -1.1940
 7221TIP3   OH243153   4.895   0.115  15.361 -0.0833  0.1973  0.3346
 7221TIP3    H143154   4.914   0.026  15.390 -0.4377  0.8664  2.7640
 7221TIP3    H243155   4.800   0.125  15.372  0.0403  1.0655  0.7008
 7222TIP3   OH243156   4.678   6.054   0.244 -0.0683 -0.4140 -0.2748
 7222TIP3    H143157   4.716   6.109   0.176  0.5472 -1.3485 -0.6845
 7222TIP3    H243158   4.752   6.029   0.299 -0.2990 -1.1111 -0.2789
 7223TIP3   OH243159   2.977   1.853  14.215  0.2514 -0.1224  0.5393
 7223TIP3    H143160   3.013   1.857  14.127 -0.0667  1.0998  0.4488
 7223TIP3    H243161   3.035   1.793  14.262  1.6940  0.8590  0.0699
 7224TIP3   OH243162   6.523   1.192  11.655  0.4304  0.3800  0.1613
 7224TIP3    H143163   6.599   1.154  11.700  0.0618  1.3794  1.6421
 7224TIP3    H243164   6.457   1.201  11.723 -0.8233  0.1102 -0.9910
 7225TIP3   OH243165   4.588   3.788   6.093  0.1310 -0.7127  0.0515
 7225TIP3    H143166   4.577   3.703   6.136 -2.4162 -0.4022  0.0775
 7225TIP3    H243167   4.537   3.849   6.147  1.0564  0.6484 -0.5689
 7226TIP3   OH243168   1.243   0.505  16.184  0.1892  0.4083  0.1496
 7226TIP3    H143169   1.233   0.414  16.213  1.5064 -0.3970 -1.8644
 7226TIP3    H243170   1.241   0.556  16.265 -0.0102 -1.4557  1.3487
 7227TIP3   OH243171   3.581   2.893   4.422 -0.0687 -0.2100 -0.3335
 7227TIP3    H143172   3.587   2.824   4.355 -2.2395 -0.5335 -0.2459
 7227TIP3    H243173   3.547   2.847   4.499 -0.6261  0.7755  0.0087
 7228TIP3   OH243174   1.874   6.188   2.010  0.2307  0.4548  0.0591
 7228TIP3    H143175   1.785   6.217   1.990  0.4524  1.0464 -0.0757
 7228TIP3    H243176   1.898   6.131   1.937  0.6923  1.8744 -0.9340
 7229TIP3   OH243177   3.905   6.643  10.472  0.0937 -0.8061  0.2901
 7229TIP3    H143178   3.884   6.572  10.412  0.8360 -0.6415 -0.1615
 7229TIP3    H243179   3.829   6.648  10.530 -0.1131 -1.7371  0.1092
 7230TIP3   OH243180   3.694   0.879   1.539 -0.1154 -0.3737 -0.1776
 7230TIP3    H143181   3.644   0.857   1.460  0.1357 -0.8120 -0.2195
 7230TIP3    H243182   3.634   0.866   1.611  0.1292 -1.5315 -0.1778
 7231TIP3   OH243183   2.691   2.540  13.820  0.0347  0.5055  0.2026
 7231TIP3    H143184   2.647   2.494  13.749  0.3200  0.9565 -0.2693
 7231TIP3    H243185   2.703   2.473  13.887 -1.0998  0.3131  0.2231
 7232TIP3   OH243186   3.678   4.799  14.404 -0.2676  0.1612  0.1741
 7232TIP3    H143187   3.739   4.839  14.342 -1.6071  2.9769  0.5783
 7232TIP3    H243188   3.730   4.733  14.450  1.5998  0.2844 -1.6847
 7233TIP3   OH243189   3.530   3.116  16.852 -0.3436 -0.5547  0.1191
 7233TIP3    H143190   3.505   3.102  16.944 -0.2940 -1.7907 -0.0469
 7233TIP3    H243191   3.619   3.082  16.846 -0.3236 -0.4180 -0.3647
 7234TIP3   OH243192   4.247   1.572   1.514  0.5571 -0.1346  0.4092
 7234TIP3    H143193   4.327   1.615   1.545 -0.0545  0.3293  1.3617
 7234TIP3    H243194   4.254   1.577   1.419  0.5702  1.9812  0.4954
 7235TIP3   OH243195   2.366   2.673  16.554 -0.8870  0.3402 -0.4249
 7235TIP3    H143196   2.447   2.661  16.604 -0.2281  3.1513 -0.7583
 7235TIP3    H243197   2.311   2.599  16.580  1.2733 -0.8627  0.8320
 7236TIP3   OH243198   3.012   6.348   1.930  0.7623  0.5244  0.0505
 7236TIP3    H143199   3.010   6.351   2.026  0.1635 -1.1808  0.1020
 7236TIP3    H243200   2.987   6.258   1.908  1.2943  0.7867 -1.6974
 7237TIP3   OH243201   0.712   4.142  13.897  0.1962 -0.6326  0.5190
 7237TIP3    H143202   0.640   4.140  13.834  0.4083 -1.1365  0.2893
 7237TIP3    H243203   0.784   4.183  13.849  0.1513 -0.3900  0.6582
 7238TIP3   OH243204   3.730   1.810   4.083  0.4213 -0.0687 -0.1186
 7238TIP3    H143205   3.664   1.820   4.015 -0.0460  0.3385  0.3949
 7238TIP3    H243206   3.760   1.899   4.100  0.6328 -0.1860  0.1171
 7239TIP3   OH243207   3.475   2.836   1.484 -0.0238 -0.5775  0.1655
 7239TIP3    H143208   3.525   2.896   1.541  1.7986 -0.3850 -1.5830
 7239TIP3    H243209   3.470   2.881   1.400 -1.4404 -1.4975 -0.2574
 7240TIP3   OH243210   1.970   6.631   2.273 -0.4479 -0.1223 -0.0254
 7240TIP3    H143211   1.894   6.587   2.311 -0.6116 -1.6908 -2.1142
 7240TIP3    H243212   1.990   6.581   2.194  1.2560  1.7476 -0.8184
 7241TIP3   OH243213   3.453   2.508  15.699 -0.1356 -0.2442 -0.3211
 7241TIP3    H143214   3.422   2.421  15.724 -1.0287 -0.1417 -1.0634
 7241TIP3    H243215   3.463   2.554  15.783 -1.8991 -0.3150 -0.0464
 7242TIP3   OH243216   0.554   1.384  11.378 -0.1726 -0.1042 -0.1340
 7242TIP3    H143217   0.588   1.468  11.348 -0.3376  1.1334  2.9334
 7242TIP3    H243218   0.611   1.359  11.451 -0.2213 -2.6094 -0.8909
 7243TIP3   OH243219   0.929   3.056   2.381  0.0452  0.1431 -0.2313
 7243TIP3    H143220   0.939   3.033   2.288 -0.1046  0.6030 -0.3638
 7243TIP3    H243221   0.869   2.990   2.415  0.4258 -0.2753 -0.3630
 7244TIP3   OH243222   0.028   5.831  14.875  0.3058 -0.0030 -0.0573
 7244TIP3    H143223   0.041   5.833  14.970  1.2166 -0.0133 -0.1803
 7244TIP3    H243224   0.079   5.757  14.845 -1.2347 -0.9627 -0.3819
 7245TIP3   OH243225   0.249   0.559  13.908  0.2015 -0.2019  0.7733
 7245TIP3    H143226   0.305   0.617  13.856  0.5709 -1.2401 -0.0165
 7245TIP3    H243227   0.230   0.608  13.988  2.4337  0.0811  1.1619
 7246TIP3   OH243228   1.085   4.734   0.360  0.1436  0.0460 -0.3371
 7246TIP3    H143229   1.167   4.752   0.314  0.5859 -0.4058  0.2784
 7246TIP3    H243230   1.069   4.641   0.346 -0.1920  0.0992 -0.3253
 7247TIP3   OH243231   5.130   3.347   6.335  0.3648 -0.3883 -0.1354
 7247TIP3    H143232   5.217   3.309   6.338  0.6248  0.2898  1.2864
 7247TIP3    H243233   5.145   3.442   6.331 -0.2906 -0.3268 -1.4012
 7248TIP3   OH243234   3.155   1.794   5.357 -0.5050  0.0180 -0.1329
 7248TIP3    H143235   3.159   1.700   5.379  1.2077 -0.2315 -1.4207
 7248TIP3    H243236   3.078   1.802   5.301 -1.7730 -0.2719  1.5315
 7249TIP3   OH243237   2.116   1.257   4.969  0.0806  0.6403  0.5257
 7249TIP3    H143238   2.124   1.292   4.881 -3.0822  1.6988  0.6063
 7249TIP3    H243239   2.083   1.168   4.957  0.5980  0.4318  0.6216
 7250TIP3   OH243240   3.686   0.154   4.668  0.7645 -0.2044 -0.3196
 7250TIP3    H143241   3.744   0.105   4.610  0.8981 -0.5524  0.1082
 7250TIP3    H243242   3.597   0.131   4.640  0.8331 -0.0787 -0.6328
 7251TIP3   OH243243   4.866   6.680   5.038 -0.6183 -0.1074 -0.1838
 7251TIP3    H143244   4.908   6.644   4.960  1.5638  1.3296  0.2971
 7251TIP3    H243245   4.929   6.664   5.109 -2.2846 -0.8170  1.1770
 7252TIP3   OH243246   3.291   2.944   0.728  0.7010 -0.1763  0.4278
 7252TIP3    H143247   3.334   3.030   0.728  1.7282 -0.6832  0.8960
 7252TIP3    H243248   3.226   2.950   0.797  1.7684 -0.2562  1.4485
 7253TIP3   OH243249   1.199   3.803   3.894 -0.0989 -0.6569 -0.4017
 7253TIP3    H143250   1.225   3.891   3.865 -2.4928 -0.2143 -1.3650
 7253TIP3    H243251   1.141   3.772   3.824 -3.3156 -0.9430  2.2851
 7254TIP3   OH243252   0.220   2.819  15.173  0.0371 -0.0828 -0.0316
 7254TIP3    H143253   0.185   2.731  15.188  0.7253 -0.7415 -2.2181
 7254TIP3    H243254   0.160   2.859  15.111 -0.2156  0.9810  0.8764
 7255TIP3   OH243255   0.123   5.570  14.882  0.2906 -0.7300 -0.1939
 7255TIP3    H143256   0.218   5.580  14.891  0.1227  0.0300  0.7732
 7255TIP3    H243257   0.099   5.506  14.948 -0.0338 -0.0014  0.4080
 7256TIP3   OH243258   1.734   1.891  16.912 -0.5519  0.6110  0.2866
 7256TIP3    H143259   1.661   1.840  16.878 -1.0760  0.9292  0.9357
 7256TIP3    H243260   1.693   1.964  16.959  0.1819  1.0564  0.2446
 7257TIP3   OH243261   0.375   0.477  13.434 -0.0213  0.1683  0.4058
 7257TIP3    H143262   0.327   0.446  13.358  0.8304  1.1883 -0.5608
 7257TIP3    H243263   0.341   0.566  13.449 -0.0992  0.0220  1.1527
 7258TIP3   OH243264   0.156   6.316  11.729  0.3663 -0.4324 -0.0653
 7258TIP3    H143265   0.193   6.295  11.815  0.5574  0.4461  0.0778
 7258TIP3    H243266   0.118   6.403  11.741  1.0964  0.0325 -1.0869
 7259TIP3   OH243267   6.213   5.197   0.089 -0.5380 -0.5219  0.2170
 7259TIP3    H143268   6.231   5.118   0.140 -0.6407  0.0588  1.1708
 7259TIP3    H243269   6.210   5.267   0.154  0.3336  0.3967 -0.7060
 7260TIP3   OH243270   1.377   6.402   3.986 -0.2258  0.3558  0.5777
 7260TIP3    H143271   1.360   6.317   3.945 -4.5352  1.0866  0.5975
 7260TIP3    H243272   1.341   6.394   4.074  1.8454  1.3442  1.5472
 7261TIP3   OH243273   1.371   1.698  14.567 -0.0683  0.1120 -0.4449
 7261TIP3    H143274   1.344   1.731  14.652  0.0682  0.1383 -0.4125
 7261TIP3    H243275   1.313   1.624  14.551  2.0967 -2.0122  1.1798
 7262TIP3   OH243276   3.326   5.915   2.832 -0.3542 -0.5310 -0.2849
 7262TIP3    H143277   3.238   5.927   2.869 -0.0566  1.3145 -0.1281
 7262TIP3    H243278   3.355   5.831   2.866 -2.1425 -1.2632 -0.4999
 7263TIP3   OH243279   3.134   4.159  17.024 -0.6580 -0.0308  0.2072
 7263TIP3    H143280   3.121   4.179  16.931 -1.4836 -2.1017 -0.1385
 7263TIP3    H243281   3.185   4.078  17.025 -1.1176 -0.3221  1.5468
 7264TIP3   OH243282   2.124   2.729   1.228 -0.2354  0.1022 -0.2383
 7264TIP3    H143283   2.051   2.734   1.290  0.1190  0.9995  0.1212
 7264TIP3    H243284   2.143   2.635   1.220 -0.0277 -0.0068  1.3289
 7265TIP3   OH243285   3.397   1.675  11.733 -0.4886  0.6221 -0.1031
 7265TIP3    H143286   3.401   1.762  11.772 -1.6970  1.1136 -1.0446
 7265TIP3    H243287   3.320   1.634  11.773 -1.2445  0.8242 -1.3223
 7266TIP3   OH243288   0.784   2.691  12.066 -0.0672  0.2214  0.4067
 7266TIP3    H143289   0.864   2.738  12.090 -0.8025  2.1941 -0.8303
 7266TIP3    H243290   0.749   2.660  12.149  0.6005  1.6716  1.2629
 7267TIP3   OH243291   4.946   1.186   3.462 -0.6212  0.3492  0.8353
 7267TIP3    H143292   4.930   1.203   3.555  0.2646 -1.5274  1.3472
 7267TIP3    H243293   4.959   1.091   3.457 -3.0957  0.0718 -1.5631
 7268TIP3   OH243294   3.317   1.406  11.301  0.1161 -0.2413 -0.2180
 7268TIP3    H143295   3.333   1.495  11.330 -1.0623 -0.1294  0.0899
 7268TIP3    H243296   3.403   1.376  11.269  1.1448  0.0511  2.1804
 7269TIP3   OH243297   6.376   6.687  14.924 -0.5650  0.2689 -0.0907
 7269TIP3    H143298   6.357   6.666  14.833 -1.3580 -0.0070  0.1363
 7269TIP3    H243299   6.445   6.754  14.919  1.2093 -1.5676 -0.8491
 7270TIP3   OH243300   0.566   1.461   5.093 -0.4299 -0.2915  0.2850
 7270TIP3    H143301   0.660   1.461   5.074 -0.7108 -1.6382 -1.2508
 7270TIP3    H243302   0.536   1.548   5.067  0.3059 -0.0181  0.3323
 7271TIP3   OH243303   6.699   1.333  16.076 -0.0472  0.0887  0.2590
 7271TIP3    H143304   6.634   1.273  16.113  0.7897 -1.1089 -0.1667
 7271TIP3    H243305   6.738   1.376  16.151  0.2811 -0.8974  0.6608
 7272TIP3   OH243306   5.700   3.586  11.014  0.2798 -0.3770  1.1857
 7272TIP3    H143307   5.773   3.531  11.043 -0.3291 -1.4550  0.7044
 7272TIP3    H243308   5.730   3.622  10.930 -0.5876 -2.5868 -0.1184
 7273TIP3   OH243309   5.795   1.001   3.174 -0.0716  0.5463 -0.7163
 7273TIP3    H143310   5.742   0.933   3.215 -0.1604  1.3151  0.4801
 7273TIP3    H243311   5.738   1.078   3.173  0.5560  1.0150 -0.6331
 7274TIP3   OH243312   3.937   2.033   5.163  0.3081  0.5820  0.0275
 7274TIP3    H143313   3.985   1.976   5.102 -0.4124  1.0719 -1.0288
 7274TIP3    H243314   3.944   1.989   5.247 -0.8929 -1.4937 -0.9044
 7275TIP3   OH243315   5.647   2.789  12.032 -0.2620 -0.8872  0.1916
 7275TIP3    H143316   5.716   2.815  12.093  0.0122 -0.5157 -0.2751
 7275TIP3    H243317   5.576   2.851  12.049  0.7143  0.7538 -1.5191
 7276TIP3   OH243318   2.314   4.857   2.597  0.5054 -0.0684  0.1209
 7276TIP3    H143319   2.345   4.768   2.616  0.2173  0.0310  1.0892
 7276TIP3    H243320   2.368   4.886   2.523 -0.7728 -1.7891 -1.5207
 7277TIP3   OH243321   0.039   0.737  13.153 -0.0144  0.4887  0.4115
 7277TIP3    H143322   0.120   0.712  13.197 -0.5079 -2.6001 -0.3518
 7277TIP3    H243323   0.067   0.761  13.064  0.2109  0.6450  0.5247
 7278TIP3   OH243324   6.788   2.276   5.888  0.4769 -0.3314 -0.5577
 7278TIP3    H143325   6.742   2.254   5.807 -0.7426  0.3706 -0.0812
 7278TIP3    H243326   6.763   2.367   5.905 -0.2753 -0.8452  1.2432
 7279TIP3   OH243327   3.837   4.375   4.735 -0.0754  0.1375 -0.3124
 7279TIP3    H143328   3.742   4.391   4.730 -0.3769 -0.4541  2.4895
 7279TIP3    H243329   3.869   4.444   4.793  1.2056  0.2222 -1.1143
 7280TIP3   OH243330   5.528   3.936  11.634 -0.2950  0.0966  0.0871
 7280TIP3    H143331   5.487   3.886  11.563 -1.7847  0.7992  0.4414
 7280TIP3    H243332   5.565   3.869  11.692 -0.5865 -0.5247 -0.4421
 7281TIP3   OH243333   1.872   0.655   1.756  0.1745  0.4547  0.0033
 7281TIP3    H143334   1.909   0.586   1.812  0.0956 -0.9235 -1.5998
 7281TIP3    H243335   1.910   0.736   1.790  0.7346 -0.4343  1.5511
 7282TIP3   OH243336   6.790   3.816   2.836 -0.3089  0.0645  0.0203
 7282TIP3    H143337   6.872   3.808   2.885 -0.6805 -0.8806  0.4968
 7282TIP3    H243338   6.738   3.879   2.885 -0.0705  0.2850 -0.0091
 7283TIP3   OH243339   5.696   2.287   5.770  0.7160 -0.1005 -0.6192
 7283TIP3    H143340   5.618   2.254   5.813  1.1438  0.0175  0.2648
 7283TIP3    H243341   5.718   2.367   5.819  0.4554  0.7620 -1.8827
 7284TIP3   OH243342   5.707   5.682   4.523 -0.4642  0.0414 -0.0652
 7284TIP3    H143343   5.735   5.591   4.513  0.2018  0.3350 -0.9912
 7284TIP3    H243344   5.655   5.699   4.444  0.3379  0.7851 -0.4487
 7285TIP3   OH243345   5.952   4.466   1.523  0.1577 -0.0304  0.0326
 7285TIP3    H143346   6.016   4.427   1.463  0.1709  1.0314 -0.6568
 7285TIP3    H243347   6.005   4.502   1.594  0.1930 -0.7053  0.3488
 7286TIP3   OH243348   4.133   3.301   4.451 -0.2491 -0.6697 -0.4843
 7286TIP3    H143349   4.112   3.261   4.367  1.2857 -0.1958 -1.1258
 7286TIP3    H243350   4.200   3.244   4.489  0.7616  0.3594 -0.6667
 7287TIP3   OH243351   0.146   5.312   1.453 -0.4544 -0.2613  0.7996
 7287TIP3    H143352   0.213   5.370   1.489 -0.9673 -0.1504  1.5790
 7287TIP3    H243353   0.164   5.311   1.359 -0.0696  0.6794  0.8567
 7288TIP3   OH243354   3.606   6.469  13.471  0.0821 -0.0988  0.0931
 7288TIP3    H143355   3.661   6.526  13.417  0.0600 -0.6592 -0.5335
 7288TIP3    H243356   3.516   6.490  13.444  0.1259 -1.3871 -1.1358
 7289TIP3   OH243357   2.130   1.506  15.427  0.4511 -0.5378  0.0413
 7289TIP3    H143358   2.217   1.506  15.386  0.6066  4.2142  0.0685
 7289TIP3    H243359   2.148   1.499  15.521  0.7973 -0.0577  0.0149
 7290TIP3   OH243360   1.231   6.297   1.264  0.1321 -0.2087 -0.3759
 7290TIP3    H143361   1.288   6.240   1.211  1.4425 -0.8185  1.6225
 7290TIP3    H243362   1.177   6.237   1.315  0.1101  0.3500  0.2674
 7291TIP3   OH243363   1.016   3.765  12.339  0.2219  0.6337 -0.0681
 7291TIP3    H143364   0.985   3.675  12.341 -1.0401  1.0605  0.0727
 7291TIP3    H243365   1.111   3.758  12.350 -0.1515 -0.5384  3.0478
 7292TIP3   OH243366   6.706   4.083  12.801 -0.1083 -0.0601  0.5822
 7292TIP3    H143367   6.795   4.053  12.779 -0.4378 -1.0053  0.4959
 7292TIP3    H243368   6.688   4.153  12.739 -0.1133 -1.0908 -0.6091
 7293TIP3   OH243369   6.671   4.610  14.185  0.5930 -0.7324 -0.3903
 7293TIP3    H143370   6.634   4.623  14.098  0.8219  0.7251 -0.2758
 7293TIP3    H243371   6.760   4.577  14.169  0.7018 -0.2796 -0.7125
 7294TIP3   OH243372   2.200   4.210  11.471  0.0295 -0.1085  1.7402
 7294TIP3    H143373   2.264   4.250  11.530  1.1325  0.2291  0.3537
 7294TIP3    H243374   2.197   4.118  11.499  1.0525 -0.1039  1.8984
 7295TIP3   OH243375   1.212   1.103  13.866 -0.3769  0.1762  0.2098
 7295TIP3    H143376   1.169   1.023  13.835 -1.2994  1.4242 -1.8468
 7295TIP3    H243377   1.305   1.080  13.869 -0.5384 -0.7452 -1.1832
 7296TIP3   OH243378   6.357   3.776   4.857 -0.2599  0.6100  0.2709
 7296TIP3    H143379   6.445   3.811   4.850 -0.3390  0.7621  0.0214
 7296TIP3    H243380   6.315   3.829   4.925  0.0325  0.1352  0.8202
 7297TIP3   OH243381   0.264   5.492  11.926  0.0084 -0.7306  0.0111
 7297TIP3    H143382   0.333   5.428  11.946 -0.0585 -1.0855 -0.8918
 7297TIP3    H243383   0.280   5.517  11.835 -1.1604 -0.9421 -0.2547
 7298TIP3   OH243384   6.276   6.616   3.989  0.0488  0.3529 -0.4748
 7298TIP3    H143385   6.268   6.552   4.059  1.8559  0.7433  0.1302
 7298TIP3    H243386   6.203   6.676   4.002  0.2964  0.3598  1.0228
 7299TIP3   OH243387   2.073   2.556  17.244 -0.9335 -0.3238  0.1235
 7299TIP3    H143388   2.167   2.536  17.240 -0.8468 -0.0232  0.7018
 7299TIP3    H243389   2.053   2.561  17.337 -1.2831  0.7955 -0.0105
 7300TIP3   OH243390   6.416   2.488  12.999  0.4256  0.1662 -0.3912
 7300TIP3    H143391   6.351   2.552  12.970  1.4426  0.5377 -1.9849
 7300TIP3    H243392   6.471   2.474  12.921  1.5137 -1.0230  0.5721
 7301TIP3   OH243393   5.207   3.661   4.452  0.5112  0.1932 -0.0173
 7301TIP3    H143394   5.196   3.752   4.479  0.9322  0.2022  0.1268
 7301TIP3    H243395   5.143   3.649   4.381 -0.0907  0.3746  0.4930
 7302TIP3   OH243396   5.480   6.601   2.371  0.4976  0.5059 -0.4985
 7302TIP3    H143397   5.487   6.506   2.365  0.5992  0.3848  1.2491
 7302TIP3    H243398   5.437   6.628   2.290 -1.5906 -1.2469 -0.0067
 7303TIP3   OH243399   4.542   3.270   4.655  0.2397  0.0319 -0.0261
 7303TIP3    H143400   4.586   3.264   4.740  1.9586  1.3270 -0.7819
 7303TIP3    H243401   4.480   3.342   4.666 -0.1217 -0.3391  0.3764
 7304TIP3   OH243402   4.628   3.526   1.437  0.5713 -0.2503  0.3312
 7304TIP3    H143403   4.706   3.483   1.403 -0.6944 -0.9557 -1.8274
 7304TIP3    H243404   4.648   3.619   1.432  1.7906 -0.4626  1.1191
 7305TIP3   OH243405   2.158   2.370   6.267 -0.3523  0.3834  0.2417
 7305TIP3    H143406   2.223   2.441   6.269  0.3846 -0.2446 -0.7873
 7305TIP3    H243407   2.139   2.353   6.359 -0.8106  2.1614  0.4983
 7306TIP3   OH243408   0.377   3.330  10.974 -0.2101  0.2334  0.0570
 7306TIP3    H143409   0.429   3.286  11.041  2.2005  0.9046 -1.3305
 7306TIP3    H243410   0.295   3.281  10.971  1.2195 -2.2437  0.7134
 7307TIP3   OH243411   4.395   4.521  13.274  0.7190  0.0779 -0.2331
 7307TIP3    H143412   4.361   4.606  13.303 -2.2431 -1.1143 -0.1244
 7307TIP3    H243413   4.409   4.532  13.180 -1.0156  0.2597 -0.4806
 7308TIP3   OH243414   6.734   5.264   2.561 -0.2966  0.7928 -0.3458
 7308TIP3    H143415   6.730   5.233   2.651  0.2169 -0.8533 -0.8586
 7308TIP3    H243416   6.643   5.264   2.531 -0.5815  2.3339  0.4776
 7309TIP3   OH243417   6.257   5.312  12.069  0.2590  0.7000 -0.0750
 7309TIP3    H143418   6.353   5.308  12.064  0.2095 -1.6815  0.2871
 7309TIP3    H243419   6.235   5.398  12.033  2.5125  1.1755 -0.4257
 7310TIP3   OH243420   4.444   3.716  14.444  0.3799 -0.2365 -0.0286
 7310TIP3    H143421   4.373   3.780  14.446  2.0001  1.6717 -0.7360
 7310TIP3    H243422   4.445   3.678  14.532 -1.8934 -0.7631 -0.2004
 7311TIP3   OH243423   1.785   6.422   6.246  0.3824  0.2148  0.3203
 7311TIP3    H143424   1.824   6.355   6.302 -2.2817 -2.2901 -0.6624
 7311TIP3    H243425   1.804   6.392   6.157 -1.5447  0.3045 -0.1357
 7312TIP3   OH243426   0.788   4.042   5.835  0.0784 -0.0462  0.9590
 7312TIP3    H143427   0.728   4.099   5.786  0.3038 -0.4884  0.1477
 7312TIP3    H243428   0.850   4.012   5.769  0.8175 -0.0868  1.6735
 7313TIP3   OH243429   0.317   2.995  13.249 -0.1433  0.2630  0.2586
 7313TIP3    H143430   0.394   2.975  13.303  0.6272 -1.0140 -1.2876
 7313TIP3    H243431   0.340   3.077  13.205 -0.0195  0.3139  0.4149
 7314TIP3   OH243432   3.302   3.721   1.591 -0.0233 -0.4147 -0.1675
 7314TIP3    H143433   3.313   3.709   1.685 -2.5372 -0.4159  0.1573
 7314TIP3    H243434   3.241   3.794   1.583 -0.1256 -0.6540 -1.7856
 7315TIP3   OH243435   3.002   6.375   5.994 -0.0751 -0.0434 -0.1339
 7315TIP3    H143436   3.019   6.377   5.900  0.6070  0.4639  0.0021
 7315TIP3    H243437   3.045   6.296   6.025  1.5840  0.9330  0.1133
 7316TIP3   OH243438   5.734   0.072  15.239 -0.5570  0.1916  0.0763
 7316TIP3    H143439   5.671   0.141  15.261 -0.5823  0.6646 -1.4503
 7316TIP3    H243440   5.709   0.043  15.152 -0.0853 -1.2510  0.4042
 7317TIP3   OH243441   0.034   1.315  12.444 -0.4589  0.2596 -0.1940
 7317TIP3    H143442  -0.034   1.341  12.506  1.4479  0.9286  1.6670
 7317TIP3    H243443   0.069   1.397  12.410 -0.8271 -0.0900 -1.4459
 7318TIP3   OH243444   5.520   4.853  13.579 -0.2503 -0.4423 -0.2187
 7318TIP3    H143445   5.610   4.852  13.548 -0.2168 -0.2734 -0.1282
 7318TIP3    H243446   5.524   4.896  13.665 -0.5603  0.5346 -0.6852
 7319TIP3   OH243447   1.229   1.801  11.328  0.0460  0.0204 -0.5715
 7319TIP3    H143448   1.260   1.750  11.253  0.7714 -1.2756  0.5930
 7319TIP3    H243449   1.300   1.862  11.346  1.3862 -1.9859  1.1947
 7320TIP3   OH243450   3.116   1.885   5.955  0.4175 -0.4450 -0.0396
 7320TIP3    H143451   3.135   1.853   5.867  0.0398 -0.7003 -0.0263
 7320TIP3    H243452   3.162   1.969   5.960 -0.8847  0.3457 -1.0325
 7321TIP3   OH243453   2.122   0.653  13.253 -0.7082 -0.2577 -0.2444
 7321TIP3    H143454   2.056   0.608  13.307 -0.6070  0.0064  0.1005
 7321TIP3    H243455   2.155   0.585  13.194 -1.9868 -0.1605 -1.0958
 7322TIP3   OH243456   6.325   3.183  13.029 -0.7457  0.4884 -0.3758
 7322TIP3    H143457   6.371   3.244  13.087  1.0395 -0.2910 -0.9548
 7322TIP3    H243458   6.325   3.227  12.944 -0.4419  0.1582 -0.5432
 7323TIP3   OH243459   0.058   1.115  14.247 -0.2788 -0.5754  0.0947
 7323TIP3    H143460  -0.038   1.120  14.251 -0.2067  1.6120 -0.0405
 7323TIP3    H243461   0.087   1.177  14.314  1.0545 -1.3892  0.2844
 7324TIP3   OH243462   2.956   6.505   0.646  0.3700  0.7137  0.1125
 7324TIP3    H143463   2.976   6.452   0.569  1.8236  2.7552 -0.9434
 7324TIP3    H243464   2.909   6.581   0.612  1.0496  1.6536  1.2353
 7325TIP3   OH243465   5.520   3.825   5.314 -0.5242 -0.0669  0.0828
 7325TIP3    H143466   5.552   3.734   5.311  0.6742  0.3543 -0.1087
 7325TIP3    H243467   5.477   3.838   5.230  1.7470  0.4074 -1.0455
 7326TIP3   OH243468   3.446   4.827  14.622 -0.0237 -0.2882 -0.3376
 7326TIP3    H143469   3.492   4.887  14.564  0.0980 -0.4076 -0.3653
 7326TIP3    H243470   3.515   4.785  14.673 -0.0535 -0.8562 -0.7506
 7327TIP3   OH243471   0.036   6.263   2.188  0.0615  0.3860  0.1879
 7327TIP3    H143472   0.042   6.178   2.146  2.5523  0.1301  1.0054
 7327TIP3    H243473   0.000   6.321   2.120 -0.4716 -1.0228 -0.7512
 7328TIP3   OH243474   0.548   4.099   3.155 -0.3690 -0.3931  0.4064
 7328TIP3    H143475   0.588   4.122   3.239  0.8289 -2.9568  0.5859
 7328TIP3    H243476   0.621   4.094   3.094 -1.4684  3.6169 -1.3637
 7329TIP3   OH243477   4.738   5.329   0.641  0.3352 -0.4748 -0.8528
 7329TIP3    H143478   4.721   5.271   0.567 -0.1051 -1.4387 -0.0224
 7329TIP3    H243479   4.771   5.410   0.602 -2.6059  0.1098 -2.3351
 7330TIP3   OH243480   4.537   6.608   1.275  0.4833  0.7556  0.0073
 7330TIP3    H143481   4.546   6.685   1.218  0.6166  1.0467  0.4230
 7330TIP3    H243482   4.614   6.554   1.254  0.4617  0.7978 -0.1861
 7331TIP3   OH243483   4.938   2.114  10.770  0.2536  0.2318  0.1899
 7331TIP3    H143484   4.859   2.166  10.783  0.0598 -0.0905  0.3010
 7331TIP3    H243485   4.984   2.158  10.699  0.4104  0.9347  0.7169
 7332TIP3   OH243486   1.762   2.202   3.489  1.0689 -0.3741  0.2999
 7332TIP3    H143487   1.821   2.212   3.414  1.4112  0.8334  0.7205
 7332TIP3    H243488   1.763   2.287   3.532 -0.4165 -0.5540  0.7393
 7333TIP3   OH243489   0.781   0.673   1.451  0.3256 -0.3416 -0.3806
 7333TIP3    H143490   0.787   0.743   1.517  1.8526 -0.6133 -0.1993
 7333TIP3    H243491   0.814   0.713   1.371  2.9236 -1.3069  0.1348
 7334TIP3   OH243492   0.258   5.239   3.894  0.0131  0.8253  0.1313
 7334TIP3    H143493   0.221   5.305   3.953 -1.9920  0.8921 -1.1615
 7334TIP3    H243494   0.288   5.288   3.818  0.2312  0.4541 -0.0260
 7335TIP3   OH243495   3.083   1.790  16.576 -0.3375  1.1268 -0.0464
 7335TIP3    H143496   3.062   1.842  16.653 -1.2449  0.1811  0.3591
 7335TIP3    H243497   3.156   1.734  16.604 -0.4294  1.0398  0.0227
 7336TIP3   OH243498   1.551   4.547  14.420  0.5787  0.2503  0.1086
 7336TIP3    H143499   1.481   4.525  14.359  0.4969 -0.7311  0.5520
 7336TIP3    H243500   1.516   4.620  14.472  0.5015  0.8295 -0.7347
 7337TIP3   OH243501   1.935   1.064   0.960  0.2003  0.1582 -0.3670
 7337TIP3    H143502   1.855   1.086   1.006  0.0065  1.1430 -1.1725
 7337TIP3    H243503   1.910   0.995   0.899 -0.2204  1.0331 -1.1952
 7338TIP3   OH243504   3.102   0.989   3.103 -0.0596 -0.4222  0.2238
 7338TIP3    H143505   3.167   0.921   3.083 -0.3782 -0.2499 -1.4939
 7338TIP3    H243506   3.046   0.991   3.025 -0.3725  1.4379  0.4905
 7339TIP3   OH243507   2.536   2.381   0.539 -0.3265 -0.1086 -0.0168
 7339TIP3    H143508   2.582   2.378   0.456 -0.9770  0.8751 -0.4278
 7339TIP3    H243509   2.454   2.428   0.520 -1.3976 -1.6170  0.7409
 7340TIP3   OH243510   0.270   1.177  13.576 -0.1309 -0.4824  0.3916
 7340TIP3    H143511   0.193   1.223  13.541  1.5506  0.2775 -2.5131
 7340TIP3    H243512   0.320   1.245  13.620 -0.2908 -0.6395  0.8183
 7341TIP3   OH243513   2.981   0.893  13.585 -0.3170  0.3027  0.3328
 7341TIP3    H143514   2.913   0.879  13.651  0.9791  0.5484  1.7183
 7341TIP3    H243515   3.005   0.985  13.594  0.6912  0.0433  0.3017
 7342TIP3   OH243516   0.317   2.134   5.723  0.3990 -0.0946 -0.5638
 7342TIP3    H143517   0.338   2.119   5.631  0.4869 -0.1226 -0.5396
 7342TIP3    H243518   0.362   2.064   5.770  1.6389  0.8091 -0.3594
 7343TIP3   OH243519   2.685   1.350   3.207 -0.2901  0.1860  0.2780
 7343TIP3    H143520   2.636   1.271   3.230 -1.2605  0.3131 -1.3001
 7343TIP3    H243521   2.777   1.322   3.211 -0.4976 -0.2701  2.4413
 7344TIP3   OH243522   3.778   1.450   1.661  0.4638 -0.1816  0.1242
 7344TIP3    H143523   3.753   1.536   1.695 -0.1139  0.4982 -1.9353
 7344TIP3    H243524   3.829   1.470   1.582 -0.0694 -1.7297 -0.6240
 7345TIP3   OH243525   3.554   6.790   2.671 -0.1407 -0.1375 -0.6150
 7345TIP3    H143526   3.484   6.735   2.706 -0.7320  1.4149  0.6720
 7345TIP3    H243527   3.571   6.754   2.584 -0.3659 -2.4954  0.2850
 7346TIP3   OH243528   3.430   2.640   6.209  0.4950 -0.3735  0.8212
 7346TIP3    H143529   3.464   2.607   6.126  1.1533 -0.3439  1.0772
 7346TIP3    H243530   3.407   2.561   6.258 -0.5922 -0.3713  0.3203
 7347TIP3   OH243531   0.297   1.612  16.842  0.1242  0.1297  0.1213
 7347TIP3    H143532   0.246   1.538  16.876  0.5499 -0.5330 -0.6552
 7347TIP3    H243533   0.261   1.629  16.755 -0.5608  1.4260  0.6498
 7348TIP3   OH243534   1.664   0.902  13.460 -0.2623  0.4899 -0.4352
 7348TIP3    H143535   1.714   0.927  13.538 -0.0589 -1.0797 -0.0483
 7348TIP3    H243536   1.731   0.883  13.394 -0.3846  0.0963 -0.4479
 7349TIP3   OH243537   5.230   5.607   1.378  0.2331  0.3791  0.1282
 7349TIP3    H143538   5.172   5.546   1.332 -0.3174  0.6674  0.4515
 7349TIP3    H243539   5.307   5.554   1.399  0.3309  0.1427 -0.7963
 7350TIP3   OH243540   5.185   5.185   4.711 -0.2845  0.3750  0.3271
 7350TIP3    H143541   5.263   5.138   4.738  0.4179  0.3435 -1.6527
 7350TIP3    H243542   5.217   5.259   4.659 -1.5405  0.4466 -0.3925
 7351TIP3   OH243543   3.615   5.054   3.772 -0.0306 -0.4331 -0.1822
 7351TIP3    H143544   3.638   5.070   3.864 -0.8035 -0.4835  0.0212
 7351TIP3    H243545   3.698   5.063   3.725  0.4811 -0.9642  0.5946
 7352TIP3   OH243546   5.704   4.746  12.482  0.0328  0.2040  0.0947
 7352TIP3    H143547   5.681   4.759  12.390 -0.3709  1.5897  0.3761
 7352TIP3    H243548   5.788   4.701  12.480 -1.0381 -1.7829 -0.9584
 7353TIP3   OH243549   1.537   1.467   4.883  0.0992  0.1255 -0.0928
 7353TIP3    H143550   1.627   1.437   4.875 -0.0482 -0.2585 -0.3156
 7353TIP3    H243551   1.495   1.443   4.800 -0.0359  0.8906 -0.2473
 7354TIP3   OH243552   2.917   0.047  15.690 -0.4275  0.5856  0.3631
 7354TIP3    H143553   2.896   0.072  15.780 -0.3204  0.8679  0.3118
 7354TIP3    H243554   3.013   0.057  15.685 -0.4295  0.5352  0.2290
 7355TIP3   OH243555   5.039   3.600   5.143 -0.1632 -0.2854 -0.0252
 7355TIP3    H143556   5.054   3.645   5.060  1.5420  0.0415  0.4381
 7355TIP3    H243557   5.122   3.608   5.190 -1.3380  0.2250  2.0418
 7356TIP3   OH243558   5.935   6.442   0.481  0.1216 -0.2192 -0.2007
 7356TIP3    H143559   5.978   6.525   0.463 -0.9561  0.2395 -0.7135
 7356TIP3    H243560   5.849   6.466   0.516  0.9563 -1.1115  2.6500
 7357TIP3   OH243561   0.412   0.874   4.111  0.2372 -0.1211  0.0178
 7357TIP3    H143562   0.390   0.942   4.048 -2.0537 -0.2319  0.6435
 7357TIP3    H243563   0.467   0.917   4.176  1.3279  0.3741 -1.2295
 7358TIP3   OH243564   4.821   1.918  11.079  0.3497  0.0022 -0.2203
 7358TIP3    H143565   4.867   1.877  11.006 -1.1049 -1.2578 -0.4557
 7358TIP3    H243566   4.737   1.946  11.041 -0.0512  0.1341  0.7574
 7359TIP3   OH243567   2.889   0.357  14.116  0.4931  0.1388  0.2428
 7359TIP3    H143568   2.956   0.407  14.162  0.2826 -0.9167  1.7407
 7359TIP3    H243569   2.816   0.353  14.178 -1.0922  1.5496 -1.4839
 7360TIP3   OH243570   3.309   0.439   0.509 -0.0628 -0.5590  0.3323
 7360TIP3    H143571   3.381   0.477   0.458  1.1518 -0.7520  1.8299
 7360TIP3    H243572   3.249   0.512   0.524 -1.1122 -0.7957 -2.4411
 7361TIP3   OH243573   4.273   4.396  10.528  0.1940 -0.0675  0.2198
 7361TIP3    H143574   4.278   4.490  10.545 -1.1379  0.1327 -0.5082
 7361TIP3    H243575   4.181   4.378  10.513  0.6593 -1.1661 -1.5458
 7362TIP3   OH243576   6.309   6.523   3.476  0.2229 -0.3494  0.4486
 7362TIP3    H143577   6.275   6.483   3.396 -0.4177  3.1128 -1.1041
 7362TIP3    H243578   6.239   6.513   3.540 -0.2700 -0.9002 -0.1733
 7363TIP3   OH243579   4.439   1.395   5.294 -0.1989  0.3804  0.0545
 7363TIP3    H143580   4.493   1.434   5.225 -1.8541  0.9119 -0.9485
 7363TIP3    H243581   4.452   1.301   5.285  1.2042  0.5325  0.3505
 7364TIP3   OH243582   1.196   0.013  12.692 -0.4386 -0.5901 -0.1790
 7364TIP3    H143583   1.124   0.069  12.662 -1.3154 -0.9074  1.2758
 7364TIP3    H243584   1.266   0.074  12.715 -0.2156 -0.2804 -1.6361
 7365TIP3   OH243585   0.990   0.616  12.786 -0.2640  0.0213  0.1022
 7365TIP3    H143586   0.990   0.521  12.802  1.9337  0.0866  0.7348
 7365TIP3    H243587   1.081   0.643  12.804 -0.5768  2.0520 -1.2259
 7366TIP3   OH243588   1.820   0.992  13.666  0.8135  0.0743  0.1983
 7366TIP3    H143589   1.913   1.009  13.652  0.7703  1.3204  1.3619
 7366TIP3    H243590   1.808   0.999  13.761 -0.3302 -0.8306  0.1384
 7367TIP3   OH243591   4.009   0.048   0.025  0.1464 -0.1088 -0.2022
 7367TIP3    H143592   4.072   0.051   0.097 -1.2513 -1.3026  1.1063
 7367TIP3    H243593   4.029  -0.034  -0.021  0.3008  0.0845 -0.4805
 7368TIP3   OH243594   0.268   0.626   3.984  0.0932  0.2454  0.0532
 7368TIP3    H143595   0.297   0.693   4.045  2.4759 -0.8950  0.2162
 7368TIP3    H243596   0.198   0.580   4.030  1.1969  0.0253  1.5438
 7369TIP3   OH243597   6.173   3.940  12.954 -0.3271  0.2167  0.1280
 7369TIP3    H143598   6.142   4.003  12.889 -1.1870 -1.5247 -1.2045
 7369TIP3    H243599   6.230   3.990  13.011  1.5233  1.5319 -2.7548
 7370TIP3   OH243600   6.149   0.341  14.239 -0.2222 -0.1536  0.3538
 7370TIP3    H143601   6.127   0.251  14.262  0.9819 -0.6617 -0.4788
 7370TIP3    H243602   6.131   0.348  14.146  1.8163 -0.1951 -0.0721
 7371TIP3   OH243603   1.269   2.806  11.243 -0.5437  0.2895  0.8157
 7371TIP3    H143604   1.331   2.733  11.236 -1.1354 -0.1484  0.0009
 7371TIP3    H243605   1.323   2.882  11.265  0.1475 -0.2933  1.1204
 7372TIP3   OH243606   4.723   6.679  15.495 -0.0547  0.4487 -0.3721
 7372TIP3    H143607   4.799   6.648  15.447 -1.4408  0.7098 -2.8273
 7372TIP3    H243608   4.666   6.603  15.502 -0.7367  0.9008 -0.9217
 7373TIP3   OH243609   6.335   2.851  14.137 -0.3340  0.3710  0.1344
 7373TIP3    H143610   6.398   2.891  14.076  1.1721  0.3956  1.6621
 7373TIP3    H243611   6.375   2.863  14.223 -0.7447 -2.7635  0.8031
 7374TIP3   OH243612   2.411   5.858  14.162  0.4329 -0.2965 -0.7283
 7374TIP3    H143613   2.368   5.939  14.134 -0.0262 -0.8465 -1.6654
 7374TIP3    H243614   2.446   5.877  14.249 -1.7870  0.1370  0.0865
 7375TIP3   OH243615   2.894   2.994   0.294  0.7898  0.1080  0.1876
 7375TIP3    H143616   2.880   3.064   0.230  1.4742  0.0734 -0.0109
 7375TIP3    H243617   2.985   2.968   0.280  0.4526 -1.0066  0.0795
 7376TIP3   OH243618   0.207   2.139  17.198  0.4999 -0.6155 -0.0385
 7376TIP3    H143619   0.205   2.058  17.249  1.6397 -1.7615 -1.7791
 7376TIP3    H243620   0.213   2.111  17.107 -1.0982  1.4086 -0.8207
 7377TIP3   OH243621   4.222   1.768  15.217  0.1141  0.1623  0.1362
 7377TIP3    H143622   4.259   1.813  15.293  1.1550  0.7833 -0.7163
 7377TIP3    H243623   4.293   1.711  15.187 -0.2100  0.0996 -0.5148
 7378TIP3   OH243624   0.469   1.836   4.307  0.4208 -0.3675 -0.3247
 7378TIP3    H143625   0.378   1.859   4.292 -0.5517 -1.4334  3.3060
 7378TIP3    H243626   0.517   1.918   4.294 -1.1058  0.3184 -1.7482
 7379TIP3   OH243627   2.382   5.008  13.908 -0.1004  0.4738  0.2859
 7379TIP3    H143628   2.300   5.041  13.944 -0.7356  0.5643 -1.2198
 7379TIP3    H243629   2.380   4.914  13.925 -1.3931  0.1771 -1.4250
 7380TIP3   OH243630   5.668   0.141  13.672 -0.1393  0.1957  0.0272
 7380TIP3    H143631   5.585   0.141  13.719 -0.1017 -0.6196  0.0980
 7380TIP3    H243632   5.717   0.068  13.710  0.3648  0.2844 -0.4463
 7381TIP3   OH243633   5.540   4.124   2.931 -0.0672  0.0936  0.2404
 7381TIP3    H143634   5.488   4.072   2.870  0.0649  1.0180 -0.6617
 7381TIP3    H243635   5.629   4.091   2.922 -0.0445  0.2454 -0.0798
 7382TIP3   OH243636   5.097   4.777  15.327 -0.1254  0.5275  0.4088
 7382TIP3    H143637   5.001   4.773  15.320 -0.0985  0.4234  0.0900
 7382TIP3    H243638   5.113   4.855  15.380 -0.3936  0.4537  0.6015
 7383TIP3   OH243639   4.214   6.338   3.461 -0.3934  0.1240  0.1187
 7383TIP3    H143640   4.155   6.312   3.530 -1.6942 -0.6356 -1.2537
 7383TIP3    H243641   4.234   6.430   3.479 -0.1167 -0.2762  1.8934
 7384TIP3   OH243642   5.310   5.019  14.068 -0.2062  0.2679 -0.0449
 7384TIP3    H143643   5.223   5.058  14.076 -0.6737 -1.0809  1.6966
 7384TIP3    H243644   5.362   5.064  14.136 -0.3257 -0.9715  0.8798
 7385TIP3   OH243645   5.022   5.999  12.408 -0.4734  0.4110 -0.0948
 7385TIP3    H143646   5.048   6.078  12.455  0.0602  0.7807 -1.0119
 7385TIP3    H243647   5.016   5.932  12.476 -0.5202  1.1387  0.6268
 7386TIP3   OH243648   3.304   0.612   6.959 -0.2173  0.1142 -0.2811
 7386TIP3    H143649   3.321   0.662   6.880  0.1727  0.5179  0.0546
 7386TIP3    H243650   3.257   0.534   6.929  2.6793 -1.3081 -1.3351
 7387TIP3   OH243651   6.765   5.470  16.616 -0.3015 -0.0065 -0.6521
 7387TIP3    H143652   6.726   5.470  16.529  0.5103  1.4854 -1.0283
 7387TIP3    H243653   6.860   5.476  16.600 -0.0493 -1.1234  0.3014
 7388TIP3   OH243654   4.252   6.478   2.586  0.8790 -0.1830 -0.6376
 7388TIP3    H143655   4.306   6.534   2.530  0.2370  0.7902 -0.2756
 7388TIP3    H243656   4.204   6.422   2.525  2.1978 -0.9827 -0.9731
 7389TIP3   OH243657   2.817   1.095   5.286  0.4394 -0.5825 -0.6272
 7389TIP3    H143658   2.751   1.062   5.225  0.8080 -0.5155 -1.0566
 7389TIP3    H243659   2.782   1.179   5.316  0.1301 -0.7416 -0.5371
 7390TIP3   OH243660   4.296   2.755   5.035 -0.3264  0.3855  0.0592
 7390TIP3    H143661   4.276   2.767   5.128 -1.7467 -0.2678 -0.1607
 7390TIP3    H243662   4.225   2.701   5.001  0.5652  0.0022 -1.2544
 7391TIP3   OH243663   3.544   0.999   2.846 -0.4696 -0.1580 -0.0607
 7391TIP3    H143664   3.472   0.944   2.814 -0.6055  0.2837 -0.5243
 7391TIP3    H243665   3.586   1.031   2.767 -1.1068  1.3330  0.1929
 7392TIP3   OH243666   2.736   2.684  15.790  0.1832  0.0543  0.6600
 7392TIP3    H143667   2.752   2.758  15.730  0.7450 -1.5366 -1.1838
 7392TIP3    H243668   2.823   2.660  15.821 -0.0829  0.6938  1.9443
 7393TIP3   OH243669   5.023   1.066  17.025 -1.0286 -0.0366  0.7849
 7393TIP3    H143670   5.037   1.077  17.119  0.2780  0.8181  0.4999
 7393TIP3    H243671   4.961   1.135  17.002 -0.9994  0.0390  0.9325
 7394TIP3   OH243672   2.396   0.908   1.480 -0.2818  0.1969 -0.3685
 7394TIP3    H143673   2.303   0.891   1.466 -0.2242 -1.0130  0.6579
 7394TIP3    H243674   2.430   0.923   1.392 -1.3610  0.2014 -0.7974
 7395TIP3   OH243675   1.360   5.420   6.801 -0.2779 -0.2409  0.3521
 7395TIP3    H143676   1.366   5.335   6.845 -0.5413 -0.1372  0.5858
 7395TIP3    H243677   1.283   5.412   6.745 -0.2227 -0.2028  0.2707
 7396TIP3   OH243678   6.039   4.701  15.671  0.5021 -0.6043  0.0920
 7396TIP3    H143679   6.017   4.687  15.764 -0.0867  1.6826  0.3245
 7396TIP3    H243680   5.954   4.703  15.627  0.7174 -0.5328 -0.3213
 7397TIP3   OH243681   4.650   4.615  11.288  0.2172 -0.1588 -0.0314
 7397TIP3    H143682   4.595   4.647  11.359  2.6433  1.8929  1.0037
 7397TIP3    H243683   4.690   4.535  11.323  0.8961  0.4863  0.6770
 7398TIP3   OH243684   0.754   4.008   6.318 -0.7049 -0.3750  0.1490
 7398TIP3    H143685   0.769   3.938   6.381 -1.4038 -0.3460  0.3500
 7398TIP3    H243686   0.819   3.993   6.249  0.1413 -0.3392  0.9253
 7399TIP3   OH243687   3.747   3.623   2.700 -0.3625 -0.0409  0.9824
 7399TIP3    H143688   3.717   3.565   2.771  0.7423  1.6699  2.8898
 7399TIP3    H243689   3.818   3.575   2.659  0.0318 -0.4016  2.0518
 7400TIP3   OH243690   6.490   6.255  13.369 -0.1206 -0.4325  0.0696
 7400TIP3    H143691   6.556   6.206  13.418 -0.6397 -1.4773 -0.2639
 7400TIP3    H243692   6.408   6.210  13.389 -0.8766  1.3697  1.1611
 7401TIP3   OH243693   5.137   0.186   4.255 -0.2570 -0.4318 -0.1263
 7401TIP3    H143694   5.170   0.235   4.179 -1.3310 -0.8988 -0.9085
 7401TIP3    H243695   5.155   0.094   4.233 -3.6261 -0.8648 -1.3907
 7402TIP3   OH243696   6.762   5.943   6.359 -0.5840 -1.0010  0.4331
 7402TIP3    H143697   6.732   5.869   6.306  1.3448 -1.3732 -0.1529
 7402TIP3    H243698   6.789   5.903   6.442  3.9361 -1.5204 -1.1689
 7403TIP3   OH243699   0.250   4.056   3.224 -0.1191 -0.0837 -0.5056
 7403TIP3    H143700   0.213   4.144   3.232 -0.4907 -0.4651  2.3924
 7403TIP3    H243701   0.344   4.071   3.214 -0.1244  0.6487  0.4190
 7404TIP3   OH243702   5.453   0.098   5.460  0.0249  0.1453 -0.4902
 7404TIP3    H143703   5.531   0.125   5.508 -0.3697  0.1401  0.1542
 7404TIP3    H243704   5.483   0.029   5.401  0.4294 -0.1329  0.0401
 7405TIP3   OH243705   2.305   5.188   1.378  0.4101 -0.4659 -0.4553
 7405TIP3    H143706   2.224   5.140   1.363  0.0128  0.0738 -0.0937
 7405TIP3    H243707   2.352   5.136   1.444  0.9414 -1.4393 -1.5922
 7406TIP3   OH243708   0.794   0.283   4.187  0.1629  0.0769  0.0833
 7406TIP3    H143709   0.878   0.327   4.191 -0.6666  1.5691  1.4531
 7406TIP3    H243710   0.759   0.304   4.101  0.7464  0.2834 -0.1015
 7407TIP3   OH243711   1.839   1.299  13.556  0.5767 -0.3833 -0.4805
 7407TIP3    H143712   1.932   1.283  13.540  0.4273 -2.2299  0.4191
 7407TIP3    H243713   1.803   1.213  13.576 -0.9852  0.5712  0.9024
 7408TIP3   OH243714   2.267   3.944   3.811 -0.7021  1.1058  0.1208
 7408TIP3    H143715   2.178   3.958   3.845 -1.0943  1.5387 -1.0501
 7408TIP3    H243716   2.259   3.870   3.750 -0.2925  1.2311 -0.0923
 7409TIP3   OH243717   5.825   2.897  11.064  0.5617 -0.5153  0.5618
 7409TIP3    H143718   5.872   2.966  11.017  1.8237 -0.2795  2.1439
 7409TIP3    H243719   5.771   2.854  10.996  0.8932  1.0419 -0.7149
 7410TIP3   OH243720   4.974   4.281   5.812  0.1622  0.3507  0.0757
 7410TIP3    H143721   4.996   4.192   5.837 -0.4805  0.0971 -0.2274
 7410TIP3    H243722   4.878   4.285   5.821  0.1801  0.9797  0.0109
 7411TIP3   OH243723   3.879   3.137   4.578  0.9399  0.3854 -0.2505
 7411TIP3    H143724   3.932   3.092   4.512 -2.3688 -1.3100 -1.8581
 7411TIP3    H243725   3.892   3.087   4.658  2.5396  0.5881 -0.3772
 7412TIP3   OH243726   4.929   0.130   1.878  0.0674 -0.0003  0.3789
 7412TIP3    H143727   4.987   0.079   1.822 -1.5129 -0.3968 -0.9371
 7412TIP3    H243728   4.858   0.070   1.899 -1.3408  1.3499 -0.4439
 7413TIP3   OH243729   1.165   5.119  14.873  0.0067  0.3411 -0.4462
 7413TIP3    H143730   1.225   5.185  14.906 -0.7604  0.8775 -0.1145
 7413TIP3    H243731   1.088   5.168  14.843 -0.9497 -0.4393  0.6361
 7414TIP3   OH243732   0.365   3.339   4.442 -0.3568  0.2610  0.2974
 7414TIP3    H143733   0.330   3.286   4.514 -2.7148 -0.6665 -1.4963
 7414TIP3    H243734   0.430   3.283   4.400  0.7977  0.6904  1.4459
 7415TIP3   OH243735   6.754   4.407   4.456  0.0181 -0.5861 -0.3359
 7415TIP3    H143736   6.816   4.343   4.492  0.3185 -0.6280 -0.9164
 7415TIP3    H243737   6.804   4.488   4.450 -0.8172  0.1311  1.8784
 7416TIP3   OH243738   4.302   5.182   1.368  0.0623  0.5447 -0.2235
 7416TIP3    H143739   4.375   5.125   1.391  0.4139  0.9859 -0.2475
 7416TIP3    H243740   4.238   5.124   1.326  0.5435  0.2286 -0.5127
 7417TIP3   OH243741   5.515   5.601   4.818 -0.2490  0.4601  0.2126
 7417TIP3    H143742   5.535   5.538   4.888  0.9082 -0.0025 -0.5213
 7417TIP3    H243743   5.589   5.661   4.818 -0.7495  1.0809  0.0686
 7418TIP3   OH243744   1.775   3.538  12.688 -0.0884  0.6671  0.5019
 7418TIP3    H143745   1.703   3.554  12.750 -0.3945  0.8685  0.0959
 7418TIP3    H243746   1.757   3.595  12.614 -0.9960 -1.2244 -0.7977
 7419TIP3   OH243747   1.390   0.922  12.066  0.2371 -0.2849  0.3783
 7419TIP3    H143748   1.459   0.868  12.027 -0.1990  0.8302 -1.9781
 7419TIP3    H243749   1.318   0.918  12.003 -0.7042  1.0711  1.3460
 7420TIP3   OH243750   4.691   4.179   3.308  0.0625  0.5109 -0.2613
 7420TIP3    H143751   4.778   4.217   3.302  0.3989 -0.3985 -1.1663
 7420TIP3    H243752   4.635   4.252   3.336  1.0863  1.1088  0.2586
 7421TIP3   OH243753   0.748   1.134   4.112 -0.1786 -0.2730  0.0904
 7421TIP3    H143754   0.789   1.071   4.171  3.8569  1.9596 -0.1190
 7421TIP3    H243755   0.675   1.171   4.161  1.6038 -0.2098  2.7421
 7422TIP3   OH243756   6.374   1.546  10.421  0.3229 -0.1237  0.5146
 7422TIP3    H143757   6.406   1.515  10.506  1.1291  1.6028  0.8504
 7422TIP3    H243758   6.322   1.623  10.441  1.8413  1.2519 -0.6842
 7423TIP3   OH243759   1.889   3.795  16.873  0.4380  0.1434  0.1255
 7423TIP3    H143760   1.846   3.847  16.805 -0.0439 -0.4962 -0.0696
 7423TIP3    H243761   1.973   3.769  16.835  0.4492  0.3365  0.0210
 7424TIP3   OH243762   4.150   4.593  13.481 -0.7463  0.7991 -0.1735
 7424TIP3    H143763   4.162   4.530  13.552 -0.0937 -0.5452 -1.4520
 7424TIP3    H243764   4.238   4.629  13.465 -0.9821  1.4857  0.0381
 7425TIP3   OH243765   5.671   0.794  17.256 -0.0256 -0.0882  0.2478
 7425TIP3    H143766   5.726   0.836  17.190  1.2151 -0.1214  1.2345
 7425TIP3    H243767   5.699   0.703  17.257 -0.3139 -0.1774  0.5412
 7426TIP3   OH243768   0.191   2.360   0.822  0.5532 -0.2515  0.4653
 7426TIP3    H143769   0.198   2.386   0.914  1.2406 -0.2596  0.4135
 7426TIP3    H243770   0.265   2.402   0.779  1.8608 -2.5343  0.4263
 7427TIP3   OH243771   4.123   3.662  14.670  0.5256  0.4570  0.3658
 7427TIP3    H143772   4.030   3.665  14.645  0.1896  2.0406  1.6939
 7427TIP3    H243773   4.162   3.738  14.626  0.5300  1.5715  2.2394
 7428TIP3   OH243774   3.317   0.728   0.922 -0.4194 -0.3091  0.1146
 7428TIP3    H143775   3.272   0.661   0.972 -3.0662  2.3789  1.4822
 7428TIP3    H243776   3.406   0.693   0.909 -1.0395 -3.0335  2.7176
 7429TIP3   OH243777   4.898   1.124  14.473 -0.7795  0.6462  0.1486
 7429TIP3    H143778   4.819   1.144  14.422 -1.5353 -1.3300  0.4568
 7429TIP3    H243779   4.880   1.160  14.560 -0.6139  1.6999 -0.2523
 7430TIP3   OH243780   4.260   0.828  12.879 -0.0255 -0.8808  0.1737
 7430TIP3    H143781   4.308   0.829  12.796  0.4726 -1.2390  0.4564
 7430TIP3    H243782   4.250   0.920  12.902  0.3375 -0.7976  0.0063
 7431TIP3   OH243783   5.782   6.768  15.605  0.6356  0.0416 -0.0367
 7431TIP3    H143784   5.741   6.853  15.591 -3.0017 -1.8267 -1.2728
 7431TIP3    H243785   5.755   6.742  15.693  1.2102 -0.1477  0.0926
 7432TIP3   OH243786   4.636   4.120  11.642 -0.0688 -0.0014 -0.4387
 7432TIP3    H143787   4.666   4.032  11.619 -0.5943 -0.4510  0.5667
 7432TIP3    H243788   4.636   4.122  11.738 -0.8510  0.8171 -0.4398
 7433TIP3   OH243789   5.190   1.049   0.570  0.3060 -0.0743 -0.0114
 7433TIP3    H143790   5.131   1.090   0.632  0.4768 -0.2861  0.2915
 7433TIP3    H243791   5.220   0.970   0.614  0.0583 -0.4761 -0.5494
 7434TIP3   OH243792   0.169   3.684   0.875  0.8206  0.4383 -0.3000
 7434TIP3    H143793   0.144   3.689   0.783  0.5467  0.4639 -0.2240
 7434TIP3    H243794   0.113   3.748   0.919  1.1278  0.6081 -0.1530
 7435TIP3   OH243795   0.490   3.122   5.718  0.0683  0.1469  0.0220
 7435TIP3    H143796   0.406   3.078   5.724  0.2802 -0.2642 -0.0595
 7435TIP3    H243797   0.552   3.055   5.689  1.1193 -0.4563  3.4016
 7436TIP3   OH243798   4.153   2.872   6.684 -0.3964  0.0239  0.2245
 7436TIP3    H143799   4.060   2.878   6.708 -1.0065  2.1394 -2.4079
 7436TIP3    H243800   4.187   2.960   6.700  0.4704 -0.0037 -1.3625
 7437TIP3   OH243801   5.274   4.598  13.634  0.4293  0.5101 -0.0267
 7437TIP3    H143802   5.363   4.566  13.624  0.2226  0.3920 -1.5408
 7437TIP3    H243803   5.281   4.668  13.699  1.8962  1.6419 -1.3879
 7438TIP3   OH243804   5.529   4.536  13.871  0.1676  0.3498 -0.4648
 7438TIP3    H143805   5.528   4.525  13.776  1.8392  1.3651 -0.6362
 7438TIP3    H243806   5.612   4.581  13.888  1.1745 -2.2067  1.7479
 7439TIP3   OH243807   0.428   4.190  16.532 -0.5545 -0.2870  0.1027
 7439TIP3    H143808   0.455   4.136  16.457  1.0436  0.1166  0.3567
 7439TIP3    H243809   0.454   4.279  16.507  2.2715 -0.4685  2.1156
 7440TIP3   OH243810   4.760   2.943  17.028  0.3184 -0.0592  0.0379
 7440TIP3    H143811   4.775   3.034  17.056  1.0339 -0.5555  1.3278
 7440TIP3    H243812   4.773   2.945  16.933  0.6546  1.1320  0.0942
 7441TIP3   OH243813   2.453   0.447   5.487 -0.1605  0.5120  0.3138
 7441TIP3    H143814   2.502   0.521   5.522  0.6131 -0.0589  0.4539
 7441TIP3    H243815   2.363   0.462   5.516 -0.1908  1.8683 -0.4420
 7442TIP3   OH243816   3.317   2.192   5.489  0.5817 -0.0178 -0.0902
 7442TIP3    H143817   3.229   2.192   5.527  0.9203 -2.7557  0.8293
 7442TIP3    H243818   3.374   2.222   5.560  0.7915 -1.8116  0.5422
 7443TIP3   OH243819   4.435   2.178  16.424  0.1300  0.1924 -0.2970
 7443TIP3    H143820   4.454   2.132  16.506  0.4710  0.3248 -0.3051
 7443TIP3    H243821   4.406   2.109  16.364 -0.2120  0.1088 -0.0357
 7444TIP3   OH243822   2.280   5.034  16.676 -0.1730  0.1852 -0.3210
 7444TIP3    H143823   2.343   5.001  16.612 -1.4497 -1.9058 -0.5310
 7444TIP3    H243824   2.195   5.024  16.634 -1.1071 -2.0665  2.0254
 7445TIP3   OH243825   4.212   0.230  14.380  0.2694 -0.5312 -0.2977
 7445TIP3    H143826   4.145   0.173  14.416 -0.4225 -0.5900 -1.6584
 7445TIP3    H243827   4.262   0.174  14.321  1.5335 -0.4885  0.6929
 7446TIP3   OH243828   0.151   3.291   3.302 -0.3281  0.2721 -0.6738
 7446TIP3    H143829   0.153   3.257   3.212 -0.4157  0.8234 -0.8903
 7446TIP3    H243830   0.078   3.354   3.301 -0.0239  0.6304 -0.3472
 7447TIP3   OH243831   5.093   2.261  12.199  0.0161 -0.5301  0.3442
 7447TIP3    H143832   5.116   2.325  12.132  1.6398 -0.4128  0.9839
 7447TIP3    H243833   5.131   2.179  12.168  1.3522 -0.3330  1.4294
 7448TIP3   OH243834   0.874   0.768   4.464  0.6048 -0.5387 -0.4059
 7448TIP3    H143835   0.945   0.710   4.492  1.3921  0.5619 -0.1158
 7448TIP3    H243836   0.815   0.771   4.539  0.4964 -1.0524 -0.4647
 7449TIP3   OH243837   5.636   4.344  14.857 -0.4157 -0.3438 -0.3976
 7449TIP3    H143838   5.687   4.284  14.803  0.2948 -0.9055  0.8737
 7449TIP3    H243839   5.690   4.423  14.863  0.2447 -0.8652  0.7828
 7450TIP3   OH243840   4.968   6.535   5.711  0.2052 -0.3750  0.2569
 7450TIP3    H143841   4.997   6.540   5.803 -1.5445 -0.7861  0.8498
 7450TIP3    H243842   5.029   6.473   5.670 -0.4346 -2.0078  1.7149
 7451TIP3   OH243843   1.237   5.686   5.089 -0.0427  0.1416 -0.5800
 7451TIP3    H143844   1.310   5.653   5.140  0.7608 -2.5223 -3.2848
 7451TIP3    H243845   1.275   5.755   5.034 -0.3130  1.0322  0.3223
 7452TIP3   OH243846   2.970   3.289   3.970  0.1899  0.0801 -0.9555
 7452TIP3    H143847   3.010   3.206   3.944  1.7090  0.2014  0.8877
 7452TIP3    H243848   2.877   3.278   3.951  0.3301 -2.1447 -0.4385
 7453TIP3   OH243849   0.583   6.712  16.893 -0.2303  0.2856 -0.1630
 7453TIP3    H143850   0.658   6.761  16.926 -0.3226  0.7286 -0.6073
 7453TIP3    H243851   0.620   6.630  16.861  0.3328  1.2676 -2.0897
 7454TIP3   OH243852   2.709   2.856  16.261 -0.2443  0.1906  0.8481
 7454TIP3    H143853   2.649   2.912  16.310  1.5101  1.0849  2.0251
 7454TIP3    H243854   2.763   2.813  16.328 -0.3349 -1.5049 -0.1259
 7455TIP3   OH243855   4.373   4.356   2.201 -0.7312 -0.2510 -0.4375
 7455TIP3    H143856   4.282   4.343   2.174 -0.7411  0.2794 -0.6819
 7455TIP3    H243857   4.424   4.298   2.143 -1.0245 -1.6440  0.6771
 7456TIP3   OH243858   1.472   0.164  16.023 -0.0329 -0.2455  0.4800
 7456TIP3    H143859   1.420   0.236  15.986  1.3553  1.1219  1.1599
 7456TIP3    H243860   1.420   0.132  16.096 -0.0881  0.9254  0.9738
 7457TIP3   OH243861   2.438   3.496  12.028  0.1716  0.1514  0.2885
 7457TIP3    H143862   2.368   3.432  12.015  0.7085  0.1436 -2.8464
 7457TIP3    H243863   2.419   3.565  11.964  2.4383  0.6525  0.1395
 7458TIP3   OH243864   0.166   4.904  15.864  0.0202  0.5067  0.3629
 7458TIP3    H143865   0.181   4.973  15.799  0.4811  1.2974  1.2857
 7458TIP3    H243866   0.071   4.902  15.875  0.0716  2.0476  1.4005
 7459TIP3   OH243867   1.389   5.697  13.446  0.2325 -0.0936 -0.0174
 7459TIP3    H143868   1.323   5.628  13.455 -0.0232  0.1023 -0.3859
 7459TIP3    H243869   1.345   5.777  13.474  0.4172 -0.0219  0.0667
 7460TIP3   OH243870   2.583   0.453   1.745 -0.8676 -0.8560 -0.3495
 7460TIP3    H143871   2.574   0.524   1.681 -0.3751 -0.9768 -0.5620
 7460TIP3    H243872   2.677   0.433   1.744 -1.1669 -2.3619 -1.2176
 7461TIP3   OH243873   1.502   0.595  13.211  0.7221 -0.5000  0.6822
 7461TIP3    H143874   1.492   0.511  13.256  0.4680 -0.6701  0.3137
 7461TIP3    H243875   1.595   0.600  13.188  0.4436 -1.3833 -0.6554
 7462TIP3   OH243876   5.236   1.076  11.642 -0.3917  0.1900 -0.6828
 7462TIP3    H143877   5.303   1.125  11.594  0.7026  0.6271  1.2687
 7462TIP3    H243878   5.154   1.122  11.621 -0.3167 -1.0204 -3.9898
 7463TIP3   OH243879   6.376   4.234   4.370 -0.3037 -0.1794 -0.0414
 7463TIP3    H143880   6.389   4.325   4.340 -3.8553  0.2608 -0.4973
 7463TIP3    H243881   6.376   4.183   4.289  0.3267 -0.4120  0.1034
 7464TIP3   OH243882   6.605   3.841  12.862  0.0313 -0.2212 -0.1903
 7464TIP3    H143883   6.629   3.932  12.840 -1.8861  0.7469  1.5317
 7464TIP3    H243884   6.631   3.790  12.786 -1.8538  2.2540 -2.5927
 7465TIP3   OH243885   1.196   3.860   4.318  0.0635 -0.3912 -0.1658
 7465TIP3    H143886   1.226   3.842   4.407 -1.3386  0.1075  0.4336
 7465TIP3    H243887   1.209   3.778   4.271 -0.4743 -1.0943  0.8827
 7466TIP3   OH243888   6.289   2.291  16.201 -0.3082 -0.2826 -0.0593
 7466TIP3    H143889   6.301   2.382  16.174  1.6303 -0.4494  0.1315
 7466TIP3    H243890   6.280   2.243  16.119 -2.5661  0.2028 -0.1324
 7467TIP3   OH243891   1.285   5.284  14.326 -0.5901 -0.2396 -0.0018
 7467TIP3    H143892   1.373   5.277  14.364 -1.5125 -0.8775  2.0772
 7467TIP3    H243893   1.273   5.203  14.277 -0.1500 -0.2945 -0.0207
 7468TIP3   OH243894   2.353   2.342   5.532  1.0093 -0.6918 -0.6543
 7468TIP3    H143895   2.395   2.402   5.470  0.5075 -0.6100 -0.9104
 7468TIP3    H243896   2.396   2.362   5.616  0.9597 -0.0848 -0.7680
 7469TIP3   OH243897   3.004   0.402  17.250 -0.0778 -0.3766  0.0576
 7469TIP3    H143898   2.934   0.437  17.194 -1.4607 -1.0848  1.3156
 7469TIP3    H243899   3.020   0.472  17.314 -1.4622 -1.2032  1.3511
 7470TIP3   OH243900   5.382   6.681   2.118 -0.3363 -0.2828  0.2948
 7470TIP3    H143901   5.404   6.773   2.128 -0.6636  0.1312 -2.3115
 7470TIP3    H243902   5.292   6.681   2.087 -0.5217 -1.5102  0.8008
 7471TIP3   OH243903   3.973   4.883   0.630  0.1062  0.1177  0.2205
 7471TIP3    H143904   3.936   4.970   0.647  1.2515  0.3590  1.5748
 7471TIP3    H243905   4.003   4.888   0.539  0.3237  1.2091  0.3367
 7472TIP3   OH243906   3.415   1.041  12.470 -0.3625  0.2749 -0.0892
 7472TIP3    H143907   3.433   0.966  12.414  0.5213 -0.0319  0.5898
 7472TIP3    H243908   3.399   1.002  12.557  1.3527  0.9401  0.5454
 7473TIP3   OH243909   4.557   5.259  13.353  0.1198 -0.1692 -0.1311
 7473TIP3    H143910   4.509   5.256  13.270 -0.0315  0.1499 -0.0533
 7473TIP3    H243911   4.647   5.237  13.329  0.4779  1.7965 -0.6698
 7474TIP3   OH243912   1.061   4.157  11.498  0.1570 -0.1842 -0.1441
 7474TIP3    H143913   1.012   4.232  11.530 -0.0225 -0.7323  0.8868
 7474TIP3    H243914   1.152   4.187  11.492  0.4522 -0.4878  2.3010
 7475TIP3   OH243915   2.646   1.036  11.520  0.0639 -0.1187 -0.0489
 7475TIP3    H143916   2.615   0.972  11.584  0.0963  0.6522  0.7431
 7475TIP3    H243917   2.581   1.033  11.450 -1.5039  1.0253  1.3103
 7476TIP3   OH243918   4.161   2.659  16.313  0.0912 -0.0685  0.4954
 7476TIP3    H143919   4.150   2.745  16.275 -1.9637 -0.0051  1.1583
 7476TIP3    H243920   4.221   2.672  16.386 -0.9395  0.9997  1.1754
 7477TIP3   OH243921   1.247   0.518  13.071  0.1807 -0.1816  0.1558
 7477TIP3    H143922   1.299   0.561  13.003 -0.2223  0.6247  0.3497
 7477TIP3    H243923   1.296   0.533  13.152 -1.4612  2.5444  0.6991
 7478TIP3   OH243924   1.359   1.677   5.871 -0.4418  0.4460 -0.3352
 7478TIP3    H143925   1.447   1.639   5.873  0.6812  2.8350 -1.4967
 7478TIP3    H243926   1.308   1.622   5.930  1.7494 -1.1851  0.1263
 7479TIP3   OH243927   4.730   3.629  11.793 -0.3472 -0.3503 -0.2566
 7479TIP3    H143928   4.764   3.710  11.833  0.5843 -0.6874 -0.3460
 7479TIP3    H243929   4.649   3.611  11.841 -1.3322  1.4244 -1.2109
 7480TIP3   OH243930   6.172   1.713  14.666 -0.6164  0.0362 -0.4327
 7480TIP3    H143931   6.114   1.650  14.624 -0.9194  0.1844 -0.2340
 7480TIP3    H243932   6.125   1.796  14.662  0.1446  0.4290 -1.4642
 7481TIP3   OH243933   4.114   6.644   4.432 -0.3545  0.2195 -0.2374
 7481TIP3    H143934   4.076   6.700   4.363 -0.8121 -0.3213 -0.4311
 7481TIP3    H243935   4.095   6.555   4.403 -0.7417 -0.0089  0.7050
 7482TIP3   OH243936   5.296   4.992  15.486  0.3976 -0.4766 -0.0743
 7482TIP3    H143937   5.365   5.056  15.506  0.9862 -0.9927 -0.4199
 7482TIP3    H243938   5.247   5.032  15.414  0.1008  0.0569  0.4104
 7483TIP3   OH243939   5.937   1.904   2.952 -0.0115  0.1146 -0.1418
 7483TIP3    H143940   5.856   1.870   2.914 -0.1266  0.1583  0.0588
 7483TIP3    H243941   5.979   1.952   2.882 -1.1048  1.7444  0.2864
 7484TIP3   OH243942   0.942   3.829   0.520  0.1059 -0.0713 -0.0454
 7484TIP3    H143943   1.012   3.834   0.586 -0.2637  2.3399  0.1994
 7484TIP3    H243944   0.863   3.853   0.568 -0.2242  1.3689 -1.2654
 7485TIP3   OH243945   0.713   1.916  16.758 -0.0041  0.0124  0.0637
 7485TIP3    H143946   0.652   1.942  16.688 -0.6725 -2.5551 -0.3607
 7485TIP3    H243947   0.686   1.827  16.780  1.8050 -0.0959  1.8810
 7486TIP3   OH243948   6.577   2.813  16.252 -0.3402 -0.4973 -0.3355
 7486TIP3    H143949   6.653   2.759  16.231  0.5979  1.0266 -0.9914
 7486TIP3    H243950   6.510   2.751  16.280  1.2633 -1.8337  0.6065
 7487TIP3   OH243951   3.791   5.504  10.380 -0.7069 -0.0280 -0.2361
 7487TIP3    H143952   3.727   5.452  10.331 -0.3407 -0.8192  0.1192
 7487TIP3    H243953   3.750   5.518  10.465  0.0343 -1.4804  0.3849
 7488TIP3   OH243954   6.186   3.428   3.076  0.4114 -0.2993  0.0344
 7488TIP3    H143955   6.220   3.456   3.161 -1.0493 -2.2047  1.2677
 7488TIP3    H243956   6.224   3.341   3.062 -2.9793 -1.9954  0.9190
 7489TIP3   OH243957   4.319   3.600   1.871 -0.4417  0.2947 -0.2111
 7489TIP3    H143958   4.270   3.538   1.817  1.5308 -1.8957  0.4163
 7489TIP3    H243959   4.386   3.636   1.812  0.0620 -0.1413  0.0899
 7490TIP3   OH243960   0.750   5.945   2.239 -0.6871  0.0915  0.0405
 7490TIP3    H143961   0.701   6.003   2.182 -1.2109 -1.0730 -0.7256
 7490TIP3    H243962   0.761   5.865   2.188 -0.2236 -0.5888  1.1729
 7491TIP3   OH243963   0.837   6.694   5.898 -0.1153 -0.3405 -0.1660
 7491TIP3    H143964   0.920   6.663   5.861 -0.8845 -1.6016 -0.8502
 7491TIP3    H243965   0.853   6.700   5.992  1.1500  0.6883 -0.4195
 7492TIP3   OH243966   4.579   5.340  13.616 -0.2250 -0.3681 -0.4793
 7492TIP3    H143967   4.618   5.298  13.539 -1.1158 -0.2722 -0.9960
 7492TIP3    H243968   4.520   5.406  13.580 -1.2818 -0.8887  0.2731
 7493TIP3   OH243969   1.417   2.088  13.127 -0.5837  0.5065  0.1930
 7493TIP3    H143970   1.463   2.087  13.211  0.2539 -0.9465 -0.2540
 7493TIP3    H243971   1.486   2.106  13.063 -1.1213  1.0329 -0.2419
 7494TIP3   OH243972   1.391   0.415  15.170  0.4220 -0.7702  0.2645
 7494TIP3    H143973   1.338   0.397  15.248  1.0049 -2.0614  0.3564
 7494TIP3    H243974   1.447   0.339  15.159  2.1591  0.4958  0.0424
 7495TIP3   OH243975   4.784   3.941  15.689 -0.1277  0.2333  0.0822
 7495TIP3    H143976   4.764   3.934  15.783  0.5602 -1.4089  0.1266
 7495TIP3    H243977   4.876   3.916  15.683 -0.0160  0.8903 -0.9752
 7496TIP3   OH243978   5.709   3.071  14.315 -0.3706 -0.0536  0.0900
 7496TIP3    H143979   5.684   3.130  14.386  0.5773 -1.2446  1.4391
 7496TIP3    H243980   5.796   3.039  14.339 -0.4378 -1.2119 -1.1226
 7497TIP3   OH243981   3.237   1.738   3.872 -0.1824  0.3051 -0.7716
 7497TIP3    H143982   3.235   1.742   3.968  0.0441 -2.5192 -0.6034
 7497TIP3    H243983   3.146   1.722   3.847 -0.1756  0.6364 -1.0057
 7498TIP3   OH243984   5.077   4.127   5.071 -0.4721 -0.0754  0.4962
 7498TIP3    H143985   5.060   4.220   5.089 -0.4944 -0.2317  1.3063
 7498TIP3    H243986   5.103   4.125   4.979  1.0587  0.9342  0.8831
 7499TIP3   OH243987   2.025   2.550  12.882 -0.5847 -0.2605 -0.0137
 7499TIP3    H143988   2.070   2.604  12.948  3.1322 -1.9816 -0.9862
 7499TIP3    H243989   1.975   2.486  12.933  1.0298 -0.5991  1.1847
 7500TIP3   OH243990   2.066   5.521  11.451 -0.2625 -0.3070 -0.0527
 7500TIP3    H143991   2.027   5.523  11.363  0.9437  0.1654 -0.5955
 7500TIP3    H243992   2.089   5.429  11.464 -0.0226 -0.3026 -0.4234
 7501TIP3   OH243993   5.116   5.820   4.767 -0.0314 -0.2010 -0.0853
 7501TIP3    H143994   5.204   5.804   4.802 -0.1090 -2.0030 -0.6676
 7501TIP3    H243995   5.131   5.842   4.675 -0.2241 -0.9701 -0.3004
 7502TIP3   OH243996   4.031   5.408   2.663 -0.3265  0.2345  0.2471
 7502TIP3    H143997   4.043   5.453   2.579 -1.2313 -0.0801 -0.0575
 7502TIP3    H243998   4.086   5.329   2.655  0.7425  0.9317  0.5315
 7503TIP3   OH243999   2.741   1.961   0.206  0.2377 -0.4700 -0.4537
 7503TIP3    H144000   2.726   1.890   0.269 -1.6250 -0.6793 -1.1043
 7503TIP3    H244001   2.764   2.036   0.261  1.5225 -1.3821  0.2892
 7504TIP3   OH244002   0.111   0.781  12.872  0.5211  0.6360 -0.0689
 7504TIP3    H144003   0.053   0.713  12.837 -1.3357  2.1219 -0.0026
 7504TIP3    H244004   0.101   0.854  12.812  1.3368  1.3662  0.6738
 7505TIP3   OH244005   0.346   2.159   2.451  0.3696 -0.6790  0.4576
 7505TIP3    H144006   0.357   2.253   2.470  2.7124 -0.4904 -1.5401
 7505TIP3    H244007   0.253   2.150   2.431  0.3174  1.5230 -0.5947
 7506TIP3   OH244008   4.974   2.586   0.805 -0.1437 -0.0585  0.2094
 7506TIP3    H144009   4.997   2.509   0.857  1.2244  0.7313  0.7846
 7506TIP3    H244010   5.013   2.660   0.852  1.2185  0.6765 -1.9953
 7507TIP3   OH244011   2.364   0.388  15.745  0.6305  0.4362  0.3792
 7507TIP3    H144012   2.386   0.351  15.659  1.5801 -1.0289  1.2375
 7507TIP3    H244013   2.281   0.433  15.731  0.0575 -0.9933 -0.9874
 7508TIP3   OH244014   5.584   2.633   4.740  0.4071 -0.0294 -0.0463
 7508TIP3    H144015   5.619   2.649   4.828  0.5210  1.0592 -0.2833
 7508TIP3    H244016   5.655   2.589   4.694  0.4905 -0.2492  0.2945
 7509TIP3   OH244017   0.674   1.070   5.179 -0.0170  0.3593  0.0130
 7509TIP3    H144018   0.672   0.981   5.144  0.4616  0.0649  0.7179
 7509TIP3    H244019   0.735   1.065   5.253 -0.1232  1.2330  0.1627
 7510TIP3   OH244020   0.477   3.772   3.577  0.1381  0.7044  0.2580
 7510TIP3    H144021   0.490   3.824   3.656 -1.6871  1.0712  0.3302
 7510TIP3    H244022   0.404   3.814   3.532 -1.1940 -1.6251  0.1702
 7511TIP3   OH244023   3.871   1.491   1.190 -0.4182 -1.0469 -0.3610
 7511TIP3    H144024   3.901   1.410   1.148 -0.8309  0.0433 -2.8792
 7511TIP3    H244025   3.806   1.526   1.129 -0.6874  0.8597  1.0007
 7512TIP3   OH244026   1.745   4.135   5.695 -0.1832 -0.2734 -0.8096
 7512TIP3    H144027   1.653   4.107   5.698 -0.6669  1.1673 -1.3206
 7512TIP3    H244028   1.795   4.056   5.715 -1.5981 -0.6719  1.4121
 7513TIP3   OH244029   0.711   2.251  13.633  0.1571  0.6858  0.1362
 7513TIP3    H144030   0.664   2.276  13.553  0.2004 -2.3400 -0.8939
 7513TIP3    H244031   0.653   2.279  13.704 -3.1879 -2.6466 -1.0974
 7514TIP3   OH244032   2.299   0.244   1.785  0.2575 -0.1504  0.3206
 7514TIP3    H144033   2.342   0.288   1.711  0.5534  0.2800  0.7392
 7514TIP3    H244034   2.222   0.202   1.747 -0.0364  0.7429 -0.0921
 7515TIP3   OH244035   3.424   2.689  12.721  0.1871  0.1695 -0.5481
 7515TIP3    H144036   3.485   2.676  12.648  1.0274  0.5203  0.0918
 7515TIP3    H244037   3.382   2.773  12.702  0.2280  0.1445 -0.7507
 7516TIP3   OH244038   0.233   5.983  15.235 -0.8407 -0.3966  0.7547
 7516TIP3    H144039   0.327   5.968  15.237 -0.7714  0.1159  1.3711
 7516TIP3    H244040   0.223   6.077  15.220 -1.2631 -0.5977 -0.2771
 7517TIP3   OH244041   4.595   5.450   6.284  0.3014  0.2749 -0.2289
 7517TIP3    H144042   4.526   5.514   6.305  0.9233  0.9874 -0.3431
 7517TIP3    H244043   4.617   5.411   6.369  1.5188  1.8455  0.1977
 7518TIP3   OH244044   5.473   4.771   3.191  0.1608 -0.1295  0.0121
 7518TIP3    H144045   5.462   4.707   3.262  3.0733 -0.8299 -0.1200
 7518TIP3    H244046   5.471   4.856   3.234  2.2512 -0.5634  1.0232
 7519TIP3   OH244047   1.178   5.971  15.484 -0.2448 -0.5902 -0.4626
 7519TIP3    H144048   1.256   6.018  15.452 -1.4290  2.1456  0.4707
 7519TIP3    H244049   1.166   5.899  15.422  3.7476 -1.8688  0.0958
 7520TIP3   OH244050   3.504   0.435   3.193  0.0509  0.3188  0.8048
 7520TIP3    H144051   3.573   0.386   3.238 -0.4548 -0.3078  0.9137
 7520TIP3    H244052   3.510   0.406   3.102 -0.0298  0.3060  0.8033
 7521TIP3   OH244053   0.193   2.375   3.866 -0.3655 -0.5959  0.2735
 7521TIP3    H144054   0.265   2.357   3.926 -0.1404 -1.9590 -0.4061
 7521TIP3    H244055   0.142   2.443   3.911 -0.0946 -1.4505  1.9145
 7522TIP3   OH244056   0.586   4.935   4.825  0.0656 -0.1033 -0.1691
 7522TIP3    H144057   0.597   5.030   4.822 -0.1147 -0.0386  0.8633
 7522TIP3    H244058   0.673   4.900   4.807  0.4038  0.2820  0.6716
 7523TIP3   OH244059   0.066   2.259  15.897  0.1733 -0.4475  0.0237
 7523TIP3    H144060  -0.020   2.301  15.888  0.4347  0.4135  1.3224
 7523TIP3    H244061   0.047   2.168  15.919 -0.4107 -0.6198 -1.1994
 7524TIP3   OH244062   3.480   4.523  11.803  0.3415 -0.0397 -0.7182
 7524TIP3    H144063   3.388   4.520  11.828  0.1515  0.4939 -1.3230
 7524TIP3    H244064   3.527   4.530  11.886 -0.3050  2.2573 -0.4922
 7525TIP3   OH244065   5.524   4.001   4.432  0.1508 -0.4947  0.0033
 7525TIP3    H144066   5.582   4.006   4.508 -0.9955 -0.9728  0.9150
 7525TIP3    H244067   5.559   3.928   4.380  0.1281 -1.0522  0.7622
 7526TIP3   OH244068   3.645   2.955   6.015  0.2310  0.0575 -0.3758
 7526TIP3    H144069   3.570   3.001   6.052  0.5694 -0.6510  1.2466
 7526TIP3    H244070   3.720   3.013   6.032  0.2964 -0.0076 -0.4423
 7527TIP3   OH244071   2.453   6.524   1.764  0.1550  0.2132 -0.1088
 7527TIP3    H144072   2.542   6.522   1.799  0.1264  1.0597  0.0375
 7527TIP3    H244073   2.411   6.597   1.810 -0.6208 -0.1923 -0.1647
 7528TIP3   OH244074   3.383   5.671  12.326 -0.2494 -0.3887  0.0137
 7528TIP3    H144075   3.387   5.589  12.277  1.6584 -0.5700  0.4535
 7528TIP3    H244076   3.474   5.700  12.333 -0.8097  1.3041  0.6509
 7529TIP3   OH244077   2.953   2.758   5.481  0.2085 -0.0442  0.1911
 7529TIP3    H144078   2.908   2.673   5.488 -0.3655  0.0978 -1.5683
 7529TIP3    H244079   2.911   2.812   5.548  0.1615 -0.9653  0.9169
 7530TIP3   OH244080   1.373   5.042   2.574 -0.5368  0.2466 -0.2528
 7530TIP3    H144081   1.439   4.990   2.620  1.5637  2.2123 -0.9158
 7530TIP3    H244082   1.395   5.030   2.481 -0.5428  1.6004 -0.4417
 7531TIP3   OH244083   1.948   1.675   3.125  0.0563  0.3657  0.7661
 7531TIP3    H144084   1.920   1.699   3.213  1.0619 -0.4939  1.3393
 7531TIP3    H244085   1.867   1.655   3.079 -0.6544  3.1130  0.7725
 7532TIP3   OH244086   2.490   5.109   1.161 -0.0467 -0.6808  0.0479
 7532TIP3    H144087   2.426   5.125   1.231  0.4884  1.2183  0.1403
 7532TIP3    H244088   2.467   5.171   1.093  1.9560  0.3436  0.2658
 7533TIP3   OH244089   2.649   3.446   6.367  0.6065  0.3827 -0.2030
 7533TIP3    H144090   2.680   3.534   6.344 -1.1722  1.4143  1.1776
 7533TIP3    H244091   2.569   3.462   6.417  0.6679 -2.0079  0.7030
 7534TIP3   OH244092   0.035   5.406  15.085 -0.9778 -0.3973 -0.1162
 7534TIP3    H144093  -0.022   5.372  15.016 -0.7337 -0.4461 -0.2929
 7534TIP3    H244094  -0.018   5.401  15.165 -0.8450 -1.4483 -0.0938
 7535TIP3   OH244095   3.079   3.018   6.159 -0.0314  0.2245  0.8895
 7535TIP3    H144096   3.062   3.002   6.252 -0.0648 -0.7850  0.7166
 7535TIP3    H244097   3.173   3.007   6.149  0.0057  0.5796  0.8530
 7536TIP3   OH244098   2.624   6.757   4.623 -0.7331 -0.1116  0.4763
 7536TIP3    H144099   2.649   6.776   4.714 -0.5122 -0.2993  0.4542
 7536TIP3    H244100   2.575   6.835   4.596  2.0460  1.4472 -0.3356
 7537TIP3   OH244101   3.335   5.681   3.495  0.0393 -0.0733 -0.2664
 7537TIP3    H144102   3.376   5.767   3.481 -1.2484  0.3475 -1.5349
 7537TIP3    H244103   3.392   5.638   3.559 -0.4314  2.5191  2.0077
 7538TIP3   OH244104   5.314   5.771   2.833 -0.0299 -0.1792  0.1442
 7538TIP3    H144105   5.389   5.715   2.812 -0.9065 -0.4064 -2.4795
 7538TIP3    H244106   5.347   5.860   2.824  0.1650 -0.2748 -0.0730
 7539TIP3   OH244107   4.816   5.300  11.582 -0.1795  0.1248 -0.4704
 7539TIP3    H144108   4.886   5.295  11.516 -0.0395 -3.7992 -0.1491
 7539TIP3    H244109   4.742   5.255  11.542 -1.2315  0.7818  0.7116
 7540TIP3   OH244110   4.750   6.775  13.659  0.1991 -0.1805 -0.0072
 7540TIP3    H144111   4.683   6.707  13.658 -1.6916  1.6538 -1.1409
 7540TIP3    H244112   4.739   6.819  13.744  1.0010 -0.8628  0.4584
 7541TIP3   OH244113   5.888   1.573   0.608 -0.1060 -0.0649 -0.8867
 7541TIP3    H144114   5.858   1.568   0.517 -0.2990 -0.9275 -0.7833
 7541TIP3    H244115   5.824   1.631   0.651 -1.3806 -1.5088 -0.7762
 7542TIP3   OH244116   4.698   1.953   6.088  0.0318  0.0591  0.4567
 7542TIP3    H144117   4.761   2.003   6.140 -1.0105  1.6666  0.2193
 7542TIP3    H244118   4.624   1.939   6.147 -0.6714  0.8910 -0.2091
 7543TIP3   OH244119   6.675   2.840  14.194  0.0344 -0.7737  0.2182
 7543TIP3    H144120   6.660   2.761  14.247 -0.7256 -0.9937 -0.3177
 7543TIP3    H244121   6.628   2.823  14.113  0.8717 -0.2624 -0.3737
 7544TIP3   OH244122   3.622   3.874  16.968 -0.2285 -0.4767  0.5230
 7544TIP3    H144123   3.554   3.866  17.034 -0.7446 -2.4436 -0.1946
 7544TIP3    H244124   3.683   3.802  16.987 -0.1879 -0.8322 -0.8723
 7545TIP3   OH244125   1.139   4.921   2.839 -0.0501  0.3129  0.1951
 7545TIP3    H144126   1.115   4.893   2.751  1.3747  1.1195 -0.4664
 7545TIP3    H244127   1.225   4.881   2.854  0.1522  0.9806  0.8318
 7546TIP3   OH244128   2.021   1.971   0.143 -0.2191 -0.1797 -0.1410
 7546TIP3    H144129   2.089   1.915   0.181 -0.8395 -0.7753  0.0908
 7546TIP3    H244130   1.978   2.011   0.219  0.4402  0.8756 -0.3146
 7547TIP3   OH244131   3.160   6.311  16.640  0.0710  0.1532  0.0490
 7547TIP3    H144132   3.102   6.375  16.598  0.9777  0.3906 -0.8879
 7547TIP3    H244133   3.241   6.360  16.655  1.3101 -1.1422 -2.0743
 7548TIP3   OH244134   1.787   2.491   2.747 -0.0502  0.3226  0.0728
 7548TIP3    H144135   1.869   2.540   2.758  0.5517 -0.7002  0.2727
 7548TIP3    H244136   1.769   2.456   2.834  0.3060 -0.9890 -0.3684
 7549TIP3   OH244137   3.281   3.268  15.997 -0.4200  0.1565  0.9979
 7549TIP3    H144138   3.359   3.236  16.041 -1.1660 -2.4217  0.5182
 7549TIP3    H244139   3.212   3.260  16.063 -0.8435 -0.3197  0.4949
 7550TIP3   OH244140   2.306   4.276  15.393  0.2581  0.4625  0.1524
 7550TIP3    H144141   2.357   4.319  15.325 -1.7772 -0.6505 -2.1273
 7550TIP3    H244142   2.244   4.342  15.423  1.8645  1.2963  1.7733
 7551TIP3   OH244143   3.433   4.833  13.476  0.4454 -0.3461  0.2001
 7551TIP3    H144144   3.477   4.880  13.405 -0.6630 -0.0295 -0.2818
 7551TIP3    H244145   3.340   4.834  13.452  0.4591 -3.5368 -0.2959
 7552TIP3   OH244146   0.062   5.375   5.451 -0.4452 -0.1003  0.1363
 7552TIP3    H144147   0.139   5.338   5.409  1.2772  3.1370  0.2922
 7552TIP3    H244148   0.018   5.426   5.383 -3.0480 -2.6374 -0.2089
 7553TIP3   OH244149   4.407   5.220   1.708  0.2696 -0.4814  0.3309
 7553TIP3    H144150   4.421   5.219   1.803 -0.2846 -0.7211  0.4124
 7553TIP3    H244151   4.333   5.161   1.694 -0.9364  1.0844 -0.0329
 7554TIP3   OH244152   1.773   6.477   5.211 -0.1564 -0.2288  0.3901
 7554TIP3    H144153   1.814   6.434   5.136  0.2338 -0.5702  0.7998
 7554TIP3    H244154   1.791   6.570   5.198  0.3224 -0.3328  0.3143
 7555TIP3   OH244155   4.421   3.073   5.236  0.1650  0.5194  0.1049
 7555TIP3    H144156   4.495   3.133   5.241  0.7729 -0.2022 -0.1675
 7555TIP3    H244157   4.427   3.035   5.148 -0.1237 -0.0530  0.3304
 7556TIP3   OH244158   6.281   5.687   4.880 -0.1704 -0.0596 -0.6843
 7556TIP3    H144159   6.368   5.648   4.889 -0.7913 -1.5730 -1.0905
 7556TIP3    H244160   6.230   5.622   4.831 -1.9851  0.0800  0.9443
 7557TIP3   OH244161   0.921   5.606  17.072  0.3377 -0.3517  0.2163
 7557TIP3    H144162   0.854   5.667  17.042  1.5539  0.3908 -1.0422
 7557TIP3    H244163   1.000   5.659  17.082  1.2269 -1.5764 -0.1578
 7558TIP3   OH244164   0.382   3.991  14.298 -0.4919 -0.1969 -0.4672
 7558TIP3    H144165   0.393   3.988  14.203  0.4916  0.0756 -0.3651
 7558TIP3    H244166   0.393   4.083  14.321 -0.8887 -0.2366 -0.1057
 7559TIP3   OH244167   3.091   2.474   0.736  0.1775 -0.4550  0.0624
 7559TIP3    H144168   3.075   2.530   0.812  0.8526 -1.5502  1.0465
 7559TIP3    H244169   3.166   2.420   0.762 -0.4090 -1.7584 -0.8752
 7560TIP3   OH244170   5.574   3.367  15.370 -0.2945 -0.1034 -0.3648
 7560TIP3    H144171   5.537   3.376  15.458  2.1101 -0.0508  0.6868
 7560TIP3    H244172   5.594   3.456  15.344 -1.5552 -0.0639 -1.2402
 7561TIP3   OH244173   2.038   0.020   4.605 -0.5172  0.5264 -0.0627
 7561TIP3    H144174   1.986   0.068   4.539  0.2746  0.8806 -0.4390
 7561TIP3    H244175   2.107  -0.022   4.554 -0.3734  0.1429  0.4530
 7562TIP3   OH244176   4.372   3.587   0.537 -0.2363 -0.4334 -0.3427
 7562TIP3    H144177   4.415   3.502   0.543 -0.8288 -0.6627  0.9251
 7562TIP3    H244178   4.300   3.582   0.600  1.3743  1.9311  1.8202
 7563TIP3   OH244179   0.227   0.967   1.934  0.1428  0.9193  0.6811
 7563TIP3    H144180   0.232   1.014   2.017 -1.2714  1.3967  0.5095
 7563TIP3    H244181   0.208   0.877   1.959  0.0527  0.9948  0.8912
 7564TIP3   OH244182   4.476   0.340   2.954  0.2398 -0.3282  0.3218
 7564TIP3    H144183   4.461   0.251   2.986  1.3331 -0.9151 -0.7619
 7564TIP3    H244184   4.565   0.361   2.982  0.2499  0.1464 -0.0521
 7565TIP3   OH244185   3.670   6.445  13.122 -0.0909 -0.2636  0.0979
 7565TIP3    H144186   3.757   6.405  13.126  0.6514  1.2634 -0.3965
 7565TIP3    H244187   3.613   6.382  13.167  0.7686 -2.5364 -1.8243
 7566TIP3   OH244188   3.619   0.289  13.857 -0.4973 -0.3655  0.0980
 7566TIP3    H144189   3.658   0.228  13.919 -2.3700 -1.5766  0.1304
 7566TIP3    H244190   3.637   0.252  13.771 -0.6091 -0.3452  0.0656
 7567TIP3   OH244191   4.559   1.765   4.513  0.7982 -0.3713  0.2382
 7567TIP3    H144192   4.590   1.685   4.470 -1.7255 -1.5839  0.5820
 7567TIP3    H244193   4.481   1.790   4.464 -0.5324 -0.2074  2.3819
 7568TIP3   OH244194   4.427   6.507  11.500  0.2390  0.4733  0.7490
 7568TIP3    H144195   4.405   6.590  11.458  0.1601  0.4263  0.6971
 7568TIP3    H244196   4.458   6.531  11.587  1.5633  0.6697  0.2369
 7569TIP3   OH244197   4.007   2.476   0.211  0.1919  0.1090  0.5134
 7569TIP3    H144198   4.085   2.466   0.156 -1.3568 -0.0070 -1.7078
 7569TIP3    H244199   3.982   2.568   0.201  0.3739  0.2955  1.6940
 7570TIP3   OH244200   1.738   5.217   3.495 -0.0290  0.4125 -0.1381
 7570TIP3    H144201   1.811   5.228   3.435 -0.3419 -3.2580 -1.3432
 7570TIP3    H244202   1.779   5.198   3.580  0.4394 -0.8844 -0.6442
 7571TIP3   OH244203   5.970   6.695  13.466 -0.0261  0.4465  0.0180
 7571TIP3    H144204   6.030   6.722  13.396  2.6228 -2.4395  1.0565
 7571TIP3    H244205   5.895   6.658  13.420  0.5419  0.9079 -1.3133
 7572TIP3   OH244206   2.234   3.498  10.607  0.3310  0.0861 -0.8232
 7572TIP3    H144207   2.246   3.501  10.512  1.5553  2.1476 -0.6186
 7572TIP3    H244208   2.205   3.586  10.631  0.8499 -0.1810  0.8285
 7573TIP3   OH244209   2.506   6.782   0.359 -0.1390  0.0427 -0.1832
 7573TIP3    H144210   2.517   6.720   0.288 -1.9804  3.0679 -3.2665
 7573TIP3    H244211   2.412   6.793   0.368  0.1050  0.8450  1.7314
 7574TIP3   OH244212   2.285   2.349  15.162 -0.2802  0.3264  0.2856
 7574TIP3    H144213   2.220   2.329  15.229 -0.0510  1.6545  0.9285
 7574TIP3    H244214   2.234   2.361  15.081 -0.4920 -1.9654  0.0438
 7575TIP3   OH244215   0.075   1.030   5.093  0.1880  1.2337 -0.0449
 7575TIP3    H144216   0.083   1.124   5.076 -0.8364  1.3032 -0.2336
 7575TIP3    H244217   0.164   0.997   5.091  0.5968  2.2867  0.4893
 7576TIP3   OH244218   5.678   3.057  16.065  0.2840 -0.6910  0.0752
 7576TIP3    H144219   5.648   3.143  16.035 -0.0079 -0.5252  0.8280
 7576TIP3    H244220   5.733   3.076  16.141  0.4115 -1.1569  0.1002
 7577TIP3   OH244221   5.246   5.684   1.656 -0.6180  0.0364 -0.1377
 7577TIP3    H144222   5.160   5.685   1.699 -0.6126  0.9167 -0.1360
 7577TIP3    H244223   5.226   5.681   1.562 -0.6732  1.1946 -0.1741
 7578TIP3   OH244224   2.778   0.048  13.311  0.3134  0.0639  0.4002
 7578TIP3    H144225   2.782  -0.040  13.275 -2.2303  0.6030 -1.3617
 7578TIP3    H244226   2.843   0.098  13.262  0.3647 -0.3672  0.0297
 7579TIP3   OH244227   0.209   4.733   4.228 -0.2831 -0.1474 -0.3303
 7579TIP3    H144228   0.143   4.691   4.282 -1.8700  1.5455 -0.8987
 7579TIP3    H244229   0.178   4.722   4.139  1.1760 -0.9588 -0.7558
 7580TIP3   OH244230   4.854   6.536   0.798 -0.1393  0.2400  0.1911
 7580TIP3    H144231   4.789   6.515   0.731  0.0007  1.1092 -0.2289
 7580TIP3    H244232   4.908   6.457   0.805 -2.0909 -1.0356  1.5717
 7581TIP3   OH244233   5.372   0.727  13.725 -0.6265 -0.6681 -0.4568
 7581TIP3    H144234   5.451   0.686  13.688  0.0751  1.1829 -1.1114
 7581TIP3    H244235   5.405   0.784  13.795 -1.1402  1.4796 -1.8952
 7582TIP3   OH244236   1.866   4.869  15.715  0.0765 -0.1919  0.7974
 7582TIP3    H144237   1.780   4.840  15.684 -0.5034  1.9968  0.2602
 7582TIP3    H244238   1.923   4.861  15.638  0.0391 -0.4610  0.7997
 7583TIP3   OH244239   1.905   5.558  11.999 -0.5431 -0.0927 -0.1444
 7583TIP3    H144240   1.946   5.472  11.989 -0.1865  0.1407 -0.6791
 7583TIP3    H244241   1.822   5.540  12.044 -0.0903 -0.6192  0.4894
 7584TIP3   OH244242   4.137   4.794   2.331 -0.1169  0.0051 -0.2215
 7584TIP3    H144243   4.153   4.700   2.319 -1.0922  0.0014 -1.6268
 7584TIP3    H244244   4.224   4.834   2.329  0.1324 -0.5944 -2.2380
 7585TIP3   OH244245   2.784   5.338   0.314  0.6000 -0.2668  0.3476
 7585TIP3    H144246   2.696   5.362   0.284 -0.1518 -1.3378  1.6341
 7585TIP3    H244247   2.828   5.306   0.235 -0.3372 -0.2157 -0.2053
 7586TIP3   OH244248   4.392   1.916  12.084  0.4501  0.4447 -0.1096
 7586TIP3    H144249   4.353   1.906  12.171 -1.4189  0.1527 -0.9777
 7586TIP3    H244250   4.454   1.843  12.078 -1.5899 -1.3466 -0.1701
 7587TIP3   OH244251   3.678   1.454   4.279 -0.1377 -0.5067 -0.2987
 7587TIP3    H144252   3.693   1.458   4.185  1.4461  0.3065 -0.0272
 7587TIP3    H244253   3.626   1.374   4.291  0.4655 -1.1467 -1.7593
 7588TIP3   OH244254   1.934   3.636   5.153  0.5150  0.2926 -0.2397
 7588TIP3    H144255   1.840   3.647   5.165  0.6786  0.8140  0.6598
 7588TIP3    H244256   1.949   3.651   5.060 -0.1180  1.5692 -0.1483
 7589TIP3   OH244257   2.851   6.631  13.557  0.4548 -0.8748  0.0766
 7589TIP3    H144258   2.892   6.589  13.481  1.2597  0.1622 -0.0698
 7589TIP3    H244259   2.757   6.611  13.547 -0.0851  2.6340 -3.4805
 7590TIP3   OH244260   3.091   3.864   1.880  0.1321  0.4061  0.6286
 7590TIP3    H144261   3.092   3.948   1.834  0.7492  0.7081  1.1816
 7590TIP3    H244262   3.115   3.886   1.970  1.3315 -0.4874  0.5461
 7591TIP3   OH244263   3.084   1.309  14.901 -0.0017 -0.3863 -0.0058
 7591TIP3    H144264   3.079   1.303  14.996  0.9923 -0.4235  0.0546
 7591TIP3    H244265   3.008   1.360  14.875  1.8255  3.0649  1.1637
 7592TIP3   OH244266   6.484   2.181  15.925  0.3980  0.3687 -0.1914
 7592TIP3    H144267   6.483   2.266  15.882  0.5451 -0.3419 -1.6053
 7592TIP3    H244268   6.405   2.137  15.893  1.2112 -0.6764 -0.7653
 7593TIP3   OH244269   0.217   2.593   5.903 -1.1646  0.6390  0.3425
 7593TIP3    H144270   0.194   2.533   5.974  1.4463 -0.3265  0.4355
 7593TIP3    H244271   0.272   2.541   5.845 -2.1853  1.8126 -1.7161
 7594TIP3   OH244272   0.872   2.650   3.058 -0.5284  0.6272 -0.0878
 7594TIP3    H144273   0.966   2.637   3.045 -0.0336  1.1594  2.7176
 7594TIP3    H244274   0.833   2.615   2.978  1.9970 -0.3469 -0.9757
 7595TIP3   OH244275   4.882   3.059   2.184 -0.1822  0.2984  0.4889
 7595TIP3    H144276   4.827   2.995   2.228 -0.2120 -0.1619 -0.2018
 7595TIP3    H244277   4.821   3.125   2.151 -0.3037 -0.0827 -0.0622
 7596TIP3   OH244278   3.700   5.036  12.019 -0.2663  0.2279 -0.0588
 7596TIP3    H144279   3.697   4.946  11.986 -0.1120  0.3189 -0.3215
 7596TIP3    H244280   3.793   5.059  12.020 -0.1055 -0.3778  2.1033
 7597TIP3   OH244281   5.763   0.174  14.463 -0.1540  0.6561 -0.3655
 7597TIP3    H144282   5.750   0.097  14.519  2.4375  0.1982 -0.3073
 7597TIP3    H244283   5.724   0.246  14.512  0.5785 -0.0343  1.2934
 7598TIP3   OH244284   5.433   0.900   0.998 -0.3269 -0.0868  0.2385
 7598TIP3    H144285   5.507   0.956   0.973 -0.2374  0.0849  0.8649
 7598TIP3    H244286   5.396   0.943   1.075  0.4945 -1.5100  1.4792
 7599TIP3   OH244287   2.364   1.957   6.677 -0.2630  0.0598  0.1886
 7599TIP3    H144288   2.450   1.997   6.671 -0.0935 -0.4801 -1.2772
 7599TIP3    H244289   2.314   1.997   6.605 -0.8596 -0.5184  0.2725
 7600TIP3   OH244290   5.391   4.062  14.637 -0.3323 -0.0958 -0.2741
 7600TIP3    H144291   5.466   4.116  14.614 -0.7184  0.0443 -1.2300
 7600TIP3    H244292   5.418   4.015  14.715  0.6728  0.1059 -0.4969
 7601TIP3   OH244293   2.044   2.723  14.280 -0.6116 -0.0437  0.2038
 7601TIP3    H144294   2.051   2.807  14.327 -2.1846 -0.6216  1.5183
 7601TIP3    H244295   1.973   2.736  14.218 -2.3018 -1.0440  1.8735
 7602TIP3   OH244296   1.305   3.911  14.676 -0.5222  0.1059 -0.4131
 7602TIP3    H144297   1.391   3.876  14.696 -1.1051  0.2087  2.5151
 7602TIP3    H244298   1.322   4.001  14.648  0.2256  0.6940  1.8216
 7603TIP3   OH244299   0.813   4.201   4.418 -0.1653 -0.3355  0.5473
 7603TIP3    H144300   0.896   4.185   4.464 -0.6735 -3.9923  0.3089
 7603TIP3    H244301   0.746   4.163   4.476 -1.3889  0.1432 -0.5450
 7604TIP3   OH244302   1.536   4.854  15.915  0.5772 -0.0071  0.2639
 7604TIP3    H144303   1.473   4.787  15.942  1.2236 -1.0870 -0.8703
 7604TIP3    H244304   1.485   4.915  15.861 -0.2368  0.9841  2.1294
 7605TIP3   OH244305   5.532   2.468   0.552  0.6361 -0.1504 -0.3439
 7605TIP3    H144306   5.533   2.403   0.623 -2.4497 -0.4710 -0.5293
 7605TIP3    H244307   5.570   2.422   0.477  0.0541 -1.2103  0.0000
 7606TIP3   OH244308   1.591   2.379  13.055 -0.4365  0.4500  0.0640
 7606TIP3    H144309   1.623   2.299  13.013 -1.1384  0.8212 -1.2086
 7606TIP3    H244310   1.572   2.438  12.982  0.0652  1.7776  0.9918
 7607TIP3   OH244311   6.590   3.563   2.590 -0.2045 -0.3179 -0.2102
 7607TIP3    H144312   6.637   3.518   2.660  1.6627  0.5641 -0.8594
 7607TIP3    H244313   6.658   3.589   2.528 -1.8139 -1.0962 -2.3872
 7608TIP3   OH244314   1.651   0.776  12.603 -0.5813  0.0609 -0.1114
 7608TIP3    H144315   1.731   0.807  12.561 -1.2384  2.3322  0.2594
 7608TIP3    H244316   1.666   0.789  12.697 -0.7063 -1.1975  0.0979
 7609TIP3   OH244317   0.094   2.796   4.829 -0.3724  0.3110  0.3042
 7609TIP3    H144318   0.050   2.855   4.768 -0.7188 -0.6265 -0.3719
 7609TIP3    H244319   0.097   2.844   4.911 -0.4228  1.3646 -0.3063
 7610TIP3   OH244320   0.178   6.654  12.284 -0.5265 -0.0733 -0.5877
 7610TIP3    H144321   0.215   6.623  12.366 -1.0090 -3.8807 -1.6955
 7610TIP3    H244322   0.184   6.749  12.289  4.8066 -0.3409  1.3408
 7611TIP3   OH244323   6.031   2.434   3.589  0.4167 -0.3481  0.2569
 7611TIP3    H144324   6.035   2.442   3.685 -4.8075  0.4575  0.5757
 7611TIP3    H244325   6.075   2.512   3.556  2.8903 -0.9689  1.9341
 7612TIP3   OH244326   4.531   3.436   5.432  0.1524 -0.1418 -0.1531
 7612TIP3    H144327   4.608   3.493   5.440 -1.3739  1.9074  0.2951
 7612TIP3    H244328   4.516   3.404   5.521  0.8943 -1.1189 -0.3696
 7613TIP3   OH244329   1.370   3.600   5.470  0.1024  0.3395  0.3110
 7613TIP3    H144330   1.306   3.533   5.447  0.1970  0.5632 -0.6091
 7613TIP3    H244331   1.318   3.681   5.473  0.2913  0.4748 -0.1447
 7614TIP3   OH244332   5.048   6.159  13.469  0.2078 -0.7491 -0.2213
 7614TIP3    H144333   4.985   6.088  13.466 -0.6567  0.0617 -2.3550
 7614TIP3    H244334   5.122   6.128  13.417 -0.3596  0.0812 -1.5318
 7615TIP3   OH244335   5.664   1.516   1.255  0.5325  0.2314  0.0004
 7615TIP3    H144336   5.634   1.571   1.327 -1.2866  3.2446 -2.9658
 7615TIP3    H244337   5.612   1.436   1.262 -2.0711  1.8903  0.0327
 7616TIP3   OH244338   1.575   2.871   0.674  0.0476  0.0830 -0.1956
 7616TIP3    H144339   1.662   2.869   0.714 -1.0198 -0.6656  2.1834
 7616TIP3    H244340   1.557   2.964   0.658  0.2557  0.4540  1.6596
 7617TIP3   OH244341   2.455   3.116   6.084 -0.1133 -0.3539 -0.0886
 7617TIP3    H144342   2.380   3.062   6.111  0.1871 -0.3371  0.7863
 7617TIP3    H244343   2.528   3.083   6.136 -0.1381  1.5645  1.1954
 7618TIP3   OH244344   3.234   4.726  12.321  0.0797 -0.0046 -0.3514
 7618TIP3    H144345   3.257   4.680  12.401 -1.1472 -1.3526 -0.7561
 7618TIP3    H244346   3.163   4.674  12.283 -0.1819  1.2946 -1.6788
 7619TIP3   OH244347   5.435   5.205  16.795  0.6418 -0.4097 -0.0122
 7619TIP3    H144348   5.425   5.145  16.869 -2.3293  1.0289  0.7897
 7619TIP3    H244349   5.518   5.249  16.811  0.5426 -0.8818  1.8990
 7620TIP3   OH244350   1.299   0.551   2.337  0.2741  0.4242 -0.1385
 7620TIP3    H144351   1.290   0.498   2.417  0.5982 -0.0084 -0.3892
 7620TIP3    H244352   1.338   0.633   2.367  1.9044 -0.3518 -0.0844
 7621TIP3   OH244353   3.511   1.180   3.419  0.4250 -0.0238  0.0414
 7621TIP3    H144354   3.601   1.212   3.408 -0.0684  1.0313 -1.0753
 7621TIP3    H244355   3.520   1.086   3.432  1.7906  0.2902  1.4443
 7622TIP3   OH244356   4.449   2.870  11.992 -0.0329 -0.5037  0.4959
 7622TIP3    H144357   4.470   2.963  12.005 -0.8903  0.1164 -2.2511
 7622TIP3    H244358   4.372   2.856  12.047  0.2596  0.3325  1.1456
 7623TIP3   OH244359   1.362   3.299  13.867 -0.5534 -0.3329  0.0003
 7623TIP3    H144360   1.329   3.330  13.951 -0.1452 -0.3336  0.1611
 7623TIP3    H244361   1.321   3.356  13.802  0.8902  1.1265  0.3551
 7624TIP3   OH244362   4.527   3.318  16.931  0.4586 -0.0994 -0.4263
 7624TIP3    H144363   4.519   3.243  16.872  2.6499  0.6464 -1.7353
 7624TIP3    H244364   4.446   3.367  16.919  0.5159 -0.4132 -2.2192
 7625TIP3   OH244365   0.022   6.017  13.100 -0.1117 -0.0427 -0.1303
 7625TIP3    H144366  -0.067   6.009  13.067 -0.1504  3.7920 -1.1676
 7625TIP3    H244367   0.077   6.015  13.022  0.6044 -0.5614  0.3763
 7626TIP3   OH244368   0.434   2.690  16.536  0.0505 -0.5481  0.0468
 7626TIP3    H144369   0.410   2.603  16.566  0.0053 -0.7755 -0.6387
 7626TIP3    H244370   0.389   2.700  16.453 -1.1912  0.7407  0.8555
 7627TIP3   OH244371   3.865   4.748   4.246 -0.0543 -0.4995 -0.1652
 7627TIP3    H144372   3.873   4.835   4.286 -0.5203 -0.5734  0.0922
 7627TIP3    H244373   3.792   4.757   4.184 -0.4170 -0.8356  0.2105
 7628TIP3   OH244374   3.854   2.102  15.517  0.6674  0.1530 -0.0608
 7628TIP3    H144375   3.774   2.152  15.496  1.2720  1.1411 -0.0702
 7628TIP3    H244376   3.916   2.127  15.448  1.3711  0.3343  0.6276
 7629TIP3   OH244377   6.072   4.015  14.454 -0.0304  0.3500  0.5343
 7629TIP3    H144378   6.021   3.972  14.385  0.0035 -1.4771  1.6434
 7629TIP3    H244379   6.009   4.074  14.496 -0.3956  0.4658 -0.1618
 7630TIP3   OH244380   3.644   5.850  12.005 -0.8994 -0.1211  0.5232
 7630TIP3    H144381   3.729   5.816  12.034 -1.5289 -2.3945 -0.2479
 7630TIP3    H244382   3.666   5.923  11.946  0.5085 -0.5696  0.4840
 7631TIP3   OH244383   6.516   6.405  10.944 -0.1231  0.7281  0.3588
 7631TIP3    H144384   6.480   6.445  10.865 -0.0478  0.1622  0.0366
 7631TIP3    H244385   6.523   6.478  11.006  0.4440  1.3043 -0.3698
 7632TIP3   OH244386   0.408   4.730   4.963  0.0584  0.2605  0.0008
 7632TIP3    H144387   0.324   4.749   5.006  0.2252  0.4007  0.2639
 7632TIP3    H244388   0.447   4.816   4.948  1.3307  0.1164  2.2183
 7633TIP3   OH244389   6.695   0.580  11.904  0.1087 -0.4012  0.5397
 7633TIP3    H144390   6.628   0.597  11.837  0.3357 -0.4543  0.2968
 7633TIP3    H244391   6.645   0.563  11.984 -0.1658 -0.2888  0.3944
 7634TIP3   OH244392   1.109   5.891   0.823  0.2068  0.3758  0.2825
 7634TIP3    H144393   1.127   5.816   0.766 -3.3036 -0.6156  0.3627
 7634TIP3    H244394   1.047   5.944   0.773  0.8374  2.0359  1.2173
 7635TIP3   OH244395   3.419   3.180  14.348 -0.3893 -0.2164  0.3615
 7635TIP3    H144396   3.414   3.260  14.400  2.7342 -0.6259  1.4412
 7635TIP3    H244397   3.458   3.208  14.265 -1.4001 -0.2520 -0.1267
 7636TIP3   OH244398   4.696   6.437  15.196 -0.9560 -0.2889 -0.2202
 7636TIP3    H144399   4.732   6.362  15.243 -0.0096 -0.9542 -1.9648
 7636TIP3    H244400   4.767   6.464  15.137 -2.0946  0.5621 -1.2092
 7637TIP3   OH244401   3.231   4.622   2.027 -0.4208 -0.1348  0.0186
 7637TIP3    H144402   3.296   4.622   2.097 -1.1061 -0.7211  0.6582
 7637TIP3    H244403   3.234   4.712   1.993  0.0188  0.1151  0.6972
 7638TIP3   OH244404   4.998   4.940  10.559  0.3720  0.2398 -0.9013
 7638TIP3    H144405   5.007   5.024  10.605  0.2400  0.0731 -0.5697
 7638TIP3    H244406   4.904   4.931  10.544  0.5356  1.0118 -2.5554
 7639TIP3   OH244407   6.166   0.369   1.039  0.1471  0.0778  0.2976
 7639TIP3    H144408   6.156   0.350   1.132  0.9995  0.3516  0.4479
 7639TIP3    H244409   6.090   0.424   1.018  1.5063  2.4998  1.5287
 7640TIP3   OH244410   4.783   3.592   5.260  0.8968  0.9905 -0.0328
 7640TIP3    H144411   4.814   3.550   5.340  0.8251 -1.2130 -1.1469
 7640TIP3    H244412   4.856   3.584   5.199  0.5109  1.6054 -0.5883
 7641TIP3   OH244413   3.701   6.288   2.970  0.0866  0.4438  0.1911
 7641TIP3    H144414   3.758   6.355   2.931 -1.2005  0.0554 -2.4443
 7641TIP3    H244415   3.750   6.207   2.961 -0.3747  0.2910 -1.0301
 7642TIP3   OH244416   1.024   0.833  17.272  0.3310 -0.1626  0.6903
 7642TIP3    H144417   0.974   0.759  17.305  1.6827 -1.5369 -0.2563
 7642TIP3    H244418   1.061   0.874  17.350 -0.5119 -0.4166  1.2317
 7643TIP3   OH244419   0.418   1.868   0.740  0.1980  0.2501  0.5922
 7643TIP3    H144420   0.499   1.858   0.689 -0.9442  0.2092 -1.2513
 7643TIP3    H244421   0.382   1.952   0.712 -1.0661 -0.3414  0.4139
 7644TIP3   OH244422   6.589   3.747  16.200 -0.4565 -0.5679 -0.1729
 7644TIP3    H144423   6.667   3.745  16.145  0.1541 -0.8320  0.6912
 7644TIP3    H244424   6.616   3.706  16.282 -1.1744  0.3893  0.5640
 7645TIP3   OH244425   0.210   4.287   1.731  0.1609 -0.3777  0.3418
 7645TIP3    H144426   0.202   4.283   1.636 -0.6334 -1.8885  0.4546
 7645TIP3    H244427   0.154   4.216   1.763  0.5840 -0.0206  1.9260
 7646TIP3   OH244428   6.105   0.925  15.218 -0.1440 -0.4093 -0.8224
 7646TIP3    H144429   6.050   0.850  15.241  0.3025 -0.4432  0.1561
 7646TIP3    H244430   6.075   0.995  15.276  0.4763 -0.2709 -0.6654
 7647TIP3   OH244431   6.077   4.757   2.414 -0.4212  0.5514 -0.1417
 7647TIP3    H144432   5.990   4.781   2.446  0.0308  0.7997  0.9235
 7647TIP3    H244433   6.071   4.664   2.393 -0.8182  0.4597  0.3742
 7648TIP3   OH244434   0.242   3.582  16.733  0.3029  0.1577 -0.3837
 7648TIP3    H144435   0.277   3.515  16.791  0.8442  0.5945 -0.1917
 7648TIP3    H244436   0.219   3.655  16.791 -2.3364 -0.6749 -0.3338
 7649TIP3   OH244437   3.429   2.518  13.241 -0.3552  0.0815 -0.1507
 7649TIP3    H144438   3.440   2.429  13.209  0.0088 -0.2118  0.7684
 7649TIP3    H244439   3.409   2.570  13.163  2.4294 -0.2738 -1.1748
 7650TIP3   OH244440   4.435   1.995  16.622 -0.0098  0.1083 -0.1939
 7650TIP3    H144441   4.367   1.991  16.689 -1.4037  0.1260 -1.5836
 7650TIP3    H244442   4.462   1.904  16.610 -0.4517 -0.0097 -0.3036
 7651TIP3   OH244443   5.285   6.235  14.476  0.3566 -1.1854  0.3319
 7651TIP3    H144444   5.262   6.155  14.524  0.2988 -0.5194  1.4073
 7651TIP3    H244445   5.329   6.203  14.397  0.1334 -2.2924  0.6480
 7652TIP3   OH244446   2.003   3.273  16.943 -0.2797 -0.4775 -0.7100
 7652TIP3    H144447   2.056   3.210  16.992 -2.6327 -1.7267  0.3265
 7652TIP3    H244448   2.020   3.251  16.851  1.1611 -0.6842 -0.4137
 7653TIP3   OH244449   2.920   6.686   1.292  0.2757 -0.0649  0.7194
 7653TIP3    H144450   2.886   6.765   1.251 -1.1925 -0.4866  1.1019
 7653TIP3    H244451   2.913   6.618   1.225  2.4825  0.3298  0.0500
 7654TIP3   OH244452   6.337   2.359   1.778 -0.1392 -0.5057 -0.0627
 7654TIP3    H144453   6.428   2.387   1.792  0.2332 -1.8406  0.2505
 7654TIP3    H244454   6.329   2.348   1.683 -0.0681 -0.1094 -0.1174
 7655TIP3   OH244455   0.183   1.353   0.097  0.0600  0.1207  0.9892
 7655TIP3    H144456   0.123   1.295   0.050  0.0270  0.7855  0.2070
 7655TIP3    H244457   0.188   1.432   0.043  0.5242  0.6377  1.7745
 7656TIP3   OH244458   6.772   0.614   6.118  0.2945 -0.1375  0.4063
 7656TIP3    H144459   6.757   0.670   6.194 -0.9465 -0.4930  0.4316
 7656TIP3    H244460   6.809   0.533   6.155  1.0828  0.2405  0.4715
 7657TIP3   OH244461   6.547   5.523   2.346  0.2752 -0.1338 -0.7607
 7657TIP3    H144462   6.539   5.544   2.253 -0.3791 -0.5237 -0.7977
 7657TIP3    H244463   6.531   5.607   2.390 -0.8061 -0.2214 -0.9593
 7658TIP3   OH244464   1.608   4.882  16.545 -0.4140 -0.6605 -0.3443
 7658TIP3    H144465   1.542   4.945  16.575  2.4659  1.1280  2.5247
 7658TIP3    H244466   1.632   4.914  16.458  0.0435  1.4983  0.5229
 7659TIP3   OH244467   6.043   4.172   2.580  0.0955 -0.0371  0.4248
 7659TIP3    H144468   6.020   4.244   2.638 -0.5799  1.3909 -1.5779
 7659TIP3    H244469   5.978   4.105   2.598 -0.6895  0.7785  0.6329
 7660TIP3   OH244470   4.998   1.733  14.411 -1.0388 -0.3022 -0.1314
 7660TIP3    H144471   5.050   1.802  14.450 -0.4339 -0.8338  0.0033
 7660TIP3    H244472   4.915   1.735  14.459 -0.3563 -0.8456  1.0784
 7661TIP3   OH244473   4.436   1.578  12.352  0.5631  0.5011 -0.7801
 7661TIP3    H144474   4.434   1.550  12.261  0.6738 -0.5077 -0.4845
 7661TIP3    H244475   4.433   1.496  12.402  1.1309  1.0145  0.1111
 7662TIP3   OH244476   0.435   4.034   2.205 -0.4865 -0.0668 -0.5198
 7662TIP3    H144477   0.414   3.944   2.178  0.1874 -0.9675  1.8652
 7662TIP3    H244478   0.456   4.079   2.123  0.0399 -2.3065 -1.6637
 7663TIP3   OH244479   1.125   6.442   1.873  0.2618  0.2761  0.2683
 7663TIP3    H144480   1.138   6.361   1.923 -1.3327 -0.8396 -1.0398
 7663TIP3    H244481   1.040   6.474   1.901  0.3350  0.8205 -0.1229
 7664TIP3   OH244482   6.386   2.358  10.776 -0.3501  0.2563  0.0042
 7664TIP3    H144483   6.346   2.273  10.791 -0.2956  0.2566  0.1555
 7664TIP3    H244484   6.413   2.387  10.863 -0.9246  0.7045  0.0323
 7665TIP3   OH244485   5.175   1.211  15.011  0.4152 -0.2667 -0.1924
 7665TIP3    H144486   5.193   1.292  14.963 -0.0558  0.3357  0.6462
 7665TIP3    H244487   5.216   1.224  15.096  1.2764 -1.3543 -0.4313
 7666TIP3   OH244488   4.733   6.108  13.416 -0.3854  0.0549  0.3857
 7666TIP3    H144489   4.640   6.120  13.398 -0.6680  0.0352  1.7385
 7666TIP3    H244490   4.777   6.172  13.360 -1.2893  0.8286  0.5418
 7667TIP3   OH244491   6.000   4.335   3.939 -0.2914  0.0248  0.2185
 7667TIP3    H144492   6.047   4.358   4.020  0.4234  0.0069 -0.1866
 7667TIP3    H244493   5.927   4.282   3.969 -0.7090  1.0072  0.9669
 7668TIP3   OH244494   3.355   4.220   5.785  0.7644 -0.0817  0.0592
 7668TIP3    H144495   3.359   4.127   5.804 -2.5136 -0.3435 -0.2248
 7668TIP3    H244496   3.346   4.225   5.690  0.1842  0.4646  0.1360
 7669TIP3   OH244497   4.662   2.971   1.382  0.0558 -0.0126 -0.3565
 7669TIP3    H144498   4.593   2.905   1.390 -0.6736  0.8797  0.8366
 7669TIP3    H244499   4.661   2.996   1.290  0.1280 -1.4247 -0.7624
 7670TIP3   OH244500   0.940   5.063  16.822 -0.4620 -0.4694  0.5671
 7670TIP3    H144501   0.907   4.984  16.866 -1.2135 -0.1820  0.5198
 7670TIP3    H244502   0.862   5.115  16.804 -0.0660 -0.1714 -0.3068
 7671TIP3   OH244503   2.394   2.836   1.967 -0.0457  0.0878  0.5915
 7671TIP3    H144504   2.484   2.855   1.940  0.0752  0.4867  1.2784
 7671TIP3    H244505   2.340   2.867   1.894  0.3129  0.7677  0.6092
 7672TIP3   OH244506   1.029   4.635   4.487  0.0835  0.1071 -0.5657
 7672TIP3    H144507   1.112   4.593   4.508 -0.0132 -0.2790 -0.9553
 7672TIP3    H244508   0.969   4.563   4.471 -0.7474  0.3688  1.2928
 7673TIP3   OH244509   0.152   4.649   0.770 -0.3840  0.0781 -0.0856
 7673TIP3    H144510   0.174   4.739   0.794 -1.1664  0.3667 -0.4218
 7673TIP3    H244511   0.236   4.607   0.754  0.0135  0.6041  0.5989
 7674TIP3   OH244512   4.394   4.064  15.891 -0.3049  0.5664 -0.0672
 7674TIP3    H144513   4.331   4.047  15.821 -1.5659  2.0290  0.6809
 7674TIP3    H244514   4.410   4.159  15.886  3.0621  0.0149 -1.2643
 7675TIP3   OH244515   2.794   3.401   5.249  0.1078  0.4617  0.3943
 7675TIP3    H144516   2.852   3.426   5.176  0.8850 -0.3908  0.7096
 7675TIP3    H244517   2.724   3.352   5.207  1.2086 -1.0968  0.3511
 7676TIP3   OH244518   5.983   0.737  16.728 -0.1058 -0.4325 -0.2600
 7676TIP3    H144519   5.894   0.767  16.747 -0.3426 -0.9893 -0.4724
 7676TIP3    H244520   6.037   0.816  16.733 -0.8738  0.2066 -1.7870
 7677TIP3   OH244521   2.771   2.998   4.308  0.0840  0.0510  0.5946
 7677TIP3    H144522   2.682   3.021   4.282  0.5490 -1.5530 -2.7166
 7677TIP3    H244523   2.761   2.925   4.369 -0.8528 -0.1872  0.1561
 7678TIP3   OH244524   2.037   1.242   0.183 -0.3239  0.0271 -0.2306
 7678TIP3    H144525   2.021   1.169   0.243 -0.2936 -0.3224 -0.6449
 7678TIP3    H244526   2.132   1.253   0.183 -0.3686  0.4432  0.2718
 7679TIP3   OH244527   1.291   6.644   0.474 -0.2708  0.0157 -0.5892
 7679TIP3    H144528   1.262   6.611   0.559  0.3910 -0.1877 -0.4385
 7679TIP3    H244529   1.254   6.732   0.468 -0.3450  0.0167 -0.1097
 7680TIP3   OH244530   4.778   2.705  16.524  0.5031 -0.4084 -0.4611
 7680TIP3    H144531   4.756   2.661  16.442  1.2707  0.3026 -1.0647
 7680TIP3    H244532   4.811   2.791  16.497 -2.4714  1.1811  0.7636
 7681TIP3   OH244533   1.204   1.819   4.247 -0.0047 -0.0931 -0.2853
 7681TIP3    H144534   1.281   1.763   4.237 -0.9629 -1.3855 -0.6827
 7681TIP3    H244535   1.138   1.777   4.192 -1.5576 -0.0964  1.5434
 7682TIP3   OH244536   4.986   6.621  12.948  0.6527 -0.1260  0.5848
 7682TIP3    H144537   4.969   6.683  13.019  0.8019 -0.0104  0.5201
 7682TIP3    H244538   4.919   6.554  12.958  0.7746 -0.1993  0.9369
 7683TIP3   OH244539   3.717   4.519  12.328 -0.2618 -0.4628 -0.1535
 7683TIP3    H144540   3.710   4.615  12.333  0.9968 -0.3217 -0.8470
 7683TIP3    H244541   3.777   4.496  12.399 -0.8288 -0.7730  0.2251
 7684TIP3   OH244542   6.144   0.373   0.208  0.2596 -0.3809  0.0706
 7684TIP3    H144543   6.126   0.342   0.296  1.0796  0.4345  0.5422
 7684TIP3    H244544   6.148   0.468   0.216 -0.5468 -0.2475 -1.0188
 7685TIP3   OH244545   6.289   0.114  16.763  0.1295 -0.6603  0.0343
 7685TIP3    H144546   6.308   0.045  16.826 -0.7967 -0.3476  0.6756
 7685TIP3    H244547   6.213   0.160  16.800  0.0926  0.0463 -0.8952
 7686TIP3   OH244548   3.423   6.778  16.765  0.4975  0.0001 -0.2371
 7686TIP3    H144549   3.393   6.756  16.677  3.3303 -0.3810 -1.1569
 7686TIP3    H244550   3.364   6.729  16.823 -0.6640 -0.6798 -1.9383
 7687TIP3   OH244551   5.937   1.083   1.355  0.7811  0.0937 -0.6362
 7687TIP3    H144552   5.932   0.990   1.334  2.6079 -0.1648 -0.0340
 7687TIP3    H244553   5.846   1.112   1.357  0.0616 -2.1315  1.1688
 7688TIP3   OH244554   0.633   5.376   1.960 -0.7919  0.1139 -0.2391
 7688TIP3    H144555   0.574   5.441   1.922 -1.1154  0.0718  0.1911
 7688TIP3    H244556   0.575   5.311   2.000 -0.5253 -1.3244 -2.0927
 7689TIP3   OH244557   2.322   0.140   4.855  0.1503  0.3326 -0.0734
 7689TIP3    H144558   2.406   0.179   4.879  0.4816  0.3097 -1.1976
 7689TIP3    H244559   2.322   0.137   4.760  0.2404 -2.6373 -0.0463
 7690TIP3   OH244560   1.529   4.152  12.379 -0.3035  0.3899 -0.2187
 7690TIP3    H144561   1.589   4.208  12.430  0.9233  0.6766 -1.9356
 7690TIP3    H244562   1.483   4.213  12.322  0.9489 -0.3036 -2.0090
 7691TIP3   OH244563   6.010   2.553   3.233  0.5078  0.1360 -0.1645
 7691TIP3    H144564   6.078   2.584   3.294 -0.1714 -2.7455  2.1786
 7691TIP3    H244565   5.931   2.600   3.260  0.7041  0.5085 -0.2423
 7692TIP3   OH244566   3.197   6.006  15.260  0.1100 -0.4137  0.2054
 7692TIP3    H144567   3.153   6.074  15.311 -1.7666 -1.2076 -0.3008
 7692TIP3    H244568   3.182   6.031  15.169  2.2664  0.2551 -0.0015
 7693TIP3   OH244569   6.599   0.251   0.473 -0.0445  0.4093  0.4345
 7693TIP3    H144570   6.532   0.190   0.442 -0.0013 -0.0209  1.1661
 7693TIP3    H244571   6.552   0.309   0.534 -0.0565  1.0209 -0.1487
 7694TIP3   OH244572   5.149   6.510  13.736  0.1835 -0.2290 -0.1838
 7694TIP3    H144573   5.129   6.591  13.688 -0.3979  0.4007  1.1134
 7694TIP3    H244574   5.107   6.441  13.684 -3.5152  0.8110  1.2443
 7695TIP3   OH244575   1.992   4.228   3.964  0.4202 -0.1926  0.1024
 7695TIP3    H144576   1.934   4.247   3.891  0.2636  1.1286  0.5586
 7695TIP3    H244577   1.978   4.300   4.025  1.8431 -0.3616  0.6411
 7696TIP3   OH244578   5.610   0.268   5.833 -0.3994 -0.2465 -0.4627
 7696TIP3    H144579   5.650   0.327   5.897  0.4295  0.5971 -1.7399
 7696TIP3    H244580   5.543   0.221   5.882 -0.2337  0.8786  0.8593
 7697TIP3   OH244581   2.774   4.705  15.540 -0.1638  0.5242  0.4796
 7697TIP3    H144582   2.801   4.771  15.476  0.3485 -0.7116 -0.6028
 7697TIP3    H244583   2.780   4.622  15.493 -5.2321  0.0489  0.3012
 7698TIP3   OH244584   1.179   2.965   0.013  0.5136  0.0463  0.1496
 7698TIP3    H144585   1.166   3.028   0.084  0.2616  0.6133 -0.3918
 7698TIP3    H244586   1.152   3.012  -0.066  0.9505 -0.5213 -0.3431
 7699TIP3   OH244587   2.333   6.689  12.245 -0.2446 -0.0171  0.6699
 7699TIP3    H144588   2.422   6.722  12.236 -0.2888 -0.2199 -0.5629
 7699TIP3    H244589   2.326   6.663  12.337  0.1904  2.1959  1.3568
 7700TIP3   OH244590   3.068   1.959   0.388  0.5546  0.3837 -0.2281
 7700TIP3    H144591   3.119   2.036   0.413  0.6336 -0.1984  1.4724
 7700TIP3    H244592   2.979   1.992   0.373  0.9049  1.0243 -0.9070
 7701TIP3   OH244593   6.706   6.688  11.077  0.1069 -0.1208 -1.0380
 7701TIP3    H144594   6.799   6.674  11.094 -0.2817 -1.7195 -0.1639
 7701TIP3    H244595   6.697   6.676  10.982  0.5919 -1.0741 -0.9635
 7702TIP3   OH244596   2.271   5.403   5.127  0.2023  0.2599  0.5889
 7702TIP3    H144597   2.342   5.413   5.064  1.6611 -0.8079  2.0328
 7702TIP3    H244598   2.193   5.433   5.079  1.4115  0.3641 -1.3971
 7703TIP3   OH244599   4.203   0.167   4.046 -0.7238 -0.2124 -0.0986
 7703TIP3    H144600   4.256   0.110   3.990  0.7384  2.1319 -1.1901
 7703TIP3    H244601   4.147   0.214   3.985  0.0161  1.4824  0.4925
 7704TIP3   OH244602   6.501   1.678  12.610 -0.4531  0.3526 -0.3603
 7704TIP3    H144603   6.542   1.591  12.608 -0.8639  0.1146  1.0288
 7704TIP3    H244604   6.423   1.666  12.663 -1.8998  1.0045 -2.2806
 7705TIP3   OH244605   0.495   4.757   4.205 -0.1781 -0.3703 -0.0327
 7705TIP3    H144606   0.467   4.755   4.114  0.6923  1.6157 -0.3706
 7705TIP3    H244607   0.414   4.757   4.256 -0.6526 -2.0236 -0.7783
 7706TIP3   OH244608   2.795   4.959  10.864  0.0686  0.1487 -0.2043
 7706TIP3    H144609   2.865   4.914  10.912 -0.1498  0.1442  0.1085
 7706TIP3    H244610   2.799   4.922  10.776  1.2341  0.9836 -0.5195
 7707TIP3   OH244611   2.069   3.168  14.711 -0.3471 -0.1902 -0.3091
 7707TIP3    H144612   2.133   3.199  14.647  1.4142  0.1963  1.6018
 7707TIP3    H244613   2.019   3.246  14.735  0.0299 -0.0356 -0.0371
 7708TIP3   OH244614   1.694   6.452  15.030 -0.1803  0.0270 -0.0868
 7708TIP3    H144615   1.706   6.538  14.989 -3.4937  1.3022  1.4982
 7708TIP3    H244616   1.748   6.455  15.109 -0.3993  0.7208  0.0393
 7709TIP3   OH244617   3.259   2.349  13.825 -0.1017 -0.1788 -0.1439
 7709TIP3    H144618   3.350   2.350  13.854 -0.3950 -0.6431  0.8212
 7709TIP3    H244619   3.260   2.395  13.741  0.8299  0.9271  0.4475
 7710TIP3   OH244620   0.104   4.427  17.111  0.8291 -0.5485  1.1648
 7710TIP3    H144621   0.013   4.454  17.125  0.6380 -0.1116 -0.8735
 7710TIP3    H244622   0.109   4.340  17.151 -0.3140 -0.3136  1.8403
 7711TIP3   OH244623   1.550   6.149   4.647  0.2732 -0.1388  0.1929
 7711TIP3    H144624   1.523   6.241   4.643 -1.7564 -0.6773  1.0243
 7711TIP3    H244625   1.509   6.109   4.571  1.8973 -0.1799 -0.6697
 7712TIP3   OH244626   0.997   4.729   2.208 -0.1386  0.2023 -0.5219
 7712TIP3    H144627   1.064   4.770   2.153 -1.0868  1.9148 -0.4495
 7712TIP3    H244628   0.983   4.792   2.279  0.1954 -1.4333  1.0302
 7713TIP3   OH244629   0.464   3.484   2.241 -0.1172 -0.0514 -0.1728
 7713TIP3    H144630   0.479   3.441   2.325 -0.4355  1.6731  0.7854
 7713TIP3    H244631   0.384   3.443   2.207  0.6555 -1.5751 -0.1989
 7714TIP3   OH244632   2.883   4.799   2.821 -0.0724  0.2213  0.4045
 7714TIP3    H144633   2.943   4.735   2.859 -0.2262 -0.6576 -0.8307
 7714TIP3    H244634   2.855   4.760   2.738 -1.0667  1.3660  0.1925
 7715TIP3   OH244635   6.183   2.294   4.248  0.2930 -0.3610 -0.2948
 7715TIP3    H144636   6.205   2.318   4.338 -0.1819  1.4209 -0.6253
 7715TIP3    H244637   6.173   2.199   4.250 -0.2424 -0.2922  1.6590
 7716TIP3   OH244638   6.045   2.459  12.692 -0.2630  0.4793  0.6677
 7716TIP3    H144639   6.034   2.367  12.668 -1.2473  1.2914 -2.1956
 7716TIP3    H244640   5.982   2.473  12.763 -0.3454 -0.9703  0.8834
 7717TIP3   OH244641   1.278   2.657  15.822 -0.0940  0.3009  0.5879
 7717TIP3    H144642   1.217   2.588  15.849 -2.8571  2.0274 -1.0605
 7717TIP3    H244643   1.232   2.739  15.842  1.6349  1.6530 -0.8129
 7718TIP3   OH244644   6.479   6.658   4.724 -0.1899  0.2004 -0.3037
 7718TIP3    H144645   6.567   6.693   4.738 -0.7200  1.3738  0.1878
 7718TIP3    H244646   6.475   6.581   4.780  0.2555  0.6196  0.3238
 7719TIP3   OH244647   0.707   0.704   3.256  0.6294  0.0699  0.0865
 7719TIP3    H144648   0.650   0.775   3.229  1.9947  0.7930 -0.9659
 7719TIP3    H244649   0.700   0.702   3.351 -1.6408 -0.2945 -0.0644
 7720TIP3   OH244650   3.491   6.688   4.226  0.3793 -0.5200  0.7186
 7720TIP3    H144651   3.503   6.706   4.133  0.0824  0.6342  0.8940
 7720TIP3    H244652   3.430   6.615   4.229 -1.9099  1.3032  0.0368
 7721TIP3   OH244653   2.305   2.851   6.041  0.6007  0.2118 -0.5840
 7721TIP3    H144654   2.246   2.898   6.099  1.2266  1.0053 -0.5873
 7721TIP3    H244655   2.247   2.792   5.992 -0.1360  0.6894 -0.3075
 7722TIP3   OH244656   4.380   3.310  12.357  0.1245 -0.5871  0.3860
 7722TIP3    H144657   4.465   3.353  12.351  0.1984 -0.7633  0.1575
 7722TIP3    H244658   4.326   3.370  12.408  0.1124 -0.0453 -0.2521
 7723TIP3   OH244659   6.532   3.623   0.648 -0.5363  0.2776 -0.4101
 7723TIP3    H144660   6.578   3.557   0.700 -1.6689 -0.2304 -0.0223
 7723TIP3    H244661   6.484   3.573   0.582  0.4555  0.8845 -1.6250
 7724TIP3   OH244662   4.791   2.403  16.998 -0.4269 -0.3955 -0.6640
 7724TIP3    H144663   4.851   2.329  17.000  0.2833  0.1864 -0.0992
 7724TIP3    H244664   4.787   2.429  16.906 -0.1549 -0.7039 -0.7624
 7725TIP3   OH244665   2.442   3.237  12.613 -0.0186  0.1369 -0.5006
 7725TIP3    H144666   2.536   3.241  12.628 -0.0183 -0.6902 -0.2261
 7725TIP3    H244667   2.408   3.319  12.648  0.5123  0.1271  0.0503
 7726TIP3   OH244668   0.402   0.883  14.565  0.0217  0.2086  0.2042
 7726TIP3    H144669   0.430   0.959  14.616 -0.3776  0.0145  0.7108
 7726TIP3    H244670   0.401   0.810  14.628 -0.1173 -0.1065 -0.1578
 7727TIP3   OH244671   2.321   4.989   3.373 -0.0809 -0.3181 -0.4792
 7727TIP3    H144672   2.387   5.037   3.323 -0.5189  0.9711  0.1855
 7727TIP3    H244673   2.371   4.944   3.441  0.2368 -0.2222 -0.6481
 7728TIP3   OH244674   4.256   3.195   4.831 -0.2313 -0.2251  0.0614
 7728TIP3    H144675   4.202   3.129   4.873 -1.8406 -0.7324 -2.7571
 7728TIP3    H244676   4.195   3.263   4.803  0.8576  0.3272 -1.0532
 7729TIP3   OH244677   4.805   6.239  14.925  0.0820 -0.2120  0.1081
 7729TIP3    H144678   4.830   6.330  14.940  0.2455 -0.5195  1.8485
 7729TIP3    H244679   4.886   6.196  14.897 -0.4173  0.5614 -2.6245
 7730TIP3   OH244680   6.322   5.642  13.172  0.0757  0.4323 -0.5281
 7730TIP3    H144681   6.242   5.654  13.222  1.0536  3.1644  0.4892
 7730TIP3    H244682   6.378   5.588  13.228 -0.7167 -0.7801 -0.8891
 7731TIP3   OH244683   5.091   3.773  13.051  0.1711 -0.0957 -0.1180
 7731TIP3    H144684   5.036   3.767  12.972 -1.5113  1.1161  0.9255
 7731TIP3    H244685   5.078   3.689  13.095  0.5509 -0.4994 -0.7678
 7732TIP3   OH244686   4.403   0.147  17.263  0.1860 -0.2395  1.2836
 7732TIP3    H144687   4.424   0.054  17.260 -1.8573 -0.7076  0.1033
 7732TIP3    H244688   4.373   0.168  17.174  1.4192  1.7517  1.3019
 7733TIP3   OH244689   1.152   2.660  12.344 -0.4420  0.2673  0.1615
 7733TIP3    H144690   1.120   2.672  12.434  3.1710 -1.2263  1.7430
 7733TIP3    H244691   1.179   2.747  12.316 -0.7235  0.5796  0.8528
 7734TIP3   OH244692   6.347   0.630   4.988 -0.4210  0.0369  0.1934
 7734TIP3    H144693   6.354   0.536   4.973  0.2863 -0.0238  0.8999
 7734TIP3    H244694   6.343   0.640   5.083  1.8574  0.8434  0.2584
 7735TIP3   OH244695   3.387   0.659   4.492  0.4098  0.0641 -0.2217
 7735TIP3    H144696   3.372   0.565   4.496 -0.6544  0.2375  0.0737
 7735TIP3    H244697   3.454   0.676   4.558 -1.3345 -0.1237  1.6322
 7736TIP3   OH244698   5.202   2.930   1.707  0.0658  0.1426 -0.6903
 7736TIP3    H144699   5.256   2.947   1.630  2.0767 -0.8427  0.4708
 7736TIP3    H244700   5.187   3.016   1.746  1.1764  0.3951 -0.8019
 7737TIP3   OH244701   2.085   2.417  13.243 -0.5338  0.6972 -0.4619
 7737TIP3    H144702   2.040   2.381  13.167 -0.7322 -1.1881  0.5337
 7737TIP3    H244703   2.171   2.375  13.242 -1.0159 -0.3377  1.1015
 7738TIP3   OH244704   5.195   5.704  14.727  0.7358  0.0659 -0.3984
 7738TIP3    H144705   5.105   5.734  14.738  1.0234  0.7992 -0.0605
 7738TIP3    H244706   5.200   5.676  14.635 -0.1872 -1.1648 -0.0908
 7739TIP3   OH244707   4.026   1.182  12.679  0.3655 -0.0765  0.1256
 7739TIP3    H144708   4.122   1.185  12.677  0.5086 -2.7450  0.6207
 7739TIP3    H244709   4.004   1.193  12.772  0.0836  2.1051 -0.1772
 7740TIP3   OH244710   6.725   1.987   2.482  0.1920  0.3902  0.9490
 7740TIP3    H144711   6.809   1.987   2.528 -0.4932  0.4533  2.2235
 7740TIP3    H244712   6.679   1.910   2.515  0.3128 -0.4571 -0.8199
 7741TIP3   OH244713   2.364   6.345  14.425  0.3417 -0.2651  0.0341
 7741TIP3    H144714   2.381   6.257  14.392 -0.5847 -0.8483  1.0864
 7741TIP3    H244715   2.448   6.375  14.458  0.8604 -0.3996 -1.1448
 7742TIP3   OH244716   3.851   4.102   5.639  0.4512 -0.9094 -0.3738
 7742TIP3    H144717   3.768   4.118   5.593  0.1399 -1.6188 -0.0640
 7742TIP3    H244718   3.900   4.184   5.630  0.6048 -1.2015 -2.4139
 7743TIP3   OH244719   2.896   6.550  15.125 -0.4245  0.3653  0.3551
 7743TIP3    H144720   2.865   6.635  15.156  1.1583  1.0318  0.1341
 7743TIP3    H244721   2.913   6.563  15.031  0.4011 -0.0098  0.4453
 7744TIP3   OH244722   5.410   1.413   0.965 -0.6471 -0.3015 -0.3770
 7744TIP3    H144723   5.375   1.348   0.905 -0.8057  1.3196 -2.0802
 7744TIP3    H244724   5.334   1.465   0.992 -0.3004  0.0938 -0.1550
 7745TIP3   OH244725   3.996   5.374   1.268  0.2894  0.6429  0.7446
 7745TIP3    H144726   4.076   5.397   1.220  0.4170 -1.4375 -0.1146
 7745TIP3    H244727   3.939   5.334   1.202 -0.5570  0.0628  1.8139
 7746TIP3   OH244728   2.181   2.861   4.458  0.1753 -0.0605  0.0028
 7746TIP3    H144729   2.210   2.942   4.417  1.7769 -0.6985 -0.1471
 7746TIP3    H244730   2.103   2.886   4.509  1.9619  2.0343  1.7760
 7747TIP3   OH244731   1.887   6.294   5.028 -0.3812 -0.6500 -0.4108
 7747TIP3    H144732   1.812   6.238   5.007  1.2701 -3.3611  0.6982
 7747TIP3    H244733   1.936   6.301   4.946  0.3809 -2.3702 -0.1096
 7748TIP3   OH244734   2.695   2.459   3.679  0.3500  0.6837  0.4644
 7748TIP3    H144735   2.686   2.475   3.585  1.1248  1.4816  0.5209
 7748TIP3    H244736   2.709   2.545   3.717 -0.0472  0.3752  1.3318
 7749TIP3   OH244737   6.393   3.049  12.374 -0.0558  0.5716  0.6747
 7749TIP3    H144738   6.489   3.055  12.371  0.1096 -1.8105  0.0040
 7749TIP3    H244739   6.368   3.096  12.453  1.7584  0.4297  1.3510
 7750TIP3   OH244740   0.586   2.383  11.809 -0.3146  0.4500 -0.6761
 7750TIP3    H144741   0.538   2.443  11.865 -0.8437 -0.3440 -0.2598
 7750TIP3    H244742   0.552   2.400  11.721 -0.2517  0.9575 -0.6030
 7751TIP3   OH244743   1.213   0.555  14.359  0.2999  0.5579 -0.0676
 7751TIP3    H144744   1.169   0.586  14.438  1.6840  0.0428  0.9140
 7751TIP3    H244745   1.304   0.583  14.369  0.8574 -0.9726 -0.6923
 7752TIP3   OH244746   3.904   4.599  14.617 -0.5286 -0.0333  0.6562
 7752TIP3    H144747   3.900   4.695  14.614  2.0113  0.1557  1.9768
 7752TIP3    H244748   3.867   4.571  14.534 -1.0471  2.1071  0.1356
 7753TIP3   OH244749   2.692   3.459  11.538  0.1491  0.6449  0.0001
 7753TIP3    H144750   2.668   3.494  11.452 -0.2172 -2.2669 -1.1354
 7753TIP3    H244751   2.707   3.537  11.592 -2.7672  2.5730 -1.7864
 7754TIP3   OH244752   5.167   3.358  12.129 -0.3337 -0.0674 -0.4061
 7754TIP3    H144753   5.182   3.342  12.036  1.7053 -1.4731  0.1453
 7754TIP3    H244754   5.101   3.428  12.130  1.9031  2.1969 -2.9250
 7755TIP3   OH244755   2.026   4.085   2.703 -0.6769  0.2589 -0.4159
 7755TIP3    H144756   1.970   4.070   2.627  0.8317 -1.4679 -1.2214
 7755TIP3    H244757   2.096   4.142   2.671 -0.6560  0.4543 -0.0288
 7756TIP3   OH244758   1.080   6.286  13.531 -0.3105  0.3961  0.4669
 7756TIP3    H144759   1.084   6.345  13.456  2.3446 -1.1222 -0.6488
 7756TIP3    H244760   1.161   6.302  13.579 -0.7495 -0.5353  1.5537
 7757TIP3   OH244761   3.537   4.402   5.864 -0.6498  0.5557 -0.1896
 7757TIP3    H144762   3.475   4.335   5.834 -1.8577  1.1604  0.9612
 7757TIP3    H244763   3.489   4.453   5.929  1.3388  0.4717  1.3969
 7758TIP3   OH244764   0.121   6.100  14.767  0.6149 -0.2482  0.2671
 7758TIP3    H144765   0.035   6.132  14.739  0.3944 -0.1342  1.0608
 7758TIP3    H244766   0.106   6.009  14.792  0.3732  0.2633  2.0050
 7759TIP3   OH244767   4.517   0.176   4.540  0.4749  0.3210 -0.1709
 7759TIP3    H144768   4.570   0.182   4.460 -0.7460  0.7349 -0.9580
 7759TIP3    H244769   4.429   0.156   4.509  0.3729 -1.5133  1.1997
 7760TIP3   OH244770   1.311   4.193  14.167 -0.1596 -0.2632 -0.3682
 7760TIP3    H144771   1.232   4.230  14.205  2.6429  3.5751  2.1808
 7760TIP3    H244772   1.313   4.225  14.077 -0.2515  1.9235  0.3643
 7761TIP3   OH244773   4.851   0.585   2.614 -0.2926  0.1487  0.2926
 7761TIP3    H144774   4.927   0.643   2.617  0.5315 -0.9364  0.8082
 7761TIP3    H244775   4.859   0.538   2.532 -1.1935  1.0542 -0.3274
 7762TIP3   OH244776   0.570   5.862  11.721 -0.3528 -0.3175  0.0450
 7762TIP3    H144777   0.561   5.789  11.782  0.3342  0.4759  1.1101
 7762TIP3    H244778   0.653   5.904  11.745 -2.2948  2.8115  1.6327
 7763TIP3   OH244779   1.135   2.205   1.115  0.2926  0.6860 -0.2098
 7763TIP3    H144780   1.219   2.178   1.153 -0.6479  0.6365  1.8544
 7763TIP3    H244781   1.079   2.128   1.123 -0.8101  1.5909  1.0067
 7764TIP3   OH244782   2.798   5.421  14.764 -0.3316 -0.0898 -0.0572
 7764TIP3    H144783   2.777   5.360  14.693 -1.0995 -0.7795  0.7516
 7764TIP3    H244784   2.820   5.503  14.719  0.1637 -0.7904 -1.1352
 7765TIP3   OH244785   6.380   4.665   4.900  0.6081  0.0006  0.1800
 7765TIP3    H144786   6.314   4.717   4.854  0.1666 -0.4031  0.3529
 7765TIP3    H244787   6.368   4.686   4.992 -1.1809 -2.2017  0.4949
 7766TIP3   OH244788   6.716   3.850   3.724  0.8238 -0.2141 -0.2202
 7766TIP3    H144789   6.660   3.916   3.684  0.7081 -1.1795 -1.7383
 7766TIP3    H244790   6.787   3.900   3.765  0.5524  0.8778 -1.0414
 7767TIP3   OH244791   3.491   2.051  11.561  0.8459 -0.1794  0.5662
 7767TIP3    H144792   3.416   2.046  11.620  1.2084  0.2137  1.0623
 7767TIP3    H244793   3.521   2.141  11.569  0.1183  0.2508 -1.1780
 7768TIP3   OH244794   2.785   4.376  13.925  0.1334  0.5602 -0.4014
 7768TIP3    H144795   2.724   4.339  13.862 -0.4208 -2.5670  1.8731
 7768TIP3    H244796   2.730   4.401  14.000  1.0335  2.4534 -0.3302
 7769TIP3   OH244797   3.057   1.593   2.455  0.6018  0.7899 -0.2934
 7769TIP3    H144798   2.970   1.575   2.490  0.5798  1.2153 -0.1264
 7769TIP3    H244799   3.106   1.629   2.529  1.2150 -0.3571 -0.1218
 7770TIP3   OH244800   6.177   6.130   1.639  0.4913 -0.5074  0.4806
 7770TIP3    H144801   6.229   6.158   1.564 -2.3737  0.0168 -1.3788
 7770TIP3    H244802   6.142   6.211   1.676 -0.9113 -0.9929  0.2557
 7771TIP3   OH244803   1.552   4.393  14.784 -0.2607 -0.0406  0.3613
 7771TIP3    H144804   1.524   4.410  14.874 -1.6912 -0.5593  0.0210
 7771TIP3    H244805   1.581   4.302  14.784  1.2690  0.4163  0.6524
 7772TIP3   OH244806   4.234   0.434   2.754  0.0668  0.2655 -0.4150
 7772TIP3    H144807   4.230   0.356   2.698 -0.4753 -0.3147  0.4295
 7772TIP3    H244808   4.313   0.421   2.807 -0.2655  0.0766  0.0357
 7773TIP3   OH244809   1.491   3.587   1.441  0.0806 -0.4924 -0.7423
 7773TIP3    H144810   1.424   3.650   1.469 -0.4644 -0.4497 -2.1125
 7773TIP3    H244811   1.570   3.640   1.432  0.0500 -0.3408 -0.1412
 7774TIP3   OH244812   4.864   5.069   5.792  0.3939  0.5568  0.2938
 7774TIP3    H144813   4.887   5.025   5.874 -2.2147 -0.0939  0.6977
 7774TIP3    H244814   4.782   5.028   5.764  1.3907  0.5572 -2.8187
 7775TIP3   OH244815   3.115   5.234   4.152 -0.3021  0.1962 -0.1222
 7775TIP3    H144816   3.034   5.278   4.178  0.3087  0.6477  1.0368
 7775TIP3    H244817   3.177   5.305   4.138  0.1638 -0.2024 -0.0747
 7776TIP3   OH244818   5.160   2.622  15.820 -0.1401  0.5572  0.2838
 7776TIP3    H144819   5.174   2.678  15.743 -0.4415 -1.4064 -1.2377
 7776TIP3    H244820   5.239   2.570  15.826 -1.3078 -1.3618 -0.4910
 7777TIP3   OH244821   0.986   3.034  12.813  0.6940 -0.2018  0.3686
 7777TIP3    H144822   0.991   3.115  12.763 -0.4603 -0.3906 -0.0829
 7777TIP3    H244823   1.058   2.981  12.781 -0.1801 -0.4214 -1.2879
 7778TIP3   OH244824   3.519   5.333   4.475  0.1252 -0.4406  0.0964
 7778TIP3    H144825   3.468   5.414   4.477 -0.5352 -0.8554  0.2709
 7778TIP3    H244826   3.538   5.319   4.383  0.2224 -0.1005  0.0627
 7779TIP3   OH244827   3.103   5.992  10.683  0.4109 -0.0305  0.2238
 7779TIP3    H144828   3.163   5.958  10.750 -2.8434 -1.5523  2.4907
 7779TIP3    H244829   3.056   5.914  10.652 -0.9503  1.2287 -0.9217
 7780TIP3   OH244830   2.889   4.456  17.287  0.0992  0.2532 -0.1283
 7780TIP3    H144831   2.861   4.373  17.326 -0.0973  0.4726  0.2097
 7780TIP3    H244832   2.855   4.454  17.198  0.7396 -0.3504 -0.3533
 7781TIP3   OH244833   5.319   1.282   0.513  0.2510  0.1635  0.3313
 7781TIP3    H144834   5.316   1.298   0.419  1.8341 -0.5343  0.1350
 7781TIP3    H244835   5.259   1.209   0.527 -0.7709  0.9369  0.0260
 7782TIP3   OH244836   2.602   6.623   0.158 -0.8673 -0.0816  0.6126
 7782TIP3    H144837   2.558   6.660   0.081 -1.1136  0.2346  0.9089
 7782TIP3    H244838   2.691   6.657   0.153 -0.3795 -1.4298 -0.4853
 7783TIP3   OH244839   5.107   3.445   4.723  0.0816 -0.8193  0.2141
 7783TIP3    H144840   5.068   3.418   4.639  0.1395  1.0102 -0.4226
 7783TIP3    H244841   5.198   3.464   4.702 -0.5270  2.2071  0.0939
 7784TIP3   OH244842   3.887   6.466  11.974 -0.3848  0.3948 -0.2604
 7784TIP3    H144843   3.887   6.558  12.000  0.1807  0.3153  0.0191
 7784TIP3    H244844   3.891   6.469  11.878 -3.1776  0.7000 -0.4251
 7785TIP3   OH244845   5.588   0.245   2.290 -0.4384  0.2479 -0.1798
 7785TIP3    H144846   5.611   0.314   2.352 -0.9434  0.3450 -0.0964
 7785TIP3    H244847   5.552   0.291   2.214 -2.7976 -0.0082  0.7478
 7786TIP3   OH244848   2.143   2.735  16.919  0.9293 -0.0526 -0.1907
 7786TIP3    H144849   2.056   2.759  16.886  1.6121  0.8327 -1.4229
 7786TIP3    H244850   2.168   2.658  16.867  0.7652 -0.4771  0.3583
 7787TIP3   OH244851   6.659   0.012   4.422  0.2418  0.1935 -0.1560
 7787TIP3    H144852   6.724  -0.035   4.475  0.5590  1.9568  1.0401
 7787TIP3    H244853   6.709   0.045   4.347  0.3480  0.0193 -0.1634
 7788TIP3   OH244854   3.682   5.168   0.462 -0.7683 -0.2115  0.0122
 7788TIP3    H144855   3.698   5.220   0.384 -0.3249 -1.9105 -1.0532
 7788TIP3    H244856   3.590   5.141   0.455 -1.3848  1.4388  1.2142
 7789TIP3   OH244857   3.724   3.277  14.603  0.6009 -0.7292 -0.3209
 7789TIP3    H144858   3.803   3.293  14.655 -1.0133  1.3243  1.5750
 7789TIP3    H244859   3.670   3.220  14.658 -0.3559 -0.0052 -0.5097
 7790TIP3   OH244860   2.116   6.581   4.698 -0.2034  0.2208  0.1938
 7790TIP3    H144861   2.072   6.664   4.680 -0.7676  0.0503  0.7504
 7790TIP3    H244862   2.112   6.533   4.615 -0.3166  0.5497  0.0071
 7791TIP3   OH244863   0.377   1.388  10.972  0.1292 -0.2478  0.1702
 7791TIP3    H144864   0.459   1.351  10.940 -0.0153 -0.3758 -0.0533
 7791TIP3    H244865   0.403   1.459  11.030  0.4405 -1.6357  1.7708
 7792TIP3   OH244866   3.421   1.057  13.328 -0.5398  0.0084  0.8032
 7792TIP3    H144867   3.447   1.010  13.249 -1.8676  0.9286 -0.2101
 7792TIP3    H244868   3.462   1.009  13.400 -0.0483 -1.3669 -0.3838
 7793TIP3   OH244869   0.054   6.648  15.393 -0.0795  0.4655  1.0067
 7793TIP3    H144870   0.109   6.636  15.470  2.1573  0.1075 -0.6212
 7793TIP3    H244871   0.050   6.562  15.352 -0.5759  0.8360  0.2649
 7794TIP3   OH244872   0.932   3.341  13.253  0.0184 -0.4981 -0.0344
 7794TIP3    H144873   0.978   3.337  13.170 -0.1212 -1.0556 -0.0875
 7794TIP3    H244874   0.999   3.324  13.319  0.2353  0.4867  0.0056
 7795TIP3   OH244875   3.026   0.156   2.267 -0.0238 -0.0719  0.0616
 7795TIP3    H144876   3.060   0.150   2.178  0.8700 -0.2951  0.4075
 7795TIP3    H244877   3.090   0.211   2.313  0.1972 -0.9995  0.8771
 7796TIP3   OH244878   3.601   6.574   1.781 -0.5369 -0.0411  0.1148
 7796TIP3    H144879   3.648   6.599   1.860  0.6799  0.6552 -0.8038
 7796TIP3    H244880   3.586   6.657   1.735 -1.5271 -0.4052 -0.2121
 7797TIP3   OH244881   4.409   0.609  11.886 -0.5610  0.1340  0.3168
 7797TIP3    H144882   4.497   0.577  11.902 -0.9722 -1.7221 -0.9164
 7797TIP3    H244883   4.414   0.652  11.800 -0.5419  1.3345  0.9067
 7798TIP3   OH244884   1.399   6.537   2.284 -0.0571 -0.1322 -0.1477
 7798TIP3    H144885   1.309   6.534   2.251 -1.0317  3.0460  1.8958
 7798TIP3    H244886   1.450   6.573   2.211 -1.1118  1.2676 -0.2380
 7799TIP3   OH244887   6.058   0.406   6.502  0.4041 -0.1530  0.5908
 7799TIP3    H144888   6.097   0.450   6.577  0.2160 -1.6647  1.5941
 7799TIP3    H244889   6.124   0.412   6.433 -0.0454  2.6257  0.3476
 7800TIP3   OH244890   0.439   0.039  15.163 -0.7780 -0.0249 -0.3434
 7800TIP3    H144891   0.348   0.020  15.186 -0.9981  0.8040 -0.5264
 7800TIP3    H244892   0.434   0.115  15.105 -0.0107 -0.3397 -0.8269
 7801TIP3   OH244893   2.356   1.695  13.118  0.0788  0.5912 -0.4429
 7801TIP3    H144894   2.279   1.683  13.064  0.2419 -0.9192 -0.3758
 7801TIP3    H244895   2.428   1.704  13.056  0.2622 -1.1169 -0.4997
 7802TIP3   OH244896   5.288   5.931   0.042  0.5505 -0.5424  0.1545
 7802TIP3    H144897   5.227   5.906   0.111 -0.0501  0.1399 -0.1216
 7802TIP3    H244898   5.362   5.971   0.088 -0.0968  0.4119  0.3716
 7803TIP3   OH244899   5.709   3.294  12.688 -0.0815  0.2780 -0.1208
 7803TIP3    H144900   5.678   3.383  12.673 -1.9576 -0.5384 -1.2588
 7803TIP3    H244901   5.740   3.264  12.603 -2.9505 -1.4323 -0.6409
 7804TIP3   OH244902   5.304   4.679  12.300 -0.0106 -0.0797  0.4768
 7804TIP3    H144903   5.246   4.711  12.230 -2.8941 -1.6625  2.0666
 7804TIP3    H244904   5.311   4.753  12.360 -2.2931 -0.5674  1.4108
 7805TIP3   OH244905   4.474   5.419   3.905  0.1910 -0.0834 -0.3228
 7805TIP3    H144906   4.392   5.376   3.928 -0.2800 -0.2052 -2.1442
 7805TIP3    H244907   4.523   5.423   3.987 -1.5100 -0.2611  0.7197
 7806TIP3   OH244908   0.790   0.018  17.038 -0.0180 -0.0787  0.3826
 7806TIP3    H144909   0.847  -0.012  17.108  1.1097  1.2837  0.0720
 7806TIP3    H244910   0.850   0.046  16.968 -1.1089 -1.0843 -0.9878
 7807TIP3   OH244911   2.242   4.666   2.227 -0.5864  0.0273  0.1122
 7807TIP3    H144912   2.231   4.750   2.271 -1.5042 -0.2723  0.4868
 7807TIP3    H244913   2.268   4.605   2.296  1.4452  0.2910 -0.4137
 7808TIP3   OH244914   3.408   1.677  13.097 -0.7295  0.0019 -0.2488
 7808TIP3    H144915   3.467   1.725  13.038  1.3494 -0.1045  1.6662
 7808TIP3    H244916   3.446   1.589  13.102 -1.0376 -0.0728  0.9885
 7809TIP3   OH244917   1.694   2.850   2.174 -0.0447 -0.2501 -0.1546
 7809TIP3    H144918   1.759   2.892   2.118  1.0748  0.7192  1.8168
 7809TIP3    H244919   1.735   2.769   2.204  0.0267  0.0447  0.5711
 7810TIP3   OH244920   3.864   3.153  16.648 -0.2649 -0.3296  0.2480
 7810TIP3    H144921   3.937   3.187  16.700 -0.5663 -1.0143  1.1441
 7810TIP3    H244922   3.889   3.063  16.628 -0.4073 -0.2466 -0.3224
 7811TIP3   OH244923   3.671   6.419   3.667  0.0758 -0.7194  0.4743
 7811TIP3    H144924   3.672   6.495   3.609  2.3511  1.0980  2.8167
 7811TIP3    H244925   3.612   6.443   3.739  0.5177 -1.3170  1.0477
 7812TIP3   OH244926   5.593   0.087   1.723  0.6537  0.1442  0.8155
 7812TIP3    H144927   5.682   0.056   1.708 -0.4272 -2.0961 -1.2264
 7812TIP3    H244928   5.537   0.019   1.686 -1.9017  2.0573  1.0392
 7813TIP3   OH244929   4.461   1.581  12.773 -0.3440  0.2342  0.1740
 7813TIP3    H144930   4.478   1.554  12.863  1.1082  1.7232  0.3708
 7813TIP3    H244931   4.518   1.526  12.720 -0.3736  0.1372  0.2433
 7814TIP3   OH244932   4.340   6.572   4.266 -0.6975 -0.1486 -0.7352
 7814TIP3    H144933   4.388   6.651   4.243 -4.0402  2.3883  0.6336
 7814TIP3    H244934   4.349   6.565   4.361 -1.1573 -0.8966 -0.7427
 7815TIP3   OH244935   3.123   0.869  14.441  0.4464 -0.2052 -0.6386
 7815TIP3    H144936   3.112   0.774  14.446 -0.3470 -0.0795  0.0786
 7815TIP3    H244937   3.125   0.887  14.347  0.3286 -0.9052 -0.7826
 7816TIP3   OH244938   1.811   1.140   0.437 -0.7980 -0.4487  0.2883
 7816TIP3    H144939   1.878   1.075   0.419  0.1243  0.8597 -1.1568
 7816TIP3    H244940   1.729   1.099   0.407 -0.2448 -0.9922 -0.4960
 7817TIP3   OH244941   6.376   3.316   0.913  0.4305 -0.1504  0.8271
 7817TIP3    H144942   6.354   3.308   0.820  0.1047 -0.1449  0.9043
 7817TIP3    H244943   6.423   3.235   0.934  0.7940 -0.0067  0.5772
 7818TIP3   OH244944   6.463   3.155   4.397  0.2577 -0.8411 -0.1517
 7818TIP3    H144945   6.464   3.188   4.307  1.3922  0.7144  0.4233
 7818TIP3    H244946   6.527   3.208   4.444 -0.5864 -1.3793  1.6766
 7819TIP3   OH244947   1.368   4.270   1.070  0.4406  0.0781 -0.3241
 7819TIP3    H144948   1.354   4.282   0.976 -1.6999 -0.3385 -0.0845
 7819TIP3    H244949   1.289   4.226   1.100  1.7216 -1.0412  1.4474
 7820TIP3   OH244950   0.496   1.369   6.240 -0.2496  0.0060 -0.3398
 7820TIP3    H144951   0.462   1.433   6.303  0.3818 -0.6599  0.6791
 7820TIP3    H244952   0.502   1.418   6.158 -1.1361  0.8655  0.0931
 7821TIP3   OH244953   3.162   6.062  14.984 -0.2973  0.0955  0.2360
 7821TIP3    H144954   3.147   5.973  14.954  1.5376 -0.0882 -0.2185
 7821TIP3    H244955   3.150   6.117  14.907 -0.0890  0.0969  0.2036
 7822TIP3   OH244956   3.928   3.534   1.169 -0.3657 -0.3376  0.2437
 7822TIP3    H144957   3.929   3.560   1.261 -3.7538 -0.1390  0.3036
 7822TIP3    H244958   3.954   3.614   1.122  0.7260 -0.2467  0.9942
 7823TIP3   OH244959   3.643   6.089  10.309  0.2737  0.3497  0.0420
 7823TIP3    H144960   3.664   6.001  10.278 -0.5028 -0.0381  0.5963
 7823TIP3    H244961   3.638   6.142  10.230 -1.2263 -0.5320 -0.4785
 7824TIP3   OH244962   4.525   5.310  12.591 -0.5983  0.2750 -0.1706
 7824TIP3    H144963   4.545   5.383  12.649  0.4405  0.9420 -1.3553
 7824TIP3    H244964   4.439   5.279  12.621 -0.3477  0.9754  1.3298
 7825TIP3   OH244965   0.926   6.108  15.506 -0.2505  0.1709 -0.5338
 7825TIP3    H144966   1.000   6.048  15.502 -0.9359 -0.6665 -0.8905
 7825TIP3    H244967   0.926   6.153  15.422 -0.2966 -0.0164 -0.6340
 7826TIP3   OH244968   3.953   1.827   4.523 -0.1410  1.2012  0.0377
 7826TIP3    H144969   3.871   1.800   4.483  1.3006 -0.2399 -2.1012
 7826TIP3    H244970   3.977   1.908   4.478 -0.8201  2.1118  1.2925
 7827TIP3   OH244971   6.543   3.033  12.764  0.4063  0.3123  0.2633
 7827TIP3    H144972   6.565   3.043  12.672 -0.4520  1.3517  0.1597
 7827TIP3    H244973   6.448   3.048  12.768  0.3475 -0.2671  1.2317
 7828TIP3   OH244974   2.365   0.152   4.562 -0.4958  0.2606  0.6690
 7828TIP3    H144975   2.375   0.126   4.470  0.3244 -0.4377  0.9487
 7828TIP3    H244976   2.429   0.222   4.574  0.7340 -0.9219  1.1883
 7829TIP3   OH244977   6.250   0.920  10.849 -0.1814  0.1400  0.5785
 7829TIP3    H144978   6.189   0.987  10.816  0.9231  1.0115  0.2560
 7829TIP3    H244979   6.326   0.970  10.878  0.1502 -0.8940  1.5035
 7830TIP3   OH244980   3.603   4.226   3.722 -0.4487  0.4732  0.4978
 7830TIP3    H144981   3.659   4.149   3.723  0.4308  1.0927  0.0480
 7830TIP3    H244982   3.633   4.279   3.796 -0.8984  0.4824  0.6728
 7831TIP3   OH244983   0.936   6.305   0.131 -0.1327 -0.4476  0.3652
 7831TIP3    H144984   1.022   6.276   0.160 -0.8928 -1.5446  1.5815
 7831TIP3    H244985   0.927   6.393   0.167  0.2901 -0.5251  0.6646
 7832TIP3   OH244986   0.785   4.386  13.366 -0.0203  0.6057  0.7836
 7832TIP3    H144987   0.798   4.331  13.289  3.2578  0.3817  1.4558
 7832TIP3    H244988   0.727   4.334  13.423 -1.4675  0.2705 -0.9430
 7833TIP3   OH244989   4.321   6.408  14.961  0.0426  1.0782 -0.1369
 7833TIP3    H144990   4.307   6.498  14.932 -0.5612  0.5837 -1.4304
 7833TIP3    H244991   4.322   6.413  15.056  0.7313  2.5555 -0.2141
 7834TIP3   OH244992   5.801   3.631  11.491  0.1038  0.3439 -0.3219
 7834TIP3    H144993   5.744   3.651  11.416  0.1370 -0.2975 -0.5192
 7834TIP3    H244994   5.764   3.682  11.563 -1.5423 -1.0802 -0.1239
 7835TIP3   OH244995   2.599   3.286  12.252  0.1503  0.0817  0.0551
 7835TIP3    H144996   2.687   3.307  12.219 -0.6293  1.3324 -1.3000
 7835TIP3    H244997   2.547   3.270  12.173 -1.1921  0.8416  0.7613
 7836TIP3   OH244998   1.952   6.570   0.772 -0.1858  0.1262 -0.5837
 7836TIP3    H144999   1.859   6.547   0.779 -0.4047  0.7511 -1.4768
 7836TIP3    H245000   1.956   6.633   0.701  0.8709  0.4289 -0.2599
 7837TIP3   OH245001   0.758   4.805   1.815  0.8323 -0.3571  0.0229
 7837TIP3    H145002   0.694   4.874   1.797  0.0925 -0.8328  0.7625
 7837TIP3    H245003   0.842   4.842   1.790  0.4041  0.7111  0.1732
 7838TIP3   OH245004   6.592   2.427  13.234 -0.6205 -0.2438 -0.4035
 7838TIP3    H145005   6.503   2.433  13.268 -0.6673 -0.0531 -0.5567
 7838TIP3    H245006   6.601   2.505  13.178  0.1979  0.6191  0.9097
 7839TIP3   OH245007   0.344   4.961  16.247  0.6050 -0.7503  0.5093
 7839TIP3    H145008   0.330   4.921  16.161  1.9984  2.6372 -1.3828
 7839TIP3    H245009   0.281   5.033  16.251 -0.1442 -1.4848  2.7834
 7840TIP3   OH245010   0.617   6.087   3.005 -0.2548  0.5457  0.0608
 7840TIP3    H145011   0.536   6.134   2.986  0.4501  0.7028 -2.7205
 7840TIP3    H245012   0.682   6.156   3.018 -0.0060  0.3863 -0.3388
 7841TIP3   OH245013   5.382   3.607  17.278  0.7488 -0.7813  0.1292
 7841TIP3    H145014   5.324   3.557  17.336 -0.9432 -0.0593 -0.9153
 7841TIP3    H245015   5.415   3.679  17.332 -1.4541  0.3535  0.0030
 7842TIP3   OH245016   3.732   0.755  12.405 -0.0669  0.6286  0.4261
 7842TIP3    H145017   3.820   0.739  12.370 -0.5511 -0.2941 -0.4145
 7842TIP3    H245018   3.743   0.753  12.500  0.8579  0.7061  0.3246
 7843TIP3   OH245019   0.181   4.666   3.439 -0.5861  0.4037  0.1096
 7843TIP3    H145020   0.135   4.593   3.480 -0.1594 -0.0986 -0.3017
 7843TIP3    H245021   0.274   4.645   3.450 -0.4426  1.5237  1.1370
 7844TIP3   OH245022   1.001   5.652  14.477  0.6036  0.2818  0.7047
 7844TIP3    H145023   0.915   5.656  14.436  2.0332  2.3898 -2.2418
 7844TIP3    H245024   1.029   5.561  14.467  0.7926  0.6743 -2.8580
 7845TIP3   OH245025   6.080   2.796  12.654 -0.4353 -0.4010 -0.0987
 7845TIP3    H145026   6.113   2.790  12.564  0.6595 -0.1679  0.2704
 7845TIP3    H245027   5.987   2.817  12.645 -0.2863 -0.1802 -1.1761
 7846TIP3   OH245028   5.367   5.237   3.037  0.5031 -0.3383  0.5553
 7846TIP3    H145029   5.366   5.200   2.949 -0.4859 -0.2353  0.5213
 7846TIP3    H245030   5.460   5.248   3.057  0.7619 -1.2770 -0.0892
 7847TIP3   OH245031   3.443   4.124  13.272 -0.4723 -0.0059 -0.3078
 7847TIP3    H145032   3.475   4.192  13.331  2.2779  0.2601 -2.0140
 7847TIP3    H245033   3.399   4.172  13.202 -1.5517 -0.1813  0.2485
 7848TIP3   OH245034   1.261   6.643   4.014  0.2559 -0.2483 -0.0302
 7848TIP3    H145035   1.165   6.640   4.012  0.2375  1.1355 -2.0939
 7848TIP3    H245036   1.288   6.571   3.956  0.4451  0.1882 -0.4848
 7849TIP3   OH245037   6.247   3.788  15.647 -0.6643  0.0483  0.2266
 7849TIP3    H145038   6.230   3.861  15.587  0.2225  0.5502  0.5658
 7849TIP3    H245039   6.167   3.735  15.645 -1.7655  1.6390  0.8419
 7850TIP3   OH245040   5.491   0.923  14.058  0.5037  0.4127 -0.3547
 7850TIP3    H145041   5.516   0.859  14.124  3.9955  3.1653  1.1660
 7850TIP3    H245042   5.537   0.895  13.979  0.1652 -0.2255 -0.3256
 7851TIP3   OH245043   1.287   4.699   3.369 -0.4436 -0.2372  0.1717
 7851TIP3    H145044   1.352   4.730   3.306 -1.3210  2.2638  0.4332
 7851TIP3    H245045   1.226   4.773   3.379 -1.7749 -1.5340  1.9814
 7852TIP3   OH245046   6.687   5.434  11.554 -0.3033 -0.4490 -0.6690
 7852TIP3    H145047   6.710   5.477  11.471  0.7737 -0.0830 -0.1867
 7852TIP3    H245048   6.770   5.424  11.600 -0.7603 -1.6103 -0.0737
 7853TIP3   OH245049   2.146   2.287   2.759  0.4470  0.2905 -0.3004
 7853TIP3    H145050   2.104   2.286   2.673  0.3526 -0.6569 -0.2408
 7853TIP3    H245051   2.078   2.260   2.820  1.5139 -2.7440 -0.3778
 7854TIP3   OH245052   3.366   4.547   6.072 -0.0630  0.4070 -0.3887
 7854TIP3    H145053   3.283   4.511   6.104  0.1180  1.0922  0.8511
 7854TIP3    H245054   3.357   4.642   6.084  0.8916  0.4813 -0.2753
 7855TIP3   OH245055   3.373   0.027   5.997  0.7430 -0.0167 -0.3036
 7855TIP3    H145056   3.404  -0.059   5.970  2.7101  0.7064 -0.4097
 7855TIP3    H245057   3.306   0.009   6.063  2.7933 -1.5926  1.3810
 7856TIP3   OH245058   0.837   4.293   5.919 -0.2097 -0.3995 -0.0370
 7856TIP3    H145059   0.831   4.198   5.913 -0.1087 -0.2993 -2.3007
 7856TIP3    H245060   0.747   4.322   5.932 -0.2064 -0.8089  0.9228
 7857TIP3   OH245061   6.569   1.714   5.047 -0.5749  0.0509 -0.5506
 7857TIP3    H145062   6.661   1.689   5.057 -1.3589 -2.7592  0.1204
 7857TIP3    H245063   6.571   1.808   5.030  2.3103  0.3264  1.0948
 7858TIP3   OH245064   4.323   0.979   5.418 -0.1631  0.1886  0.0471
 7858TIP3    H145065   4.230   0.977   5.397 -0.2740  2.1453  0.1953
 7858TIP3    H245066   4.338   0.903   5.473 -1.2926 -1.1474 -1.4524
 7859TIP3   OH245067   2.400   0.332   5.227 -0.0917 -0.0999  0.1316
 7859TIP3    H145068   2.432   0.366   5.311 -1.0143  0.5881  0.2120
 7859TIP3    H245069   2.307   0.355   5.226 -0.6625 -2.2847  0.0060
 7860TIP3   OH245070   4.160   2.741   3.399 -0.4058  0.1180  0.1321
 7860TIP3    H145071   4.092   2.751   3.466  1.5184 -0.9187  2.3231
 7860TIP3    H245072   4.123   2.680   3.336 -2.4711  1.5283 -0.0547
 7861TIP3   OH245073   0.727   0.278   6.234 -0.2929 -0.4075  0.0305
 7861TIP3    H145074   0.743   0.225   6.155  0.7764  0.2424 -0.2091
 7861TIP3    H245075   0.809   0.271   6.284 -1.0061 -0.9117  1.1522
 7862TIP3   OH245076   0.352   5.830  16.481  0.0026 -0.1399  0.6825
 7862TIP3    H145077   0.318   5.851  16.394  0.5787  0.0394  0.4986
 7862TIP3    H245078   0.396   5.910  16.509  1.7111 -0.8751  0.2206
 7863TIP3   OH245079   0.003   5.420   4.950 -0.0429  0.3457  0.3200
 7863TIP3    H145080  -0.005   5.512   4.978 -0.2028  0.2098  0.7278
 7863TIP3    H245081   0.086   5.391   4.987 -0.8192 -0.1842  1.6637
 7864TIP3   OH245082   5.205   6.379  11.727 -0.1354  0.0815 -0.6214
 7864TIP3    H145083   5.230   6.327  11.650 -1.3208 -0.5214 -0.6062
 7864TIP3    H245084   5.115   6.351  11.747  0.7338 -0.9940  2.0032
 7865TIP3   OH245085   0.074   3.109   3.857 -0.3186 -0.3427 -0.5828
 7865TIP3    H145086   0.158   3.143   3.825 -0.4427 -1.4928 -2.1961
 7865TIP3    H245087   0.012   3.127   3.787 -1.4560  0.5339  0.6208
 7866TIP3   OH245088   0.080   3.783  16.556 -0.1570  0.3194  0.2232
 7866TIP3    H145089   0.066   3.780  16.461 -1.2838 -0.5853  0.4224
 7866TIP3    H245090   0.144   3.853  16.567  0.4576  0.0311 -1.2634
 7867TIP3   OH245091   5.784   2.499  13.164 -0.0468 -0.4509  0.2898
 7867TIP3    H145092   5.743   2.413  13.179  1.9935 -1.8312 -1.6571
 7867TIP3    H245093   5.871   2.491  13.203 -0.1956  1.1108  0.9741
 7868TIP3   OH245094   1.506   2.238  10.952  0.5235  0.2431  0.2628
 7868TIP3    H145095   1.517   2.257  11.045  0.3425  0.3039  0.2732
 7868TIP3    H245096   1.471   2.149  10.949  1.4521 -0.1276  0.2107
 7869TIP3   OH245097   6.723   5.504   5.630 -0.3977  0.2410 -0.1498
 7869TIP3    H145098   6.666   5.538   5.561 -0.4731 -2.1295 -1.2883
 7869TIP3    H245099   6.791   5.456   5.584  0.5510  0.0740  1.3718
 7870TIP3   OH245100   6.782   3.831   6.615  0.5196  0.4495  0.5010
 7870TIP3    H145101   6.772   3.926   6.614  1.9374  0.5979  0.4274
 7870TIP3    H245102   6.726   3.801   6.543 -0.8806  1.1104  1.2825
 7871TIP3   OH245103   0.913   4.093   5.586  0.2155 -0.2159 -0.2843
 7871TIP3    H145104   0.905   4.185   5.561  1.3107  0.0514  0.3238
 7871TIP3    H245105   0.973   4.056   5.521  1.9925  0.1636  1.1058
 7872TIP3   OH245106   5.853   4.621  17.194  0.0437  0.3343 -0.2876
 7872TIP3    H145107   5.819   4.543  17.149  1.1270  0.0385 -0.5973
 7872TIP3    H245108   5.948   4.616  17.183  0.0646  2.1673 -1.0676
 7873TIP3   OH245109   0.417   3.813   1.390 -0.3643 -0.5386 -0.4192
 7873TIP3    H145110   0.408   3.888   1.449 -0.7078 -1.1648  0.3233
 7873TIP3    H245111   0.500   3.829   1.344 -0.4670  0.3241 -0.3086
 7874TIP3   OH245112   2.964   2.450   3.080  0.0067  0.8728 -0.0146
 7874TIP3    H145113   3.038   2.510   3.091  1.4049 -0.7076 -0.5003
 7874TIP3    H245114   2.943   2.455   2.986  1.4180 -0.8332 -0.4464
 7875TIP3   OH245115   1.048   1.335   0.743 -0.1778  0.5098  0.3328
 7875TIP3    H145116   1.088   1.416   0.713 -0.9610  0.6456 -0.3784
 7875TIP3    H245117   0.998   1.360   0.821 -1.3616  0.9431 -0.5593
 7876TIP3   OH245118   0.562   1.767  16.044  0.3264  0.5836 -0.1567
 7876TIP3    H145119   0.657   1.758  16.050  0.1692 -0.3845  0.9605
 7876TIP3    H245120   0.539   1.720  15.963  0.8073  0.9104 -0.4895
 7877TIP3   OH245121   4.142   6.043   1.576  0.2982  1.2157 -0.1740
 7877TIP3    H145122   4.127   5.949   1.589  0.5080  1.5904  3.0569
 7877TIP3    H245123   4.069   6.070   1.520  0.7270 -1.0136 -1.8960
 7878TIP3   OH245124   5.404   4.125  12.716  0.0966  0.3689  0.0467
 7878TIP3    H145125   5.341   4.174  12.769 -1.9253 -1.4881 -0.5471
 7878TIP3    H245126   5.351   4.088  12.645  2.1066 -0.1836 -1.2017
 7879TIP3   OH245127   1.039   0.655   4.123 -0.3044 -0.1062  0.0930
 7879TIP3    H145128   1.018   0.633   4.032 -0.0083 -3.7267  0.8331
 7879TIP3    H245129   0.956   0.645   4.170  0.2624 -1.6559  0.7941
 7880TIP3   OH245130   0.385   2.703   1.540 -0.2911 -0.3712 -0.1716
 7880TIP3    H145131   0.462   2.759   1.548  0.2529 -1.2871  1.3592
 7880TIP3    H245132   0.400   2.651   1.461 -0.3778  0.9965 -1.0938
 7881TIP3   OH245133   2.530   6.527   0.940  0.4739 -0.1568 -0.0257
 7881TIP3    H145134   2.563   6.469   0.872  0.5789 -0.3822  0.2157
 7881TIP3    H245135   2.529   6.473   1.019  1.8123  0.5454  0.4713
 7882TIP3   OH245136   1.396   4.289   1.955  0.3509 -0.1344 -0.3923
 7882TIP3    H145137   1.422   4.296   1.863  1.8216 -0.3184 -0.0125
 7882TIP3    H245138   1.385   4.195   1.970 -1.1436 -0.0253 -0.6933
 7883TIP3   OH245139   1.163   4.651   4.804  0.5413  0.1009 -0.0224
 7883TIP3    H145140   1.245   4.606   4.824  0.0179 -0.7348  0.2257
 7883TIP3    H245141   1.094   4.593   4.836 -0.1394  1.0139  0.1842
 7884TIP3   OH245142   2.497   1.550   6.615 -0.3704 -0.5722  0.0735
 7884TIP3    H145143   2.558   1.624   6.614 -0.0697 -0.8213 -0.5664
 7884TIP3    H245144   2.494   1.522   6.707  0.3789 -0.4749  0.1303
 7885TIP3   OH245145   6.146   6.144  16.162  0.7595  0.0164  0.0643
 7885TIP3    H145146   6.197   6.070  16.194  2.0242  0.8784  0.0390
 7885TIP3    H245147   6.083   6.162  16.231 -0.1140 -1.6236 -0.2940
 7886TIP3   OH245148   3.990   4.715  13.301 -0.4328  0.6226  0.1265
 7886TIP3    H145149   4.037   4.797  13.311 -0.8669  0.8787  0.0962
 7886TIP3    H245150   4.015   4.664  13.379 -0.6518  1.0307  0.4684
 7887TIP3   OH245151   2.734   6.290   1.633  0.1633 -0.8994  0.0916
 7887TIP3    H145152   2.707   6.382   1.634  0.5375 -0.7638 -1.1524
 7887TIP3    H245153   2.798   6.285   1.562  0.7788 -1.9484  0.7107
 7888TIP3   OH245154   5.502   0.530   4.498 -0.4903 -0.3263  0.1197
 7888TIP3    H145155   5.542   0.445   4.517  0.4786  0.1933  0.4512
 7888TIP3    H245156   5.490   0.531   4.403 -1.0601 -1.0704  0.1798
 7889TIP3   OH245157   2.570   3.884   1.112  0.6662  0.4050 -0.2356
 7889TIP3    H145158   2.621   3.838   1.045 -1.5160  1.4429 -2.7120
 7889TIP3    H245159   2.483   3.845   1.106 -0.1023  1.9765  0.5243
 7890TIP3   OH245160   6.567   4.043  10.514 -0.6230 -0.1599  0.7147
 7890TIP3    H145161   6.473   4.029  10.506 -0.8879  0.1719  3.0071
 7890TIP3    H245162   6.586   4.029  10.606  1.4552  0.5175  0.4181
 7891TIP3   OH245163   2.861   3.773   2.049 -0.3999 -0.2667 -0.9061
 7891TIP3    H145164   2.911   3.775   2.130 -0.3328  1.2493 -0.9600
 7891TIP3    H245165   2.921   3.808   1.983 -0.2710 -1.9994 -1.7277
 7892TIP3   OH245166   1.155   1.910   5.238 -0.1794 -0.2955 -0.1028
 7892TIP3    H145167   1.192   1.973   5.301  2.1192 -1.5227 -0.1764
 7892TIP3    H245168   1.088   1.863   5.288  0.5398 -0.1898  0.9802
 7893TIP3   OH245169   6.678   0.467   4.368 -0.7582 -0.3499 -0.0815
 7893TIP3    H145170   6.677   0.415   4.448 -0.5539 -1.8677 -1.0581
 7893TIP3    H245171   6.749   0.530   4.382 -0.1934 -1.1295  0.5883
 7894TIP3   OH245172   2.044   5.218  10.921  0.1223  0.1643  0.1390
 7894TIP3    H145173   2.004   5.291  10.969  1.9903  0.4559  1.3261
 7894TIP3    H245174   2.135   5.246  10.908 -0.1945 -0.1374 -3.1715
 7895TIP3   OH245175   6.059   4.966  17.021 -0.1456  0.1334 -0.4412
 7895TIP3    H145176   6.068   4.958  16.926  0.7350  0.4132 -0.3942
 7895TIP3    H245177   6.100   4.887  17.055  0.0809  0.3198 -0.2764
 7896TIP3   OH245178   1.181   2.486  12.843 -0.0505 -0.1176 -0.0645
 7896TIP3    H145179   1.239   2.499  12.768 -0.6783  0.3082 -0.4858
 7896TIP3    H245180   1.147   2.397  12.833  0.2821 -0.2538  0.0115
 7897TIP3   OH245181   6.149   1.367   3.123  0.3711  0.3392 -0.3325
 7897TIP3    H145182   6.116   1.448   3.084 -0.4935  0.0812 -0.1600
 7897TIP3    H245183   6.144   1.381   3.217 -1.1506 -0.4309 -0.2807
 7898TIP3   OH245184   4.506   2.219  13.035 -0.1367 -0.5670 -0.3638
 7898TIP3    H145185   4.517   2.126  13.014 -1.3671 -0.3442 -2.0876
 7898TIP3    H245186   4.424   2.223  13.085 -0.2104 -0.3772 -0.5005
 7899TIP3   OH245187   4.729   4.148   6.244  0.2121 -0.0434  0.0030
 7899TIP3    H145188   4.691   4.236   6.242 -0.8949 -0.5181 -0.1334
 7899TIP3    H245189   4.679   4.102   6.311  0.2868 -0.7870 -0.4447
 7900TIP3   OH245190   6.285   1.680   0.402 -0.1239  0.5500 -0.9461
 7900TIP3    H145191   6.368   1.721   0.378  0.2970 -0.3473 -1.0491
 7900TIP3    H245192   6.222   1.712   0.338 -0.1403  2.2275 -0.1160
 7901TIP3   OH245193   6.803   6.486  12.181  0.2037  0.1063  0.5486
 7901TIP3    H145194   6.741   6.457  12.248  2.0520 -0.4412  2.0562
 7901TIP3    H245195   6.851   6.557  12.223  1.4538 -0.3121 -0.1695
 7902TIP3   OH245196   4.347   2.249  14.481 -0.3666 -0.5124  0.4556
 7902TIP3    H145197   4.371   2.341  14.492 -0.4730 -0.3456 -0.6462
 7902TIP3    H245198   4.430   2.202  14.480 -0.3132 -0.4369  1.0313
 7903TIP3   OH245199   3.694   2.433  12.087  0.1949  0.7523  0.3221
 7903TIP3    H145200   3.775   2.477  12.112  0.0742  1.0218  0.2472
 7903TIP3    H245201   3.722   2.356  12.038  0.4135  0.6048  0.6809
 7904TIP3   OH245202   6.435   0.088  15.964 -0.0912  0.2919  0.7389
 7904TIP3    H145203   6.513   0.134  15.932  0.8503 -1.4370  0.5321
 7904TIP3    H245204   6.465   0.041  16.041 -0.9379 -0.4084  0.6447
 7905TIP3   OH245205   2.647   4.747  14.351  0.0952  0.2738 -0.2197
 7905TIP3    H145206   2.599   4.756  14.268 -0.6845 -0.5701  0.1338
 7905TIP3    H245207   2.686   4.660  14.346 -0.0605  0.1691  0.3539
 7906TIP3   OH245208   1.296   2.583   1.427  0.6082  0.1293  0.4499
 7906TIP3    H145209   1.367   2.641   1.401 -0.8301  0.9012 -1.8792
 7906TIP3    H245210   1.281   2.527   1.351 -4.1240  2.8452 -0.8310
 7907TIP3   OH245211   2.377   2.941  16.574 -0.9012 -0.1948  0.7088
 7907TIP3    H145212   2.473   2.939  16.575 -0.8362  1.3714 -0.1914
 7907TIP3    H245213   2.351   2.849  16.576  0.6394 -0.6709 -0.2425
 7908TIP3   OH245214   3.962   3.182  13.027  0.1013  0.3075  0.1788
 7908TIP3    H145215   4.040   3.223  13.064 -0.3819 -1.2839  3.1220
 7908TIP3    H245216   3.979   3.088  13.034 -0.2702 -0.0594 -3.2276
 7909TIP3   OH245217   2.511   5.649  14.686  0.2639 -0.0127 -0.3101
 7909TIP3    H145218   2.542   5.594  14.614 -0.3935 -1.7367  0.6918
 7909TIP3    H245219   2.573   5.632  14.757 -1.1594 -1.1450  0.6973
 7910TIP3   OH245220   6.711   0.576  12.806 -0.1951 -0.1192 -0.6005
 7910TIP3    H145221   6.649   0.626  12.752 -1.1330  0.5563  1.0682
 7910TIP3    H245222   6.657   0.508  12.846  0.6947 -1.2451 -1.2791
 7911TIP3   OH245223   1.675   6.457  12.885  0.4919  0.7666 -0.4015
 7911TIP3    H145224   1.614   6.407  12.939  1.4915 -0.1487 -0.0971
 7911TIP3    H245225   1.696   6.534  12.938 -0.5996  1.2255 -0.6244
 7912TIP3   OH245226   5.304   3.305   3.692  0.2538  0.4245  0.3212
 7912TIP3    H145227   5.367   3.355   3.744  2.4765  0.4952 -2.3413
 7912TIP3    H245228   5.323   3.213   3.713  0.3460  0.4910  0.5224
 7913TIP3   OH245229   2.280   0.362   1.275 -0.2341 -0.8566 -0.1850
 7913TIP3    H145230   2.194   0.366   1.232 -0.4263  0.3125  0.2928
 7913TIP3    H245231   2.317   0.449   1.261  1.5760 -1.8366 -1.8052
 7914TIP3   OH245232   6.775   3.938  14.315  0.2416 -0.2622 -0.2911
 7914TIP3    H145233   6.841   4.002  14.287 -0.1952  0.0737 -0.5545
 7914TIP3    H245234   6.786   3.932  14.410  0.4644  0.0004 -0.2994
 7915TIP3   OH245235   6.720   0.822   1.001 -0.0096 -0.4773  0.2065
 7915TIP3    H145236   6.790   0.866   1.049  0.3130 -0.1260 -0.5789
 7915TIP3    H245237   6.737   0.843   0.909 -1.7801  0.5501  0.0881
 7916TIP3   OH245238   3.080   2.988   0.928  0.3102 -0.4268 -0.0271
 7916TIP3    H145239   3.011   2.991   0.994  0.0115 -1.8491 -0.2615
 7916TIP3    H245240   3.077   3.074   0.886 -1.3225 -0.4724 -0.0352
 7917TIP3   OH245241   3.125   1.406  11.505 -0.0698  0.2262 -0.3052
 7917TIP3    H145242   3.073   1.326  11.509 -1.3219  0.9560 -1.5136
 7917TIP3    H245243   3.204   1.381  11.458 -0.0336 -0.5265  0.1615
 7918TIP3   OH245244   3.855   4.900   1.078 -0.6041  0.5714 -0.1095
 7918TIP3    H145245   3.762   4.879   1.086 -0.3394 -0.6145 -0.0637
 7918TIP3    H245246   3.897   4.816   1.059  0.6152  0.8916  1.1217
 7919TIP3   OH245247   0.977   5.749  15.228 -0.1597  0.2598 -0.2221
 7919TIP3    H145248   0.939   5.827  15.187 -0.0867 -0.0521 -0.8952
 7919TIP3    H245249   1.071   5.758  15.214 -0.1624 -0.0179 -0.4296
 7920TIP3   OH245250   5.728   2.116  12.708 -0.5205 -0.0063 -0.8244
 7920TIP3    H145251   5.635   2.097  12.722 -0.7554  0.9228 -1.0537
 7920TIP3    H245252   5.737   2.127  12.613 -0.1011 -0.4799 -0.8391
 7921TIP3   OH245253   5.763   2.770  13.171  0.0047 -0.5450 -0.3534
 7921TIP3    H145254   5.791   2.679  13.168  1.1783 -0.1993 -0.1214
 7921TIP3    H245255   5.818   2.814  13.107  0.7607  0.3469  0.8869
 7922TIP3   OH245256   6.253   4.792   1.484 -0.1837 -0.2022  0.3063
 7922TIP3    H145257   6.288   4.854   1.548 -2.6363  2.0226 -0.3686
 7922TIP3    H245258   6.175   4.836   1.449 -0.5468 -2.6029 -2.0964
 7923TIP3   OH245259   2.001   2.863   0.345 -0.1129 -0.5303 -0.0715
 7923TIP3    H145260   1.943   2.890   0.273  1.8642 -2.9082 -2.6916
 7923TIP3    H245261   2.073   2.927   0.342 -0.1619 -0.4743 -0.0560
 7924TIP3   OH245262   3.977   5.496   0.561  0.3355 -0.3759  0.4255
 7924TIP3    H145263   4.044   5.561   0.582 -0.2833 -0.2866  2.2900
 7924TIP3    H245264   4.013   5.445   0.489  0.9652  1.8224 -0.8500
 7925TIP3   OH245265   0.844   4.011   5.248  0.5038 -0.0588 -0.0295
 7925TIP3    H145266   0.748   4.012   5.252  0.5231 -0.8219  1.0690
 7925TIP3    H245267   0.867   3.921   5.274  1.5317  0.2926  0.2762
 7926TIP3   OH245268   0.106   1.089  11.493  0.6384 -0.6009 -0.1071
 7926TIP3    H145269   0.140   1.009  11.533  0.2777 -0.1295  1.1520
 7926TIP3    H245270   0.120   1.157  11.559 -3.4528 -0.5235  0.7669
 7927TIP3   OH245271   3.808   5.864  16.637  0.5080 -0.2604  0.2726
 7927TIP3    H145272   3.902   5.869  16.654  0.4088  0.8473  0.5307
 7927TIP3    H245273   3.794   5.775  16.605  1.4981 -0.7114  1.0872
 7928TIP3   OH245274   1.534   4.894  10.554  0.0274 -0.5398  0.8598
 7928TIP3    H145275   1.556   4.935  10.638  0.2452 -0.6668  0.8643
 7928TIP3    H245276   1.504   4.967  10.499  0.1916 -0.4097  0.9433
 7929TIP3   OH245277   1.265   0.057  12.051  0.5693  0.0457 -0.4849
 7929TIP3    H145278   1.179   0.067  12.011  1.2979 -1.3686 -2.4790
 7929TIP3    H245279   1.266  -0.033  12.084  1.0511  0.2586  0.1064
 7930TIP3   OH245280   5.832   3.060   3.780  0.1876  0.2926  0.4375
 7930TIP3    H145281   5.779   3.055   3.701 -0.9630  1.8240  1.0738
 7930TIP3    H245282   5.780   3.016   3.847  0.2632  0.7107  0.7789
 7931TIP3   OH245283   0.216   4.203   1.159  0.5392 -0.4907  0.2418
 7931TIP3    H145284   0.128   4.228   1.189  1.5475  3.4610  0.1907
 7931TIP3    H245285   0.237   4.268   1.091  3.5679 -1.2853  0.3661
 7932TIP3   OH245286   2.931   1.859   6.169 -0.3524  0.2824  0.2907
 7932TIP3    H145287   2.946   1.940   6.218  1.0822  1.0059 -1.2719
 7932TIP3    H245288   2.995   1.863   6.098 -0.0570 -2.3897  0.3782
 7933TIP3   OH245289   5.503   3.121   0.164 -0.5350 -0.7568 -0.0805
 7933TIP3    H145290   5.510   3.182   0.237  0.6697 -0.4020 -0.4688
 7933TIP3    H245291   5.410   3.104   0.155 -0.7903  0.1682  0.7375
 7934TIP3   OH245292   2.474   5.565   2.250  0.1507 -0.6396 -0.0650
 7934TIP3    H145293   2.385   5.538   2.274  0.1802  0.8361  1.9204
 7934TIP3    H245294   2.478   5.556   2.155 -2.5108  0.3570 -0.3064
 7935TIP3   OH245295   2.037   6.660   3.892 -0.5536 -0.2736  0.3498
 7935TIP3    H145296   2.080   6.598   3.833 -0.5177 -0.9154  1.0336
 7935TIP3    H245297   1.949   6.671   3.855 -0.4318 -0.4331  0.0068
 7936TIP3   OH245298   2.521   3.434   3.002  0.0564 -0.4795 -0.3199
 7936TIP3    H145299   2.538   3.457   2.911 -0.6776 -0.0434 -0.3499
 7936TIP3    H245300   2.600   3.388   3.031  0.3051 -0.5744 -1.1593
 7937TIP3   OH245301   2.974   1.179   1.141  0.6387 -0.2933  0.2293
 7937TIP3    H145302   2.898   1.187   1.083  0.5814  0.1581  0.3622
 7937TIP3    H245303   3.016   1.097   1.115 -1.0552 -1.6316  1.5023
 7938TIP3   OH245304   1.449   6.023   4.398 -0.5284  0.1556  0.5324
 7938TIP3    H145305   1.492   5.967   4.334 -0.2400  0.7706  0.1805
 7938TIP3    H245306   1.370   6.054   4.354  0.1008  1.2584  0.1508
 7939TIP3   OH245307   5.119   3.144  13.910  0.7973 -0.1287  0.3631
 7939TIP3    H145308   5.195   3.098  13.873  0.8132 -0.4472  0.7934
 7939TIP3    H245309   5.044   3.091  13.883  0.6604  0.5207 -0.5957
 7940TIP3   OH245310   3.085   6.445   6.297  0.1831 -0.3975  0.0961
 7940TIP3    H145311   3.087   6.356   6.333  1.0199 -0.5923 -0.4255
 7940TIP3    H245312   3.096   6.434   6.203  2.6058  0.3667  0.2416
 7941TIP3   OH245313   3.829   1.376   3.145  0.5121 -0.6224  0.0466
 7941TIP3    H145314   3.772   1.305   3.116 -1.4289  0.6945  0.5060
 7941TIP3    H245315   3.807   1.388   3.237  0.2682  1.0227 -0.1952
 7942TIP3   OH245316   1.806   6.552  14.193 -0.6077 -0.2345  0.3632
 7942TIP3    H145317   1.869   6.491  14.230  0.3354  0.8088  0.4974
 7942TIP3    H245318   1.722   6.523  14.227  0.0335 -0.3984  1.8419
 7943TIP3   OH245319   6.511   4.723   4.664 -0.1090 -0.1885 -0.6480
 7943TIP3    H145320   6.475   4.677   4.740  0.2535  0.3112 -0.1711
 7943TIP3    H245321   6.440   4.720   4.600 -0.2953 -0.9146 -0.4197
 7944TIP3   OH245322   6.809   0.955  12.259  0.7754 -0.1988  0.4633
 7944TIP3    H145323   6.796   0.958  12.354  3.3335  1.2502  0.8054
 7944TIP3    H245324   6.768   1.036  12.227 -0.5270 -0.9254  0.2349
 7945TIP3   OH245325   1.169   4.972   5.233 -0.5417  0.9292 -0.2152
 7945TIP3    H145326   1.157   4.950   5.325 -2.0266 -0.2147 -0.6591
 7945TIP3    H245327   1.233   5.043   5.233  2.9873 -2.1071  1.3642
 7946TIP3   OH245328   2.898   0.386   2.702 -0.0750 -0.5531 -0.1440
 7946TIP3    H145329   2.863   0.301   2.729  2.1668 -1.8593 -1.2128
 7946TIP3    H245330   2.832   0.421   2.642 -1.4419 -1.1154  1.0003
 7947TIP3   OH245331   3.414   2.762   0.130  0.5679  0.0941  0.4012
 7947TIP3    H145332   3.345   2.776   0.194 -1.3609 -1.8554 -1.1869
 7947TIP3    H245333   3.485   2.721   0.179 -0.3783 -0.2030  1.5389
 7948TIP3   OH245334   5.762   4.678  11.130  0.5273  0.0981  0.4382
 7948TIP3    H145335   5.839   4.712  11.176  1.1679 -2.1937  1.1029
 7948TIP3    H245336   5.797   4.612  11.070 -0.6345  1.0336 -1.3156
 7949TIP3   OH245337   6.720   3.270  10.899 -0.2704  0.4487 -0.4218
 7949TIP3    H145338   6.633   3.297  10.870 -0.2699  1.3248  0.3632
 7949TIP3    H245339   6.712   3.263  10.994 -0.0154 -1.4374 -0.5131
 7950TIP3   OH245340   5.409   6.470   1.497 -0.1215  0.4938  0.0267
 7950TIP3    H145341   5.391   6.386   1.537  0.1228  1.0268  1.2692
 7950TIP3    H245342   5.447   6.449   1.411  0.3187 -0.6499  0.5001
 7951TIP3   OH245343   5.071   3.933  15.622  0.2851 -0.0433 -0.3314
 7951TIP3    H145344   5.090   3.884  15.542  0.2344 -0.9746  0.2276
 7951TIP3    H245345   5.156   3.966  15.650  0.5632 -1.1970  0.1958
 7952TIP3   OH245346   1.974   1.415  15.665  0.4376 -0.2910  0.0986
 7952TIP3    H145347   2.066   1.390  15.671  0.1389 -1.5010 -0.0921
 7952TIP3    H245348   1.927   1.331  15.662 -0.6826  0.3096  0.4448
 7953TIP3   OH245349   6.015   1.848   4.839  0.0200  0.4958 -0.9442
 7953TIP3    H145350   6.027   1.937   4.805  0.9072  1.1522  0.9853
 7953TIP3    H245351   5.940   1.854   4.898  0.3203  0.0543 -0.5104
 7954TIP3   OH245352   0.252   5.975   4.511 -0.4070  0.5481 -0.5631
 7954TIP3    H145353   0.211   6.043   4.458 -2.1772  1.0584  1.4134
 7954TIP3    H245354   0.318   6.020   4.563 -0.3005  0.4344 -0.5971
 7955TIP3   OH245355   6.086   5.136  11.101 -0.0516  0.0405  0.4966
 7955TIP3    H145356   6.128   5.054  11.071 -1.0550 -0.6084  0.8571
 7955TIP3    H245357   6.031   5.109  11.174 -2.9923  0.4676 -1.4941
 7956TIP3   OH245358   1.176   2.954  12.338  0.2514 -0.5909  0.0576
 7956TIP3    H145359   1.096   2.996  12.304  0.4620 -0.8071 -0.7044
 7956TIP3    H245360   1.247   3.013  12.312  0.3690 -0.5302  0.5134
 7957TIP3   OH245361   3.679   5.953  13.966 -0.5073  0.3218  0.5928
 7957TIP3    H145362   3.670   5.924  14.057  0.0531 -0.5922  0.3633
 7957TIP3    H245363   3.770   5.933  13.944 -0.4632  1.1271  0.0305
 7958TIP3   OH245364   2.668   2.983   1.855 -0.0450 -0.9630 -0.5003
 7958TIP3    H145365   2.693   3.034   1.778 -0.5137 -0.2093 -0.1467
 7958TIP3    H245366   2.732   2.911   1.857 -0.1897 -1.1307 -1.7398
 7959TIP3   OH245367   2.150   3.288  12.727  0.0558 -0.0244 -0.5425
 7959TIP3    H145368   2.182   3.348  12.659  0.0342  0.8930  0.2430
 7959TIP3    H245369   2.055   3.289  12.717  0.1930 -2.1673 -2.3865
 7960TIP3   OH245370   1.025   3.788  17.243 -0.4747  0.1459 -0.3536
 7960TIP3    H145371   1.005   3.769  17.334  1.7894 -0.8195 -0.0502
 7960TIP3    H245372   1.064   3.708  17.209 -0.1488  0.9147 -1.8408
 7961TIP3   OH245373   0.167   2.576  14.898 -0.0709  0.0944 -0.7642
 7961TIP3    H145374   0.249   2.607  14.859  0.3488  0.3177  0.2726
 7961TIP3    H245375   0.099   2.616  14.844  0.5022 -0.1949 -1.7131
 7962TIP3   OH245376   3.734   2.058  15.024 -0.4280  0.0434  0.3180
 7962TIP3    H145377   3.668   1.991  15.043 -1.1465  1.1071  1.6613
 7962TIP3    H245378   3.801   2.046  15.091 -0.9328  1.1473  1.0357
 7963TIP3   OH245379   6.580   5.026  16.115  0.0588  0.3404  0.3581
 7963TIP3    H145380   6.650   5.036  16.180 -0.6836  1.6621  0.9841
 7963TIP3    H245381   6.578   5.110  16.069  0.4814 -0.5411 -1.2883
 7964TIP3   OH245382   6.489   0.326   1.617 -0.2808  0.1145 -0.2919
 7964TIP3    H145383   6.455   0.280   1.694  1.9215 -0.0077  0.6469
 7964TIP3    H245384   6.468   0.418   1.633 -0.2149  0.0371  0.2584
 7965TIP3   OH245385   0.193   2.317   1.880 -0.3252 -0.2300 -0.2267
 7965TIP3    H145386   0.237   2.394   1.845 -0.9697  0.0339 -0.4670
 7965TIP3    H245387   0.175   2.263   1.804  0.4390 -0.7904 -0.0205
 7966TIP3   OH245388   0.669   5.657   2.481  0.7421  0.2381  0.6733
 7966TIP3    H145389   0.623   5.620   2.405 -0.9336  1.5179  1.0497
 7966TIP3    H245390   0.672   5.585   2.544 -0.8353  0.1497  0.6700
 7967TIP3   OH245391   2.126   0.619   3.720 -0.1980  0.0126 -0.0226
 7967TIP3    H145392   2.094   0.548   3.665 -1.4054  1.8197 -1.7290
 7967TIP3    H245393   2.096   0.597   3.808  0.4977 -2.1835 -0.3000
 7968TIP3   OH245394   0.812   1.985   2.944 -0.0289  0.2154 -0.3323
 7968TIP3    H145395   0.725   2.019   2.926  0.7666  2.9950  0.9197
 7968TIP3    H245396   0.869   2.062   2.943  2.5469 -1.6227 -1.8033
 7969TIP3   OH245397   2.248   3.341  12.991 -0.0970  0.2527  0.4220
 7969TIP3    H145398   2.254   3.264  13.048  2.2249  0.3476  0.3604
 7969TIP3    H245399   2.214   3.307  12.908 -2.8717 -0.0010  1.6000
 7970TIP3   OH245400   4.200   4.621  14.185 -0.1627 -0.1924  0.6380
 7970TIP3    H145401   4.115   4.660  14.163  0.3916  0.1075 -0.9984
 7970TIP3    H245402   4.262   4.693  14.177  0.4106 -0.6785  0.7054
 7971TIP3   OH245403   2.060   4.992   5.309 -0.5407 -0.5178  0.0014
 7971TIP3    H145404   2.085   4.985   5.216  0.0132  2.2201 -0.0747
 7971TIP3    H245405   2.119   4.930   5.353 -0.6710 -1.7133 -1.4212
 7972TIP3   OH245406   4.674   5.367  11.968 -0.3377  0.0711 -0.4015
 7972TIP3    H145407   4.766   5.382  11.945 -0.0623 -0.3379  0.4091
 7972TIP3    H245408   4.626   5.386  11.888  0.5433 -0.7366 -1.1336
 7973TIP3   OH245409   4.942   5.176   0.137  0.3781  0.0581 -0.0221
 7973TIP3    H145410   4.926   5.260   0.179 -1.4932  0.4354 -1.4300
 7973TIP3    H245411   4.858   5.131   0.140  0.3177 -0.1205 -2.8247
 7974TIP3   OH245412   2.821   6.139   2.624 -0.4225  0.3470 -0.5398
 7974TIP3    H145413   2.893   6.142   2.686 -2.8020 -0.4455  2.4128
 7974TIP3    H245414   2.778   6.055   2.642 -2.2047  0.9179 -2.0249
 7975TIP3   OH245415   1.382   4.820   4.285  0.6709 -0.5028 -0.1045
 7975TIP3    H145416   1.355   4.905   4.320  0.6958 -0.6763  0.3430
 7975TIP3    H245417   1.429   4.778   4.358  2.1187 -0.2161 -0.8392
 7976TIP3   OH245418   1.894   6.632  12.994  0.1756 -0.4669 -0.0621
 7976TIP3    H145419   1.897   6.667  13.083  0.2319 -0.5841 -0.0198
 7976TIP3    H245420   1.952   6.556  12.995  1.4582  0.4844 -0.6235
 7977TIP3   OH245421   1.066   2.037  16.067 -0.7614 -0.0421 -0.2424
 7977TIP3    H145422   1.125   1.967  16.037 -0.7488 -0.5637  0.9589
 7977TIP3    H245423   1.001   2.045  15.997  0.8076  0.6435 -1.6634
 7978TIP3   OH245424   4.666   1.563   4.387 -0.4992 -0.0877 -0.0930
 7978TIP3    H145425   4.738   1.580   4.326 -0.2242  0.1790  0.3002
 7978TIP3    H245426   4.606   1.506   4.339 -0.9930  1.2721 -1.1269
 7979TIP3   OH245427   2.038   6.708   5.542 -0.2852 -0.5643  0.6724
 7979TIP3    H145428   2.070   6.734   5.455 -1.8440  0.4602  0.3918
 7979TIP3    H245429   2.033   6.790   5.591  0.9796 -1.1976  1.8759
 7980TIP3   OH245430   0.986   1.890  16.561  0.3792 -0.2913 -0.7451
 7980TIP3    H145431   0.966   1.888  16.468  0.2956 -3.1474 -0.6987
 7980TIP3    H245432   0.904   1.862  16.604  1.6757 -3.2727 -0.0915
 7981TIP3   OH245433   2.712   5.228   6.137  0.5313 -0.7866  0.0587
 7981TIP3    H145434   2.695   5.316   6.170 -2.1216 -1.6679  1.1875
 7981TIP3    H245435   2.797   5.235   6.094  0.8881  2.0510  1.0862
 7982TIP3   OH245436   1.503   0.169   3.948  0.7831  0.0341 -0.5482
 7982TIP3    H145437   1.453   0.129   3.878 -1.0747  1.8997 -0.3156
 7982TIP3    H245438   1.510   0.101   4.015 -2.0285 -0.0524 -0.3101
 7983TIP3   OH245439   5.698   0.923   6.064  0.5095  0.1669  0.1112
 7983TIP3    H145440   5.676   0.845   6.012  0.2195  1.2979 -1.5298
 7983TIP3    H245441   5.624   0.934   6.123 -1.5570  1.5959 -2.5838
 7984TIP3   OH245442   6.184   3.136  10.765 -0.2200 -0.5560 -0.2430
 7984TIP3    H145443   6.111   3.101  10.714  0.0551 -0.8773 -0.4188
 7984TIP3    H245444   6.260   3.125  10.708  0.0018 -0.4329  0.0325
 7985TIP3   OH245445   4.744   1.899  12.183 -0.0629 -0.1341  0.1543
 7985TIP3    H145446   4.689   1.967  12.221  0.2829  0.3635 -0.2285
 7985TIP3    H245447   4.686   1.849  12.126 -0.3881 -0.3514  0.6777
 7986TIP3   OH245448   0.470   6.537  13.204 -0.1134  0.5997  0.1955
 7986TIP3    H145449   0.412   6.614  13.208 -0.3617  0.3149  3.1663
 7986TIP3    H245450   0.511   6.533  13.291  1.5536 -1.3814 -0.6341
 7987TIP3   OH245451   0.569   4.777  13.945  0.4362  0.6228 -0.0936
 7987TIP3    H145452   0.611   4.693  13.966  1.4584  1.1308 -0.0824
 7987TIP3    H245453   0.558   4.776  13.850  0.1648  0.3465 -0.0596
 7988TIP3   OH245454   5.625   6.128   4.433 -0.0442 -0.1350 -0.3066
 7988TIP3    H145455   5.571   6.104   4.358 -0.6938 -1.3698  0.5361
 7988TIP3    H245456   5.634   6.047   4.483  1.4060  0.3895  0.3149
 7989TIP3   OH245457   3.435   5.668  13.295  0.4809  0.2447  0.3856
 7989TIP3    H145458   3.496   5.741  13.294 -1.5817  2.0317  1.6869
 7989TIP3    H245459   3.431   5.641  13.387  0.0731 -0.5406  0.1435
 7990TIP3   OH245460   4.050   1.373  16.858  0.5443 -0.3763 -0.8459
 7990TIP3    H145461   3.988   1.431  16.813  1.0516  0.9838  0.1737
 7990TIP3    H245462   4.000   1.294  16.876  0.2918 -0.8788 -3.6413
 7991TIP3   OH245463   2.177   0.568   0.927 -0.2430 -0.3904  1.0940
 7991TIP3    H145464   2.175   0.598   0.836  2.0628  1.1677  1.5219
 7991TIP3    H245465   2.198   0.475   0.921  0.7011 -0.1213  0.0350
 7992TIP3   OH245466   0.587   2.165   3.657  0.0016  0.7291 -0.2480
 7992TIP3    H145467   0.528   2.158   3.731  1.8009  1.5947  1.3247
 7992TIP3    H245468   0.530   2.162   3.580 -1.8942 -0.1350  1.1540
 7993TIP3   OH245469   3.281   4.185   0.965 -0.5570  0.2539 -0.1738
 7993TIP3    H145470   3.269   4.276   0.938  0.7238  0.3434 -0.4923
 7993TIP3    H245471   3.299   4.191   1.059  0.7027  0.4437 -0.4163
 7994TIP3   OH245472   4.156   6.316  17.031 -0.4336 -0.1852  0.3831
 7994TIP3    H145473   4.148   6.230  16.989  1.0139 -0.0493 -0.2284
 7994TIP3    H245474   4.106   6.375  16.974  0.5363 -0.2183 -0.5305
 7995TIP3   OH245475   6.305   2.930   4.389 -0.3484  0.9603 -0.0172
 7995TIP3    H145476   6.353   3.013   4.379 -0.1262  0.7757 -0.4851
 7995TIP3    H245477   6.374   2.865   4.405 -0.3327  0.4727 -1.9965
 7996TIP3   OH245478   1.719   3.356   3.941  0.3968 -0.1885  0.4228
 7996TIP3    H145479   1.734   3.262   3.951 -0.1448 -0.6440 -2.4626
 7996TIP3    H245480   1.798   3.388   3.896  0.8693  0.8757  1.9732
 7997TIP3   OH245481   6.746   0.619   0.745  0.1648 -0.0628 -0.1037
 7997TIP3    H145482   6.747   0.626   0.650 -2.3022  0.7321 -0.0940
 7997TIP3    H245483   6.700   0.537   0.763 -1.7826  1.1235  0.4287
 7998TIP3   OH245484   5.890   3.106  15.834  0.1115  0.4338  0.2016
 7998TIP3    H145485   5.813   3.057  15.864  0.6987 -1.2550 -0.9133
 7998TIP3    H245486   5.954   3.095  15.904 -0.3130  0.9508  0.6673
 7999TIP3   OH245487   4.129   6.516  11.623 -0.5486 -0.3125 -0.0128
 7999TIP3    H145488   4.157   6.603  11.594  0.8540 -0.6426  0.3031
 7999TIP3    H245489   4.206   6.479  11.667 -1.1133 -1.7300 -0.1752
 8000TIP3   OH245490   5.609   2.533  11.295  0.0711  0.1450  0.1147
 8000TIP3    H145491   5.524   2.500  11.323  0.5113 -1.8897 -0.8630
 8000TIP3    H245492   5.616   2.618  11.337 -3.2000  1.1442 -1.1969
 8001TIP3   OH245493   3.154   1.904  14.631  0.1640  0.3454 -0.4211
 8001TIP3    H145494   3.115   1.818  14.645 -2.1161  1.0122 -2.1723
 8001TIP3    H245495   3.203   1.895  14.550 -1.8376  1.1841 -1.7768
 8002TIP3   OH245496   4.195   6.305  14.457 -0.0918 -0.6875  0.2690
 8002TIP3    H145497   4.150   6.389  14.448 -1.2706 -1.3283  0.0578
 8002TIP3    H245498   4.254   6.317  14.532 -0.2006  0.3446  0.1956
 8003TIP3   OH245499   5.523   5.924  16.941 -0.0541 -0.5295 -0.1393
 8003TIP3    H145500   5.480   5.857  16.888  0.0763 -0.7271  0.0046
 8003TIP3    H245501   5.472   6.004  16.926 -0.3347 -0.7095 -0.1444
 8004TIP3   OH245502   4.880   5.450   4.754 -0.3180 -0.1927 -0.0447
 8004TIP3    H145503   4.927   5.478   4.833 -1.8634  3.5634 -0.3539
 8004TIP3    H245504   4.912   5.507   4.685 -0.4951 -2.0707 -1.7425
 8005TIP3   OH245505   1.426   4.099   3.396  0.2411  0.5120  0.1743
 8005TIP3    H145506   1.467   4.163   3.453 -1.2923  1.6288  0.0497
 8005TIP3    H245507   1.334   4.126   3.391 -0.3832 -1.5438 -0.0666
 8006TIP3   OH245508   4.379   0.011  16.327  0.2936 -0.1396  0.4030
 8006TIP3    H145509   4.326   0.070  16.274 -1.1052  1.2710  3.2345
 8006TIP3    H245510   4.461   0.059  16.341 -0.5031  0.8262  1.9608
 8007TIP3   OH245511   6.505   5.179  14.567  0.1756 -0.2012  0.1755
 8007TIP3    H145512   6.439   5.211  14.629  0.9254  1.4598  0.1236
 8007TIP3    H245513   6.455   5.156  14.489 -0.5223 -0.3605  0.6598
 8008TIP3   OH245514   3.120   3.295  11.354  0.1585  0.4202  0.3301
 8008TIP3    H145515   3.209   3.311  11.386  0.4824  0.6741 -0.7024
 8008TIP3    H245516   3.131   3.264  11.264 -0.8171  0.7949  0.0691
 8009TIP3   OH245517   1.128   0.850   1.360 -0.2250  0.2390  0.1815
 8009TIP3    H145518   1.167   0.893   1.284  1.7967 -0.6995  0.6563
 8009TIP3    H245519   1.079   0.920   1.404  0.7690  1.4203 -0.5316
 8010TIP3   OH245520   3.284   1.689  12.824 -0.5861  0.4511  0.4106
 8010TIP3    H145521   3.369   1.725  12.796  0.6477 -2.0043  0.8901
 8010TIP3    H245522   3.236   1.765  12.855  1.0796  2.0436 -0.7485
 8011TIP3   OH245523   6.040   5.280   0.323  0.0849  0.1533  0.5851
 8011TIP3    H145524   5.962   5.249   0.369 -0.5232  0.7072 -0.0487
 8011TIP3    H245525   6.007   5.311   0.239  1.2500 -1.2570 -0.4038
 8012TIP3   OH245526   3.096   0.418   5.785  0.4765  0.1447  0.0488
 8012TIP3    H145527   3.122   0.328   5.803 -0.4823  0.0305  0.8950
 8012TIP3    H245528   3.179   0.466   5.777  0.9799 -0.6966  0.1500
 8013TIP3   OH245529   5.856   1.770  16.546 -0.3058  0.0201 -0.2963
 8013TIP3    H145530   5.949   1.760  16.526  0.2531  0.4363  1.9441
 8013TIP3    H245531   5.819   1.816  16.470  1.6329  1.2422 -0.5196
 8014TIP3   OH245532   0.079   5.681   4.001  0.0509 -0.4614  0.0218
 8014TIP3    H145533   0.033   5.612   3.953  0.7704 -1.1505  0.2991
 8014TIP3    H245534   0.146   5.634   4.051  2.2815  0.6575 -1.7970
 8015TIP3   OH245535   5.916   5.876   2.064 -0.1927  0.1986  0.3109
 8015TIP3    H145536   5.849   5.822   2.022  0.6845 -0.5302 -0.1543
 8015TIP3    H245537   5.928   5.949   2.004 -1.3290  0.8900  0.9069
 8016TIP3   OH245538   4.761   6.819  17.001  0.2857  0.4868  0.4317
 8016TIP3    H145539   4.796   6.753  17.061  0.3735  0.8212  0.7527
 8016TIP3    H245540   4.726   6.887  17.058 -0.0045  0.6137  0.1056
 8017TIP3   OH245541   1.335   5.098  16.558  0.1189 -0.0912  0.7436
 8017TIP3    H145542   1.393   5.140  16.622 -0.7299  0.4827  1.1504
 8017TIP3    H245543   1.291   5.028  16.607  0.2319 -0.3146  0.5261
 8018TIP3   OH245544   0.677   2.634  14.183 -0.0185 -0.2433 -0.0699
 8018TIP3    H145545   0.665   2.554  14.234  1.7173 -0.4292  0.0714
 8018TIP3    H245546   0.681   2.603  14.092 -1.8371 -0.0380 -0.2500
 8019TIP3   OH245547   1.758   3.125  16.262  0.2052 -0.3864  0.0934
 8019TIP3    H145548   1.802   3.123  16.177  0.2022  0.3818  0.0757
 8019TIP3    H245549   1.673   3.164  16.244 -0.5106 -1.8896  0.1235
 8020TIP3   OH245550   6.493   4.194  12.526 -0.9440 -0.1830 -0.0480
 8020TIP3    H145551   6.418   4.228  12.478  0.1145  2.1141 -0.1762
 8020TIP3    H245552   6.523   4.268  12.579  2.0750 -0.5491 -1.1003
 8021TIP3   OH245553   0.633   2.398  15.431 -0.5545  0.1306 -0.1874
 8021TIP3    H145554   0.599   2.480  15.396 -1.6273  0.1537  0.8876
 8021TIP3    H245555   0.577   2.331  15.392 -0.3751 -0.0102 -0.2030
 8022TIP3   OH245556   4.289   5.468   1.403  0.4705 -0.1139 -0.2473
 8022TIP3    H145557   4.309   5.375   1.411  0.6649  0.0356  1.2898
 8022TIP3    H245558   4.214   5.481   1.462  0.3554  0.6646 -0.5620
 8023TIP3   OH245559   1.595   1.039   0.786  0.1147  0.1630  0.4740
 8023TIP3    H145560   1.585   1.047   0.691  0.5644  0.7964  0.4772
 8023TIP3    H245561   1.675   0.989   0.797 -0.1559 -0.2639  0.5180
 8024TIP3   OH245562   3.641   1.824   0.453  0.2452  0.3761  0.6314
 8024TIP3    H145563   3.714   1.887   0.452  0.3114  0.2988  0.4794
 8024TIP3    H245564   3.639   1.790   0.363 -0.9072  1.4513  0.2381
 8025TIP3   OH245565   3.803   2.217   2.447 -0.1701 -0.3525 -0.3692
 8025TIP3    H145566   3.738   2.283   2.470  1.7826  1.2266  0.7482
 8025TIP3    H245567   3.775   2.138   2.493 -0.8768  0.5150  0.7146
 8026TIP3   OH245568   5.616   1.616  13.848  0.1666  0.1224 -0.3161
 8026TIP3    H145569   5.542   1.561  13.822  2.0777 -3.0101  0.5601
 8026TIP3    H245570   5.662   1.636  13.767  0.0851 -0.5614 -0.5351
 8027TIP3   OH245571   1.140   1.327   2.499  0.4746  0.4621 -0.0922
 8027TIP3    H145572   1.107   1.411   2.466 -1.2937  0.3855  1.4270
 8027TIP3    H245573   1.107   1.263   2.436 -1.2528  0.5322  0.6986
 8028TIP3   OH245574   3.308   3.659  11.857 -0.1744 -0.1510  0.1201
 8028TIP3    H145575   3.326   3.595  11.927 -3.7774 -0.4853  0.8181
 8028TIP3    H245576   3.283   3.605  11.782  1.3156  0.3057 -0.7171
 8029TIP3   OH245577   4.397   5.056   4.723  0.0626  0.2637  0.0664
 8029TIP3    H145578   4.369   4.964   4.727  0.4730  0.0541 -1.6969
 8029TIP3    H245579   4.355   5.091   4.644  0.7152  1.3278  0.1809
 8030TIP3   OH245580   5.142   1.869  16.966  0.2346 -0.1031 -0.4285
 8030TIP3    H145581   5.195   1.795  16.996 -0.9136  0.3098  2.9055
 8030TIP3    H245582   5.060   1.830  16.937  0.3695 -0.2924 -0.5562
 8031TIP3   OH245583   2.944   4.060   1.334  0.3581  1.0032 -0.1489
 8031TIP3    H145584   2.881   4.125   1.302  0.1863  0.9031 -0.0184
 8031TIP3    H245585   2.914   4.040   1.422 -0.3542 -0.2239 -0.6629
 8032TIP3   OH245586   6.451   4.958   5.795 -0.3466  0.3826  0.7041
 8032TIP3    H145587   6.400   4.891   5.749 -0.4836  0.5242  0.6490
 8032TIP3    H245588   6.504   4.999   5.726  1.1957 -0.9847  1.0497
 8033TIP3   OH245589   6.770   4.586  13.751 -0.5219  0.5182  0.0366
 8033TIP3    H145590   6.717   4.619  13.679 -0.7489 -2.1512 -1.0588
 8033TIP3    H245591   6.819   4.663  13.782 -1.2212  1.9200 -2.2245
 8034TIP3   OH245592   4.908   5.387   3.960 -0.5180 -0.5191 -0.0337
 8034TIP3    H145593   4.847   5.401   3.887  0.1616 -0.0244 -0.5054
 8034TIP3    H245594   4.904   5.468   4.010 -2.3724 -1.5253  1.5346
 8035TIP3   OH245595   3.238   1.765  15.702  0.1018 -0.0698  0.1869
 8035TIP3    H145596   3.232   1.687  15.757  2.2253  0.2337  0.8927
 8035TIP3    H245597   3.241   1.731  15.612 -1.4872 -0.6522  0.3347
 8036TIP3   OH245598   3.860   4.580  17.171 -0.4418 -0.4923 -0.1106
 8036TIP3    H145599   3.771   4.611  17.158 -1.6959 -3.5888  0.7091
 8036TIP3    H245600   3.899   4.582  17.083 -1.2322  1.0838 -0.4413
 8037TIP3   OH245601   5.623   1.158   4.812 -0.4145  0.5111  0.6853
 8037TIP3    H145602   5.716   1.171   4.794 -0.5874 -1.5238 -2.0092
 8037TIP3    H245603   5.621   1.090   4.879  0.0351 -1.6784 -1.4522
 8038TIP3   OH245604   2.329   0.767   4.906  0.0126  0.2133 -0.2040
 8038TIP3    H145605   2.382   0.750   4.984 -2.2542 -0.1654  1.2952
 8038TIP3    H245606   2.366   0.848   4.870  1.9291 -0.3206  0.4885
 8039TIP3   OH245607   3.985   3.897   4.978 -0.7282  0.1288  0.4336
 8039TIP3    H145608   3.902   3.908   4.930 -0.1463  0.4049 -0.5200
 8039TIP3    H245609   3.987   3.805   5.003 -1.1896  0.0601  0.2173
 8040TIP3   OH245610   0.263   5.742  15.656 -0.2635  0.0289  0.2405
 8040TIP3    H145611   0.205   5.682  15.702  0.3460 -0.6013  0.1991
 8040TIP3    H245612   0.298   5.799  15.725 -0.1831 -0.2205  0.4057
 8041TIP3   OH245613   3.176   0.410   2.719  0.2934  0.5374  0.6615
 8041TIP3    H145614   3.213   0.323   2.729 -0.0240  0.0651 -2.0929
 8041TIP3    H245615   3.081   0.397   2.721  0.2253  1.0532  1.8558
 8042TIP3   OH245616   1.866   5.876   0.773  0.0314  0.1525  0.2808
 8042TIP3    H145617   1.957   5.847   0.786 -0.5423 -0.8021  2.4347
 8042TIP3    H245618   1.827   5.808   0.718 -0.5476 -1.8415  3.0229
 8043TIP3   OH245619   0.656   5.372   1.569 -0.5318  0.0213 -0.0275
 8043TIP3    H145620   0.696   5.308   1.627  1.0227  0.6136 -0.4107
 8043TIP3    H245621   0.725   5.436   1.552 -1.1778  0.2695 -1.9228
 8044TIP3   OH245622   0.530   1.367  14.350 -0.3747  0.0824  0.1685
 8044TIP3    H145623   0.522   1.434  14.418 -3.1222 -0.0283  0.0115
 8044TIP3    H245624   0.588   1.407  14.285 -0.1633  1.4007  1.1264
 8045TIP3   OH245625   2.369   6.496   3.219  0.0197  0.0315 -0.9545
 8045TIP3    H145626   2.453   6.456   3.243 -0.4547 -0.2219  0.2991
 8045TIP3    H245627   2.365   6.487   3.123  0.6671 -1.4303 -0.8573
 8046TIP3   OH245628   4.242   5.478  13.271  0.2581 -0.0571  0.5139
 8046TIP3    H145629   4.189   5.405  13.236  0.4504  0.3729 -0.6834
 8046TIP3    H245630   4.177   5.542  13.301  0.0995  0.0765 -0.1206
 8047TIP3   OH245631   0.268   4.282   5.110 -0.4200  0.0632  0.0208
 8047TIP3    H145632   0.240   4.355   5.054 -0.0626 -0.0383 -0.2916
 8047TIP3    H245633   0.253   4.204   5.056  0.1621 -0.0148 -0.0308
 8048TIP3   OH245634   5.982   0.356   1.990  0.4182  0.3366 -0.0044
 8048TIP3    H145635   6.056   0.417   1.988  0.0130  0.8459  0.4536
 8048TIP3    H245636   5.963   0.340   1.897  0.2629  1.2379 -0.1382
 8049TIP3   OH245637   0.483   5.442  15.417  0.1145 -1.1938  0.4487
 8049TIP3    H145638   0.515   5.374  15.357 -1.3826 -1.4130 -0.1306
 8049TIP3    H245639   0.517   5.524  15.381 -0.0660 -1.4133 -0.2411
 8050TIP3   OH245640   1.471   1.709  15.595 -0.2079  0.5051  0.1652
 8050TIP3    H145641   1.471   1.761  15.676 -1.3589  0.7974 -0.0058
 8050TIP3    H245642   1.443   1.622  15.623 -0.3176  0.5287  0.1288
 8051TIP3   OH245643   4.006   3.165  12.669 -0.0785  0.0181 -0.4029
 8051TIP3    H145644   3.922   3.148  12.713  0.1726 -0.7870 -0.2304
 8051TIP3    H245645   3.982   3.216  12.592 -0.8352 -0.9068 -0.8043
 8052TIP3   OH245646   2.131   4.915   2.337  0.3138 -0.0694 -0.0131
 8052TIP3    H145647   2.210   4.967   2.346  0.2564  0.5105 -2.4053
 8052TIP3    H245648   2.105   4.894   2.426  3.0735 -0.1450  0.7949
 8053TIP3   OH245649   0.540   2.028  15.476 -0.5120  0.8653 -0.0392
 8053TIP3    H145650   0.579   1.963  15.417 -0.1304  1.5095 -0.5061
 8053TIP3    H245651   0.446   2.011  15.472 -0.2929 -0.9282  1.3577
 8054TIP3   OH245652   3.959   2.162  13.140 -0.0891  0.7594 -0.5324
 8054TIP3    H145653   3.962   2.152  13.235 -0.8211 -1.4768 -0.7177
 8054TIP3    H245654   3.871   2.195  13.122 -0.8242 -1.1386 -0.5853
 8055TIP3   OH245655   3.393   2.841   5.920 -0.3030 -0.1799 -0.3719
 8055TIP3    H145656   3.366   2.860   6.009  0.1215 -0.6260 -0.1474
 8055TIP3    H245657   3.479   2.799   5.929  0.5636  1.3559 -1.0744
 8056TIP3   OH245658   3.359   5.181   5.958  0.3562 -0.1130  0.3310
 8056TIP3    H145659   3.284   5.240   5.957  0.6070  0.2185  0.8419
 8056TIP3    H245660   3.351   5.134   6.042  0.8644  0.1102  0.5045
 8057TIP3   OH245661   5.938   2.688  11.896 -0.3586 -0.2265 -0.1261
 8057TIP3    H145662   5.953   2.621  11.963 -0.4961 -0.4908 -0.3548
 8057TIP3    H245663   5.934   2.770  11.944 -0.4549 -0.4140  0.1892
 8058TIP3   OH245664   6.607   6.227   6.189 -0.0084  0.1384  0.1809
 8058TIP3    H145665   6.633   6.143   6.151 -1.9263 -0.4247  0.0478
 8058TIP3    H245666   6.612   6.213   6.283 -1.6808 -0.5845  0.1724
 8059TIP3   OH245667   0.739   1.919  14.638  0.1171  0.4446  0.0855
 8059TIP3    H145668   0.761   1.997  14.691  2.0671  0.2923 -0.4731
 8059TIP3    H245669   0.818   1.901  14.588 -0.7702 -1.1395 -0.7741
 8060TIP3   OH245670   0.479   3.750   4.728  0.2171 -0.2140 -0.4611
 8060TIP3    H145671   0.418   3.824   4.730  0.0561 -0.2766 -2.4353
 8060TIP3    H245672   0.436   3.685   4.673  0.6572 -1.5428  0.7386
 8061TIP3   OH245673   4.736   6.661   1.638  0.1456 -1.0382  0.0049
 8061TIP3    H145674   4.667   6.594   1.637 -2.2432  1.3370  0.1043
 8061TIP3    H245675   4.751   6.678   1.731 -1.9438  1.1604 -0.0066
 8062TIP3   OH245676   3.826   5.687  14.908 -0.2850  0.1302  0.7705
 8062TIP3    H145677   3.860   5.630  14.839 -0.3261 -0.5040  1.2780
 8062TIP3    H245678   3.904   5.731  14.943 -0.5022  2.3159 -1.3190
 8063TIP3   OH245679   2.535   2.051   3.607  0.0414  0.0907  0.2766
 8063TIP3    H145680   2.541   2.084   3.517  1.0201 -0.3353  0.1821
 8063TIP3    H245681   2.625   2.049   3.638 -0.3194  0.4276  1.3480
 8064TIP3   OH245682   1.758   1.297   5.216 -0.9501  0.2021  0.0336
 8064TIP3    H145683   1.674   1.342   5.211 -1.9064 -1.6490 -1.0993
 8064TIP3    H245684   1.741   1.223   5.275 -0.3858 -0.7225 -0.9538
 8065TIP3   OH245685   5.778   2.682   5.214 -0.0920  0.3226  0.5441
 8065TIP3    H145686   5.869   2.709   5.201 -0.2174  0.2575 -0.4674
 8065TIP3    H245687   5.730   2.724   5.143 -0.6201 -0.8083  0.2277
 8066TIP3   OH245688   3.954   1.716  10.777  0.0450  0.1047  0.4343
 8066TIP3    H145689   3.890   1.777  10.741 -1.2454 -0.7816  1.2038
 8066TIP3    H245690   4.032   1.729  10.723 -0.2575  2.3175  0.5053
 8067TIP3   OH245691   2.956   5.246   5.996 -0.1461 -0.3802  0.0271
 8067TIP3    H145692   3.044   5.268   6.027  0.4562 -1.5318 -0.8237
 8067TIP3    H245693   2.953   5.281   5.907  0.1638 -2.0666 -0.6600
 8068TIP3   OH245694   4.093   3.090   2.898 -0.5848 -0.0881  0.2152
 8068TIP3    H145695   4.079   3.060   2.988 -0.4968 -2.0009 -0.4048
 8068TIP3    H245696   4.120   3.182   2.908  0.2262 -0.5093  2.1883
 8069TIP3   OH245697   2.673   5.036  15.142 -0.2603  0.1894  0.2804
 8069TIP3    H145698   2.668   5.038  15.047 -1.1020  1.4120  0.3375
 8069TIP3    H245699   2.750   5.089  15.163 -1.6792  2.2856  0.3666
 8070TIP3   OH245700   2.693   1.462  14.222  0.0193  0.2036  0.1852
 8070TIP3    H145701   2.660   1.534  14.168 -0.3279  0.4501  0.7212
 8070TIP3    H245702   2.775   1.436  14.180 -2.0490 -2.0793 -2.6350
 8071TIP3   OH245703   3.178   0.040   5.257  0.2746 -0.2212 -0.2067
 8071TIP3    H145704   3.118  -0.003   5.318  0.1210  0.4765  0.1401
 8071TIP3    H245705   3.121   0.086   5.196  0.4248 -1.0659 -0.9990
 8072TIP3   OH245706   6.720   5.133   2.801  0.4958 -0.5769  0.0675
 8072TIP3    H145707   6.705   5.104   2.891  0.1577 -1.3644 -0.2388
 8072TIP3    H245708   6.807   5.174   2.804 -0.2262  0.9091  1.0982
 8073TIP3   OH245709   5.348   2.926  14.434  0.8558  0.5689  0.6497
 8073TIP3    H145710   5.412   2.953  14.500  2.0827 -0.3515 -0.1445
 8073TIP3    H245711   5.364   2.985  14.360  0.5936  0.5191  0.5533
 8074TIP3   OH245712   2.363   3.560   3.781  0.1951 -0.0869 -0.4057
 8074TIP3    H145713   2.272   3.586   3.786  0.3469  0.3549  0.0918
 8074TIP3    H245714   2.369   3.509   3.700 -0.1780  1.1249 -1.2095
 8075TIP3   OH245715   6.749   3.704  12.252  0.0886 -0.4234 -0.3169
 8075TIP3    H145716   6.795   3.770  12.305 -0.5963 -1.1185  1.1646
 8075TIP3    H245717   6.737   3.746  12.167 -0.9795  1.6578  0.8291
 8076TIP3   OH245718   2.350   0.824  13.374  0.3251 -0.4329 -0.1185
 8076TIP3    H145719   2.293   0.834  13.298 -0.5828 -1.1901  0.4420
 8076TIP3    H245720   2.438   0.812  13.338  0.0137 -0.0236 -1.0178
 8077TIP3   OH245721   4.695   0.721  16.882 -0.2480 -0.0677  0.2017
 8077TIP3    H145722   4.662   0.805  16.851  1.7196  0.0485 -1.6820
 8077TIP3    H245723   4.777   0.743  16.927 -1.7069 -0.5522  3.2906
 8078TIP3   OH245724   6.671   2.533  14.819  0.2928 -0.2537 -0.7871
 8078TIP3    H145725   6.617   2.605  14.789  0.3311 -0.0572 -0.3934
 8078TIP3    H245726   6.653   2.462  14.758  2.7969  1.1108 -3.2027
 8079TIP3   OH245727   2.070   6.345   1.545  0.7668  0.1117  0.5631
 8079TIP3    H145728   2.060   6.438   1.527  0.6445  0.1505  0.8349
 8079TIP3    H245729   2.101   6.308   1.462  1.4428  0.4963  0.6363
 8080TIP3   OH245730   3.922   6.545   1.173 -0.0104 -0.2072  0.5464
 8080TIP3    H145731   3.918   6.494   1.091 -0.8840  0.7408 -0.0145
 8080TIP3    H245732   4.014   6.544   1.196 -0.1794 -3.3949  1.4208
 8081TIP3   OH245733   0.930   0.943   1.634 -0.2360 -0.3933  0.5770
 8081TIP3    H145734   0.951   1.013   1.572  0.5986 -0.7137  0.4930
 8081TIP3    H245735   0.847   0.970   1.673 -0.3258  0.2453 -0.0411
 8082TIP3   OH245736   4.330   0.387  11.630 -0.5376  0.3194  0.6216
 8082TIP3    H145737   4.391   0.387  11.705 -1.4814  0.8995  1.4089
 8082TIP3    H245738   4.244   0.395  11.670 -0.8837  3.8524 -0.6387
 8083TIP3   OH245739   5.876   4.298   1.801  0.7902  1.0057  0.1125
 8083TIP3    H145740   5.967   4.323   1.790  0.7893  0.7921 -0.4015
 8083TIP3    H245741   5.856   4.246   1.723  0.3715  0.6461  0.4561
 8084TIP3   OH245742   0.448   2.703   2.015  0.3678  0.3202 -0.1864
 8084TIP3    H145743   0.462   2.639   1.945  0.4792  1.3802 -1.1419
 8084TIP3    H245744   0.523   2.762   2.009  0.2125  0.6089  0.6190
 8085TIP3   OH245745   6.718   4.548   2.191  0.1280 -0.8348  0.3257
 8085TIP3    H145746   6.805   4.521   2.163  0.6174  1.7412 -0.7699
 8085TIP3    H245747   6.730   4.579   2.281  0.2813 -0.7666  0.2814
 8086TIP3   OH245748   2.090   5.212   2.151  0.0594  0.0390 -0.1985
 8086TIP3    H145749   2.104   5.177   2.239  2.4752  0.4186 -0.3920
 8086TIP3    H245750   2.121   5.143   2.092  2.0145  1.2441 -0.6383
 8087TIP3   OH245751   3.524   5.904  15.522 -0.6202  0.0419  0.3681
 8087TIP3    H145752   3.604   5.865  15.487 -0.5840 -0.4446  0.9851
 8087TIP3    H245753   3.515   5.987  15.475 -0.6410 -0.6539 -0.8901
 8088TIP3   OH245754   1.421   6.405  11.576 -0.7363 -0.2131 -0.2908
 8088TIP3    H145755   1.515   6.403  11.559 -0.5730 -0.3116  0.6274
 8088TIP3    H245756   1.383   6.441  11.496  0.0207 -0.8085 -0.9301
 8089TIP3   OH245757   2.826   6.583   1.613  0.1514 -0.0114 -0.2982
 8089TIP3    H145758   2.891   6.530   1.566 -0.5750 -0.5961 -0.6488
 8089TIP3    H245759   2.752   6.590   1.552 -0.5110 -0.1745  0.4744
 8090TIP3   OH245760   0.282   0.690   2.567 -0.8194 -0.1154  0.1537
 8090TIP3    H145761   0.258   0.779   2.543  0.4349  0.0331 -0.5922
 8090TIP3    H245762   0.341   0.701   2.642  0.0520 -0.2657 -0.5048
 8091TIP3   OH245763   6.247   0.708   2.934 -0.7792 -0.1511 -0.5143
 8091TIP3    H145764   6.184   0.685   3.001  0.6732  2.1176  1.7248
 8091TIP3    H245765   6.202   0.692   2.851 -3.5366 -0.5053  1.0228
 8092TIP3   OH245766   4.717   1.815   5.370  0.0258  0.4925  0.7133
 8092TIP3    H145767   4.721   1.911   5.375 -0.4220  0.6691 -1.4387
 8092TIP3    H245768   4.625   1.794   5.387 -0.3830  0.6611 -1.1862
 8093TIP3   OH245769   3.081   5.800  11.356 -0.1770  0.4493 -0.4553
 8093TIP3    H145770   3.046   5.883  11.388  0.3531  1.0304 -1.3601
 8093TIP3    H245771   3.166   5.792  11.397  0.2706  0.9323 -1.2635
 8094TIP3   OH245772   3.075   1.334   5.879 -0.1951  0.3257 -0.4564
 8094TIP3    H145773   3.065   1.312   5.972  4.1654  1.2383  0.3341
 8094TIP3    H245774   3.046   1.256   5.833 -3.8422  0.3667  1.5272
 8095TIP3   OH245775   5.022   4.792   1.707  0.1982  0.2403 -0.0951
 8095TIP3    H145776   4.948   4.832   1.753 -0.0335 -0.6780  0.3370
 8095TIP3    H245777   4.995   4.789   1.615 -0.4947 -0.5260  0.1292
 8096TIP3   OH245778   5.756   0.407  13.685 -0.0535 -0.3387  0.0459
 8096TIP3    H145779   5.741   0.317  13.656 -1.7103 -0.1033  0.1654
 8096TIP3    H245780   5.700   0.460  13.628  0.5579  0.5790  0.2946
 8097TIP3   OH245781   1.027   3.476   5.943  0.0616 -0.1922  0.0018
 8097TIP3    H145782   1.077   3.556   5.930 -2.0858  0.9611 -1.6800
 8097TIP3    H245783   1.082   3.421   5.998  1.9787  2.0678  0.4210
 8098TIP3   OH245784   0.856   5.249   5.095  0.2845 -0.2183  0.2855
 8098TIP3    H145785   0.914   5.324   5.082  0.3442 -0.5310 -1.4402
 8098TIP3    H245786   0.886   5.184   5.031 -1.7210 -0.5105 -0.4009
 8099TIP3   OH245787   1.720   6.786   4.603 -0.2079  0.4901 -0.1482
 8099TIP3    H145788   1.711   6.861   4.663 -0.6888 -0.3044  0.7902
 8099TIP3    H245789   1.813   6.763   4.609 -0.0964  0.8905 -0.2908
 8100TIP3   OH245790   4.571   2.843   4.503  0.2654 -0.4619 -0.6849
 8100TIP3    H145791   4.640   2.801   4.450 -0.7494 -2.0966 -0.7409
 8100TIP3    H245792   4.614   2.920   4.541  2.3509 -1.8836 -0.0803
 8101TIP3   OH245793   6.743   4.514  16.351  0.9572 -0.0838  0.0799
 8101TIP3    H145794   6.723   4.430  16.391  1.6301 -0.2225  0.1408
 8101TIP3    H245795   6.809   4.553  16.409 -0.9980  1.5041  1.3139
 8102TIP3   OH245796   0.901   6.121  16.518  0.4003  0.6271 -0.2421
 8102TIP3    H145797   0.967   6.144  16.583 -2.2203  1.9417  2.0132
 8102TIP3    H245798   0.876   6.031  16.540 -1.1385  1.3885  1.1552
 8103TIP3   OH245799   4.133   3.710   2.321  0.3564  0.4115  0.6141
 8103TIP3    H145800   4.165   3.661   2.245  0.1283 -0.8356  1.3075
 8103TIP3    H245801   4.056   3.757   2.289 -0.9294 -1.6802  0.5485
 8104TIP3   OH245802   1.184   2.271  13.089 -0.2344 -0.2182  0.5753
 8104TIP3    H145803   1.192   2.281  13.184  3.1936 -0.2523  0.3367
 8104TIP3    H245804   1.252   2.208  13.065 -1.3288 -0.5337 -1.8747
 8105TIP3   OH245805   3.850   3.155  11.502  0.7038 -0.0927 -0.2787
 8105TIP3    H145806   3.844   3.248  11.523  0.5231 -0.1024 -0.2952
 8105TIP3    H245807   3.924   3.149  11.442  0.1153  0.1631 -1.0271
 8106TIP3   OH245808   6.783   0.367   0.638 -0.8150  0.4476  0.0074
 8106TIP3    H145809   6.696   0.353   0.600 -0.0659 -0.7915 -1.3358
 8106TIP3    H245810   6.829   0.285   0.621 -0.2410  0.0879  3.1461
 8107TIP3   OH245811   4.076   4.943   0.376 -0.1741  0.2975  0.2873
 8107TIP3    H145812   4.150   5.001   0.357  0.6835 -1.2774 -1.3786
 8107TIP3    H245813   4.041   4.921   0.289 -3.8831  2.5865  1.1042
 8108TIP3   OH245814   2.006   0.275   1.269 -0.4396  0.2768  0.4260
 8108TIP3    H145815   1.931   0.328   1.243 -0.7827  0.1431  1.1079
 8108TIP3    H245816   2.005   0.278   1.365 -0.6957 -1.2578  0.4876
 8109TIP3   OH245817   2.945   3.882  12.639  0.2354  0.0791 -0.7533
 8109TIP3    H145818   2.964   3.944  12.569 -0.1326  0.4513 -0.5270
 8109TIP3    H245819   2.863   3.913  12.677  1.2785  0.8707  0.9271
 8110TIP3   OH245820   2.434   6.560   5.658  0.4185  0.2720  0.0637
 8110TIP3    H145821   2.403   6.588   5.744 -0.5138  0.0755 -0.1999
 8110TIP3    H245822   2.529   6.556   5.666  0.3001 -0.2342  1.2299
 8111TIP3   OH245823   3.434   5.068  12.024 -0.3295 -0.3209  0.3602
 8111TIP3    H145824   3.436   5.104  11.935  0.2546 -0.9805  0.0984
 8111TIP3    H245825   3.519   5.025  12.033 -0.6408 -0.7917  1.0208
 8112TIP3   OH245826   6.367   6.618  11.932  0.1613  0.3480 -0.7653
 8112TIP3    H145827   6.382   6.610  11.837 -0.9654  2.3881 -1.1544
 8112TIP3    H245828   6.423   6.552  11.971  2.0669  0.7279 -2.7628
 8113TIP3   OH245829   5.729   3.795  15.946 -0.1322  0.4980 -0.4252
 8113TIP3    H145830   5.713   3.825  16.036  1.8830  2.3224 -0.6259
 8113TIP3    H245831   5.759   3.873  15.900 -0.1830 -0.6471 -2.4531
 8114TIP3   OH245832   0.265   5.455   5.044  0.3415 -0.4095  0.0652
 8114TIP3    H145833   0.279   5.518   4.973  2.5127 -1.3966 -0.4105
 8114TIP3    H245834   0.292   5.501   5.123  1.6802 -0.6176 -0.2524
 8115TIP3   OH245835   4.933   0.055  14.349  0.1661  0.0103  0.4806
 8115TIP3    H145836   5.025   0.041  14.370  0.3071  0.9072  0.5132
 8115TIP3    H245837   4.917   0.147  14.371 -0.0759  0.5705 -1.8689
 8116TIP3   OH245838   6.540   4.620  13.962 -0.1401 -0.3881  0.0703
 8116TIP3    H145839   6.601   4.565  13.913  0.8239 -1.6471  2.6154
 8116TIP3    H245840   6.454   4.581  13.945  0.0550 -0.2523 -1.3155
 8117TIP3   OH245841   1.376   3.801  15.103  0.1998 -0.5862  0.5330
 8117TIP3    H145842   1.462   3.758  15.094 -0.2420 -1.6776  1.5132
 8117TIP3    H245843   1.396   3.895  15.102  1.0464 -0.7234 -3.1652
 8118TIP3   OH245844   3.057   4.399  15.506  0.5463 -0.3779  0.1024
 8118TIP3    H145845   3.072   4.488  15.536  0.7222  0.0591 -1.2547
 8118TIP3    H245846   3.049   4.406  15.411 -0.8906 -1.6063  0.1007
 8119TIP3   OH245847   1.515   2.294   3.684 -0.0889 -0.4319 -0.0135
 8119TIP3    H145848   1.469   2.310   3.767  0.2061 -0.5678  0.1760
 8119TIP3    H245849   1.600   2.337   3.695  0.2087 -1.0243  0.0059
 8120TIP3   OH245850   1.252   5.697  15.301  0.2547  0.3694  0.1273
 8120TIP3    H145851   1.185   5.657  15.356 -1.8889  0.0458 -2.6482
 8120TIP3    H245852   1.301   5.623  15.265  0.0600  0.4839 -0.3701
 8121TIP3   OH245853   5.950   2.820  11.634  0.3968  0.8563 -0.0602
 8121TIP3    H145854   5.872   2.848  11.683  1.2684 -1.0414  2.5130
 8121TIP3    H245855   6.008   2.783  11.701  2.7124  0.4829 -2.2160
 8122TIP3   OH245856   1.060   5.400  13.726  0.0891 -0.2130  0.5803
 8122TIP3    H145857   1.048   5.305  13.731 -1.2441 -0.0609  0.4445
 8122TIP3    H245858   0.980   5.436  13.764  0.7916  0.8612  1.0512
 8123TIP3   OH245859   2.291   5.358  15.066 -0.1812 -0.2310 -0.0135
 8123TIP3    H145860   2.382   5.328  15.054  0.2385  1.0013 -0.0272
 8123TIP3    H245861   2.247   5.285  15.108  0.6709 -1.0846 -0.5625
 8124TIP3   OH245862   3.939   4.213   4.951  0.1046  0.7070  0.2994
 8124TIP3    H145863   3.879   4.145   4.921 -0.1712  0.3998  1.5085
 8124TIP3    H245864   3.944   4.275   4.879 -3.7374  2.1245  1.1525
 8125TIP3   OH245865   1.480   2.661  14.550  0.2230  0.0456  0.4492
 8125TIP3    H145866   1.544   2.715  14.504  0.1702  0.6806  1.0975
 8125TIP3    H245867   1.413   2.723  14.579 -1.3900 -0.7897 -1.3667
 8126TIP3   OH245868   6.468   2.635  11.624  0.6462 -0.3393  0.0556
 8126TIP3    H145869   6.387   2.676  11.655  0.1205  0.3250 -2.1078
 8126TIP3    H245870   6.452   2.541  11.631 -0.1207 -0.2064  0.1419
 8127TIP3   OH245871   6.481   1.315  12.037  0.5993  0.2123 -0.0207
 8127TIP3    H145872   6.537   1.368  11.980  1.6754  0.1033  0.9232
 8127TIP3    H245873   6.402   1.367  12.047  0.4864  0.3364 -1.4384
 8128TIP3   OH245874   6.074   0.398   4.008 -0.2090 -0.5704  0.4198
 8128TIP3    H145875   6.091   0.489   3.984 -3.1432  0.2574  1.2347
 8128TIP3    H245876   6.032   0.359   3.931  0.7012 -1.1386  0.2032
 8129TIP3   OH245877   2.093   6.033  15.081 -0.0081 -0.5320 -1.0429
 8129TIP3    H145878   2.058   5.944  15.077 -3.6104  0.8466 -2.4152
 8129TIP3    H245879   2.021   6.088  15.052  1.4429  3.0499  1.7356
 8130TIP3   OH245880   5.805   1.931   5.424 -0.6105 -0.0841 -0.3304
 8130TIP3    H145881   5.853   1.983   5.360 -0.6757  0.7096  0.2663
 8130TIP3    H245882   5.745   1.878   5.372 -0.4364  0.3198 -0.9425
 8131TIP3   OH245883   1.762   4.263  12.557  0.1888  0.1675 -0.5470
 8131TIP3    H145884   1.744   4.171  12.578 -0.5140  0.5780  0.7083
 8131TIP3    H245885   1.793   4.300  12.640  2.8104  0.4935 -1.6353
 8132TIP3   OH245886   4.467   1.238  13.405  0.5261  0.1489 -0.3991
 8132TIP3    H145887   4.410   1.299  13.359 -0.1449 -0.6369 -0.6269
 8132TIP3    H245888   4.411   1.199  13.472  1.7060  1.8886  1.6495
 8133TIP3   OH245889   3.963   5.579   4.330  0.6527 -0.2767 -0.0772
 8133TIP3    H145890   3.878   5.565   4.373  0.2258  0.4729 -0.6620
 8133TIP3    H245891   4.016   5.623   4.398 -0.0197  0.8979 -0.2876
 8134TIP3   OH245892   4.155   4.563  12.391 -0.7205 -0.4108 -0.9831
 8134TIP3    H145893   4.112   4.481  12.367  1.0032 -1.5739 -0.2020
 8134TIP3    H245894   4.098   4.601  12.459 -0.7828 -1.6546 -0.3412
 8135TIP3   OH245895   4.306   2.973   3.356  0.0456  0.9232  0.1788
 8135TIP3    H145896   4.282   3.032   3.428  0.1541 -0.1354  1.1011
 8135TIP3    H245897   4.245   2.900   3.364  0.2715  0.6521 -0.6105
 8136TIP3   OH245898   4.953   1.439   4.436 -0.0965 -0.0332  0.0639
 8136TIP3    H145899   4.961   1.510   4.373  1.0804 -0.6301 -0.4818
 8136TIP3    H245900   4.881   1.385   4.403 -0.3519  0.3757 -0.0448
 8137TIP3   OH245901   5.464   1.370   4.771  0.2047  0.0324 -0.2467
 8137TIP3    H145902   5.516   1.295   4.801 -0.0826 -0.3729 -0.7586
 8137TIP3    H245903   5.374   1.340   4.775  0.0282  0.6521  0.3842
 8138TIP3   OH245904   6.138   0.549  12.430  0.0274  0.1580 -0.2638
 8138TIP3    H145905   6.079   0.624  12.428 -1.7386 -1.2003 -2.8734
 8138TIP3    H245906   6.082   0.474  12.411  2.1380 -1.5255 -0.0335
 8139TIP3   OH245907   4.948   6.190   1.928 -0.4713 -0.1949  0.1520
 8139TIP3    H145908   4.965   6.208   2.021  2.2762 -0.8793 -0.1558
 8139TIP3    H245909   4.986   6.264   1.881 -2.4575  0.4832 -0.4204
 8140TIP3   OH245910   0.821   3.966  12.825 -0.2595 -0.4112 -0.1099
 8140TIP3    H145911   0.794   4.043  12.875  1.6575  0.7344 -0.7754
 8140TIP3    H245912   0.747   3.907  12.830 -1.8532  1.5694  0.2646
 8141TIP3   OH245913   4.676   3.118  10.895  0.1921 -0.3256  0.0856
 8141TIP3    H145914   4.673   3.121  10.799 -0.4768  0.1477  0.1173
 8141TIP3    H245915   4.612   3.184  10.923 -1.4633 -2.2199  0.8725
 8142TIP3   OH245916   4.449   1.460   4.935 -0.4998 -0.1083 -0.0897
 8142TIP3    H145917   4.516   1.452   5.002  0.1702 -2.7283 -1.0332
 8142TIP3    H245918   4.493   1.500   4.860 -0.1764 -1.1723 -0.4644
 8143TIP3   OH245919   2.156   5.031   3.942 -0.1577 -0.4194 -0.0640
 8143TIP3    H145920   2.216   4.958   3.958  0.6245  0.3204  0.4231
 8143TIP3    H245921   2.213   5.108   3.938 -1.0019  0.1941 -0.3236
 8144TIP3   OH245922   3.232   2.577  15.165  0.2388 -0.9851 -0.3251
 8144TIP3    H145923   3.301   2.638  15.140  0.3982 -0.7922  0.5787
 8144TIP3    H245924   3.251   2.554  15.256 -0.3858 -1.6116 -0.3433
 8145TIP3   OH245925   3.364   0.999   1.054  0.3115  0.3971 -0.4097
 8145TIP3    H145926   3.275   1.034   1.056  0.3327  0.4211  1.1256
 8145TIP3    H245927   3.358   0.920   1.002 -0.2615  1.3084 -1.7576
 8146TIP3   OH245928   1.233   6.042   2.794 -0.3793 -1.0475  0.5090
 8146TIP3    H145929   1.155   6.066   2.745 -1.9807 -2.5715  2.2455
 8146TIP3    H245930   1.271   5.969   2.744 -0.3113 -0.6151 -0.0788
 8147TIP3   OH245931   5.611   3.584  13.966  0.0475  0.0027 -0.1147
 8147TIP3    H145932   5.680   3.545  13.912  0.6379  0.6912  0.1319
 8147TIP3    H245933   5.536   3.526  13.954  0.2198  0.0366 -1.5502
 8148TIP3   OH245934   3.245   5.943   3.710  0.4742 -0.2795  0.5475
 8148TIP3    H145935   3.245   5.921   3.617 -1.0125 -1.1156  0.7335
 8148TIP3    H245936   3.326   5.993   3.723  0.7884 -0.3306 -1.1434
 8149TIP3   OH245937   6.440   0.341  14.168 -0.3893 -0.3517  0.0822
 8149TIP3    H145938   6.401   0.384  14.092 -1.3171 -0.2352  0.6160
 8149TIP3    H245939   6.517   0.395  14.189 -0.1642 -0.3492 -0.7279
 8150TIP3   OH245940   3.897   1.229  11.800  0.1628 -0.1966 -0.0085
 8150TIP3    H145941   3.869   1.153  11.850  1.0372 -1.1455 -0.9532
 8150TIP3    H245942   3.816   1.264  11.762 -0.4102  0.1310  1.4832
 8151TIP3   OH245943   1.011   1.652   3.648  0.7426  0.3372 -0.2977
 8151TIP3    H145944   0.970   1.735   3.623 -1.5039 -0.6210  0.0556
 8151TIP3    H245945   1.036   1.611   3.565  0.8218  0.8559 -0.5317
 8152TIP3   OH245946   3.158   5.365  11.776  0.5171  0.0228 -0.0374
 8152TIP3    H145947   3.167   5.427  11.704  1.8400  0.6131  0.6338
 8152TIP3    H245948   3.245   5.328  11.788 -0.4345 -2.6833 -1.0401
 8153TIP3   OH245949   5.176   3.101   0.419 -0.6985 -0.0223 -0.4819
 8153TIP3    H145950   5.122   3.067   0.348 -0.7010 -1.2535  0.0993
 8153TIP3    H245951   5.248   3.038   0.428 -0.1220  0.6740 -0.0893
 8154TIP3   OH245952   1.401   5.017  15.726  0.2677 -0.6418  0.4141
 8154TIP3    H145953   1.428   5.049  15.640 -1.2763 -2.8844 -0.9648
 8154TIP3    H245954   1.372   4.927  15.711  0.2506 -1.2023  3.3450
 8155TIP3   OH245955   4.102   0.368   4.602  0.3775 -0.0740 -0.3718
 8155TIP3    H145956   4.078   0.388   4.512 -1.6066  0.0176  0.1620
 8155TIP3    H245957   4.019   0.358   4.648  1.3546 -1.1523  1.2276
 8156TIP3   OH245958   4.967   5.841   2.382  0.1773 -0.2239  0.4787
 8156TIP3    H145959   4.890   5.898   2.390 -0.0464 -0.8035  2.8970
 8156TIP3    H245960   4.958   5.801   2.296 -0.4879  2.2038 -0.6308
 8157TIP3   OH245961   1.812   6.389  13.242  0.7865  0.0740  0.1623
 8157TIP3    H145962   1.901   6.362  13.263  1.1912  2.5630  1.9879
 8157TIP3    H245963   1.817   6.485  13.233 -1.6518  0.2451  0.1209
 8158TIP3   OH245964   2.463   0.423   5.805  0.6820  0.3209 -0.7347
 8158TIP3    H145965   2.551   0.386   5.809  0.1756 -0.8948 -0.7626
 8158TIP3    H245966   2.469   0.494   5.740  1.5550  0.0267 -0.9734
 8159TIP3   OH245967   1.194   4.593  12.160  0.9752 -0.4523  0.1707
 8159TIP3    H145968   1.219   4.590  12.068  0.3329  0.9797 -0.0610
 8159TIP3    H245969   1.171   4.503  12.182  0.2908 -0.6438 -1.3070
 8160TIP3   OH245970   2.775   3.767  13.776  0.2204 -0.0827 -0.7716
 8160TIP3    H145971   2.867   3.748  13.758  1.1317  2.2855  1.0852
 8160TIP3    H245972   2.745   3.816  13.699  1.3150  1.5204 -0.2071
 8161TIP3   OH245973   5.042   2.140   4.822  0.3375 -0.2672  0.4527
 8161TIP3    H145974   5.060   2.082   4.896  1.1714 -2.0781 -1.1476
 8161TIP3    H245975   5.128   2.170   4.794  0.1155 -0.5324 -0.5303
 8162TIP3   OH245976   6.388   5.376  11.423 -0.1642 -0.2164 -0.4000
 8162TIP3    H145977   6.472   5.332  11.408 -0.3412 -0.4652 -0.6647
 8162TIP3    H245978   6.353   5.392  11.336  0.4981  1.6173 -0.3389
 8163TIP3   OH245979   4.738   0.146  11.299 -0.5506  0.3918  0.1967
 8163TIP3    H145980   4.802   0.094  11.348  2.3030  1.8232 -1.8784
 8163TIP3    H245981   4.701   0.206  11.364  1.3045  0.5255  1.1522
 8164TIP3   OH245982   4.786   6.148   4.739  0.1483 -0.1686 -0.1969
 8164TIP3    H145983   4.771   6.061   4.776 -1.4682  0.0906 -0.2102
 8164TIP3    H245984   4.759   6.141   4.648 -1.9866  0.8763  0.3267
 8165TIP3   OH245985   1.679   1.800   1.729 -0.2349  0.4293 -0.4757
 8165TIP3    H145986   1.620   1.830   1.799  1.5692  2.0411  0.3791
 8165TIP3    H245987   1.692   1.878   1.675  0.1485 -0.2522 -1.3634
 8166TIP3   OH245988   6.317   3.182   3.086 -0.0749 -0.1241  0.5221
 8166TIP3    H145989   6.402   3.183   3.131  0.0227  0.4099  0.3270
 8166TIP3    H245990   6.337   3.152   2.997 -0.0281  0.4166  0.3499
 8167TIP3   OH245991   3.444   6.579   5.947  0.0462  0.6036  0.0347
 8167TIP3    H145992   3.390   6.531   5.885  1.3080 -1.0195  0.1600
 8167TIP3    H245993   3.528   6.591   5.902  0.9664 -0.5825  1.3977
 8168TIP3   OH245994   5.432   0.009  16.738  0.1400  0.5365  0.8095
 8168TIP3    H145995   5.452  -0.081  16.714  0.3578  0.6674  0.4960
 8168TIP3    H245996   5.340   0.007  16.764  0.3914  0.0536  1.6694
 8169TIP3   OH245997   4.106   3.312   2.353  0.0418  0.2867 -0.2326
 8169TIP3    H145998   4.157   3.375   2.404  0.1535  0.4404 -0.5343
 8169TIP3    H245999   4.036   3.364   2.314 -0.8115 -0.0614  0.8088
 8170TIP3   OH246000   1.682   0.615  13.907  0.7919  0.6800 -0.0947
 8170TIP3    H146001   1.765   0.654  13.879  0.3664  2.2366  0.7436
 8170TIP3    H246002   1.620   0.637  13.838  0.4607  1.8475  0.5651
 8171TIP3   OH246003   2.240   6.175   4.856 -0.1087  0.6178  0.2019
 8171TIP3    H146004   2.174   6.234   4.894  0.5395  0.7292  1.1744
 8171TIP3    H246005   2.278   6.225   4.784 -0.1398  1.0708  0.4968
 8172TIP3   OH246006   1.463   0.709   1.619 -0.1554 -0.2439 -0.2214
 8172TIP3    H146007   1.496   0.783   1.670 -0.3753  0.8284 -1.5962
 8172TIP3    H246008   1.536   0.647   1.617 -0.6699 -0.9951  2.6707
 8173TIP3   OH246009   2.534   2.767   6.407  0.6250 -0.6209 -0.4820
 8173TIP3    H146010   2.554   2.759   6.314  2.5809  1.1250 -0.2566
 8173TIP3    H246011   2.514   2.860   6.419 -1.1201 -1.1032  0.5871
 8174TIP3   OH246012   4.128   3.425   1.369 -0.0795  0.1177  0.2761
 8174TIP3    H146013   4.126   3.436   1.274 -1.1066 -2.9077 -0.1285
 8174TIP3    H246014   4.177   3.500   1.402 -1.2908  2.1856 -2.4795
 8175TIP3   OH246015   4.890   1.199   0.465 -0.0077  0.2811  0.7226
 8175TIP3    H146016   4.974   1.180   0.424 -0.1267  0.2890  0.4684
 8175TIP3    H246017   4.878   1.129   0.529  0.0827  0.1429  0.5894
 8176TIP3   OH246018   1.440   0.280  17.204  0.7069 -0.1853  0.0510
 8176TIP3    H146019   1.531   0.302  17.187  1.3394 -1.8755  1.1930
 8176TIP3    H246020   1.418   0.327  17.285  1.2292 -1.5150  0.9745
 8177TIP3   OH246021   5.237   0.187   2.298 -0.0184 -0.5863 -0.0632
 8177TIP3    H146022   5.270   0.153   2.215 -0.8380 -1.4974 -0.0362
 8177TIP3    H246023   5.255   0.117   2.361 -0.3223 -0.3252  0.3134
 8178TIP3   OH246024   1.594   5.613   5.474  0.3067  0.0459 -0.2888
 8178TIP3    H146025   1.609   5.697   5.517  1.3878 -0.8593  1.1391
 8178TIP3    H246026   1.602   5.548   5.544 -3.5731 -1.0564 -0.7596
 8179TIP3   OH246027   2.839   6.565  12.862 -0.4754  0.4468  0.0242
 8179TIP3    H146028   2.828   6.593  12.771 -1.1462 -0.1811 -0.0934
 8179TIP3    H246029   2.798   6.635  12.913  2.7298  2.4030  0.0359
 8180TIP3   OH246030   6.503   2.720   1.993 -0.0536  0.0885 -0.3827
 8180TIP3    H146031   6.453   2.758   1.920  0.2081  1.7933  0.2953
 8180TIP3    H246032   6.493   2.626   1.982 -1.2206  0.3485 -1.7906
 8181TIP3   OH246033   4.171   3.315  15.103 -0.2425 -0.0304  0.2970
 8181TIP3    H146034   4.226   3.389  15.127 -1.7988  1.3401 -0.2069
 8181TIP3    H246035   4.186   3.304  15.009 -0.0329 -0.3206  0.3675
 8182TIP3   OH246036   5.771   6.404  11.896 -0.4446 -0.2173 -0.3785
 8182TIP3    H146037   5.759   6.498  11.882 -3.6428 -0.5076 -0.1007
 8182TIP3    H246038   5.737   6.388  11.984 -2.2780 -1.9502 -1.3434
 8183TIP3   OH246039   4.853   2.866  11.773  0.7940 -0.4044 -0.0285
 8183TIP3    H146040   4.768   2.878  11.816  1.5545 -0.5053  1.5079
 8183TIP3    H246041   4.831   2.858  11.680 -0.8917 -0.4742  0.3558
 8184TIP3   OH246042   6.001   1.925   1.706  0.0077  0.0425  0.3894
 8184TIP3    H146043   5.955   1.842   1.691  0.0184 -0.3632  2.4832
 8184TIP3    H246044   5.933   1.992   1.696  0.1071 -0.1559 -1.8139
 8185TIP3   OH246045   0.557   2.632  11.923 -0.6285 -0.2040  0.4907
 8185TIP3    H146046   0.642   2.649  11.963 -0.8986 -1.0471  1.4159
 8185TIP3    H246047   0.556   2.689  11.845  0.9292 -0.4764  0.2550
 8186TIP3   OH246048   4.689   1.404  14.536 -0.4077  0.3808 -0.0291
 8186TIP3    H146049   4.642   1.395  14.453 -0.7862 -1.2895  0.3397
 8186TIP3    H246050   4.643   1.344  14.595  2.2406 -1.3441  0.3201
 8187TIP3   OH246051   6.577   1.829  12.401  0.3441 -0.1781 -0.6674
 8187TIP3    H146052   6.616   1.916  12.414  0.0181 -0.1903  0.5040
 8187TIP3    H246053   6.539   1.808  12.487  1.3663 -1.9497 -0.6392
 8188TIP3   OH246054   4.226   5.212   2.567  0.8599 -0.4338 -0.5979
 8188TIP3    H146055   4.289   5.140   2.562 -0.1470 -1.3505 -0.3841
 8188TIP3    H246056   4.168   5.198   2.492 -0.9407 -1.4123  0.9170
 8189TIP3   OH246057   0.193   2.676   4.524  0.2923  0.2278 -1.0904
 8189TIP3    H146058   0.276   2.722   4.538  0.9822 -1.0210 -0.9455
 8189TIP3    H246059   0.157   2.665   4.612  1.0516 -1.1583 -0.9407
 8190TIP3   OH246060   4.532   2.824   0.192  0.0390  0.0451 -0.0585
 8190TIP3    H146061   4.582   2.889   0.143  1.5810  0.1825  1.6414
 8190TIP3    H246062   4.596   2.756   0.213 -0.8315 -0.4850  0.9095
 8191TIP3   OH246063   0.692   0.994   1.373 -0.6183 -0.3320 -0.2719
 8191TIP3    H146064   0.600   1.003   1.348  0.0120  1.2301 -2.1696
 8191TIP3    H246065   0.703   1.056   1.445 -0.7311  0.5898 -1.0280
 8192TIP3   OH246066   0.504   6.162  11.942  0.1383 -0.2219 -0.1814
 8192TIP3    H146067   0.483   6.242  11.991 -0.3432  1.1541 -2.5584
 8192TIP3    H246068   0.425   6.108  11.950 -0.4021  0.5201 -0.4375
 8193TIP3   OH246069   0.519   6.295   0.198  0.6672 -0.3777  0.2227
 8193TIP3    H146070   0.562   6.334   0.274  1.5015 -0.6475 -0.1071
 8193TIP3    H246071   0.429   6.325   0.203  0.9714  0.4451  0.7513
 8194TIP3   OH246072   3.370   6.725   2.180 -0.4771 -0.1944 -0.2341
 8194TIP3    H146073   3.338   6.793   2.121 -0.2240  0.3582  0.2677
 8194TIP3    H246074   3.305   6.655   2.173 -1.3050  0.5381  0.0731
 8195TIP3   OH246075   6.086   2.411   3.849 -0.2377 -0.6352  0.0989
 8195TIP3    H146076   6.036   2.398   3.930 -2.5295 -1.4799 -1.4036
 8195TIP3    H246077   6.106   2.322   3.820 -0.9974 -0.3873 -1.2001
 8196TIP3   OH246078   1.012   0.664  13.407 -0.2840  0.1538  0.2481
 8196TIP3    H146079   0.968   0.682  13.490  0.0214 -1.1851  0.7089
 8196TIP3    H246080   0.992   0.740  13.353 -2.1173  0.1565  0.8756
 8197TIP3   OH246081   4.173   6.348   2.944  0.0197 -0.1575  0.0533
 8197TIP3    H146082   4.251   6.379   2.898 -0.6523 -1.4944 -2.0446
 8197TIP3    H246083   4.183   6.253   2.950 -2.0338 -0.5125 -1.4349
 8198TIP3   OH246084   3.721   0.948  14.344  0.2083  0.1443  0.2648
 8198TIP3    H146085   3.691   1.027  14.389 -1.8507  0.4190 -1.4824
 8198TIP3    H246086   3.649   0.925  14.285  0.4184 -3.5251  1.3079
 8199TIP3   OH246087   3.783   2.622   0.131 -0.0949  0.1781  0.1966
 8199TIP3    H146088   3.790   2.551   0.066 -0.4451  0.5852 -0.2945
 8199TIP3    H246089   3.707   2.599   0.183  0.5576 -0.4784  0.8769
 8200TIP3   OH246090   3.270   5.287  13.649  0.1456 -0.0294  0.3909
 8200TIP3    H146091   3.253   5.197  13.675 -1.1994  0.2786  0.5809
 8200TIP3    H246092   3.230   5.341  13.717  1.3733  0.7182  0.5437
 8201TIP3   OH246093   2.527   2.829   3.498 -0.3521  0.0203  1.0899
 8201TIP3    H146094   2.595   2.887   3.463 -0.4096  0.5006  1.7551
 8201TIP3    H246095   2.576   2.758   3.540 -0.2991 -1.3407 -1.2405
 8202TIP3   OH246096   3.487   4.353   3.011 -0.2428  0.3620  0.3115
 8202TIP3    H146097   3.499   4.398   2.928  0.6762 -0.3843  0.0408
 8202TIP3    H246098   3.420   4.287   2.993 -0.1747  0.3185  0.2226
 8203TIP3   OH246099   5.634   0.595  13.876 -0.1032  0.4985  0.0696
 8203TIP3    H146100   5.649   0.507  13.841  2.4440  0.4768  1.0922
 8203TIP3    H246101   5.679   0.653  13.815 -1.2361  1.0428 -0.2507
 8204TIP3   OH246102   6.410   0.673   1.335  0.0414  0.3768  0.2402
 8204TIP3    H146103   6.416   0.581   1.311  0.7309 -0.3330  2.9435
 8204TIP3    H246104   6.491   0.691   1.384 -0.6106  2.0957  0.7385
 8205TIP3   OH246105   5.052   6.705  15.425 -0.2477 -0.5364 -0.1920
 8205TIP3    H146106   5.121   6.708  15.491  0.3564 -0.8737 -0.7988
 8205TIP3    H246107   5.014   6.618  15.433 -0.0525 -0.6406 -0.4157
 8206TIP3   OH246108   5.089   4.430   2.843 -0.3056 -0.0416 -0.7270
 8206TIP3    H146109   5.185   4.421   2.850 -0.4758 -0.0601  2.1186
 8206TIP3    H246110   5.067   4.500   2.904 -2.3046 -1.2677 -0.0035
 8207TIP3   OH246111   1.168   2.062   2.895  0.1033 -0.2499 -0.3096
 8207TIP3    H146112   1.174   2.018   2.980  0.1906  1.7193  0.7324
 8207TIP3    H246113   1.235   2.020   2.842 -0.4830 -2.0485  0.3267
 8208TIP3   OH246114   5.650   6.633   5.072 -0.2083 -0.1572  0.2154
 8208TIP3    H146115   5.728   6.680   5.044 -1.0349  1.4707  0.6053
 8208TIP3    H246116   5.662   6.544   5.038  2.1019 -0.1001  0.8487
 8209TIP3   OH246117   3.842   3.659  16.778  0.5994 -0.5706 -0.0803
 8209TIP3    H146118   3.821   3.573  16.742  1.9450 -1.0639  0.2945
 8209TIP3    H246119   3.827   3.650  16.872 -0.6947  0.0515 -0.2153
 8210TIP3   OH246120   0.362   1.495   0.388 -0.2644 -0.0350 -0.4454
 8210TIP3    H146121   0.428   1.557   0.355 -0.3389  0.5733  0.5295
 8210TIP3    H246122   0.377   1.415   0.338  0.9363  0.2414 -0.5412
 8211TIP3   OH246123   4.080   3.020   2.292 -0.1754 -0.3528 -0.4271
 8211TIP3    H146124   4.108   3.111   2.300  1.2663 -0.8295  0.1026
 8211TIP3    H246125   4.023   3.019   2.215 -0.7078  1.1025 -0.0682
 8212TIP3   OH246126   4.573   5.188  17.218  0.0671 -0.0839 -0.4370
 8212TIP3    H146127   4.591   5.260  17.279 -0.6803 -1.0026  0.8734
 8212TIP3    H246128   4.623   5.211  17.140  1.4368  0.8603  0.6792
 8213TIP3   OH246129   5.286   6.479  14.304 -0.1419 -0.3368 -0.2992
 8213TIP3    H146130   5.258   6.486  14.212 -2.2472 -1.1565  0.2436
 8213TIP3    H246131   5.238   6.403  14.337 -0.7183  0.9965  1.9521
 8214TIP3   OH246132   4.107   5.442  16.404 -0.7120  0.6784 -0.3381
 8214TIP3    H146133   4.037   5.395  16.358 -1.1210  1.1011 -0.1515
 8214TIP3    H246134   4.077   5.445  16.495  0.7852 -1.4740  0.2627
 8215TIP3   OH246135   6.369   2.799  15.793  0.2553 -0.1248 -0.2235
 8215TIP3    H146136   6.320   2.847  15.726  0.6545  1.0747  0.3121
 8215TIP3    H246137   6.307   2.791  15.866  0.0343 -0.8560 -0.4862
 8216TIP3   OH246138   2.079   3.964   1.408  0.1478 -0.0349  0.7265
 8216TIP3    H146139   2.021   3.991   1.480 -0.0770  0.1163  0.4922
 8216TIP3    H246140   2.023   3.970   1.330  0.4661  0.0518  0.5071
 8217TIP3   OH246141   4.357   4.925  13.121 -0.0077  0.1550  0.1319
 8217TIP3    H146142   4.448   4.930  13.149 -0.5617  1.5113  1.8069
 8217TIP3    H246143   4.359   4.938  13.026  1.7654 -2.6899 -0.2845
 8218TIP3   OH246144   5.789   4.881  11.437  0.3714  0.0281 -0.1312
 8218TIP3    H146145   5.789   4.973  11.411  0.5759 -0.1261 -0.6941
 8218TIP3    H246146   5.710   4.870  11.489  0.2791  0.4913 -0.1754
 8219TIP3   OH246147   1.902   0.303  14.726  0.7170  0.2379 -0.2308
 8219TIP3    H146148   1.990   0.265  14.718  0.7217  0.4579 -1.3274
 8219TIP3    H246149   1.919   0.397  14.738  0.6186  0.3303 -0.8289
 8220TIP3   OH246150   3.393   6.460   1.972  0.1570  0.5702 -0.1883
 8220TIP3    H146151   3.482   6.426   1.986 -0.3598 -0.3315  0.9834
 8220TIP3    H246152   3.398   6.503   1.887  1.7452  0.6125 -0.0988
 8221TIP3   OH246153   4.629   6.283   3.798  0.1858 -0.4725  0.4095
 8221TIP3    H146154   4.722   6.280   3.820  0.6532  0.8354 -1.2969
 8221TIP3    H246155   4.616   6.370   3.759 -1.7129 -0.6963  0.4961
 8222TIP3   OH246156   6.203   4.011   1.900 -0.1057 -0.0347  1.0318
 8222TIP3    H146157   6.127   3.959   1.871  1.1974 -1.8122  0.7339
 8222TIP3    H246158   6.185   4.099   1.868 -1.2867 -0.7889 -0.4366
 8223TIP3   OH246159   3.077   3.807   3.603  0.1342 -0.3578 -0.1824
 8223TIP3    H146160   3.006   3.833   3.662  0.3061 -0.3343  0.0144
 8223TIP3    H246161   3.046   3.834   3.516  0.0947  0.0580 -0.0431
 8224TIP3   OH246162   5.043   4.925   4.946  0.2616 -0.7397 -0.1837
 8224TIP3    H146163   4.958   4.900   4.982  0.1072 -1.9893 -1.3540
 8224TIP3    H246164   5.051   5.018   4.963 -1.5050 -0.5412 -0.3641
 8225TIP3   OH246165   4.075   5.827  16.732 -0.0089  0.2636  0.0523
 8225TIP3    H146166   4.115   5.792  16.652  0.3984 -0.1586  0.4329
 8225TIP3    H246167   4.045   5.749  16.779 -1.8171  0.6187 -0.5047
 8226TIP3   OH246168   4.074   0.330  11.762 -0.4435  0.6417 -0.1820
 8226TIP3    H146169   4.019   0.335  11.840  2.0056  0.1788  1.6388
 8226TIP3    H246170   4.100   0.238  11.757 -1.7018  0.3841 -2.3787
 8227TIP3   OH246171   6.510   0.372  11.779  0.4817  0.1835 -0.3740
 8227TIP3    H146172   6.421   0.404  11.792  0.2635 -0.5498 -0.0491
 8227TIP3    H246173   6.522   0.305  11.847  0.7638 -0.7765 -1.3696
 8228TIP3   OH246174   2.285   5.703   3.219  0.0024 -0.0795 -0.5938
 8228TIP3    H146175   2.360   5.644   3.221  0.5435  0.6411  1.0655
 8228TIP3    H246176   2.287   5.748   3.304 -0.1424  2.6571 -1.9831
 8229TIP3   OH246177   4.752   1.713   5.094  0.0775 -0.0770  0.4469
 8229TIP3    H146178   4.709   1.777   5.036 -0.5783 -0.8213  0.0968
 8229TIP3    H246179   4.737   1.747   5.182 -2.4357 -1.0001  0.4266
 8230TIP3   OH246180   6.490   3.874   5.612  0.0088 -0.4217  0.1198
 8230TIP3    H146181   6.543   3.952   5.593 -0.9057  0.3348  0.5943
 8230TIP3    H246182   6.405   3.909   5.636 -0.1289 -1.5331  1.3150
 8231TIP3   OH246183   0.642   4.618   2.512  0.3989 -0.1197  0.5348
 8231TIP3    H146184   0.619   4.557   2.442  0.3027  0.4227  0.0880
 8231TIP3    H246185   0.659   4.701   2.467  2.5184 -0.3192  0.9265
 8232TIP3   OH246186   4.480   0.353   3.442 -0.1987  0.2446  0.3669
 8232TIP3    H146187   4.463   0.304   3.522 -1.2218 -2.5358 -1.4937
 8232TIP3    H246188   4.400   0.403   3.428 -0.4732 -0.1694  0.4440
 8233TIP3   OH246189   2.665   6.383  12.445  0.0734  0.2022  0.4287
 8233TIP3    H146190   2.639   6.458  12.497 -0.1924  0.1246  0.4103
 8233TIP3    H246191   2.594   6.373  12.381 -0.1047 -0.3275  0.7080
 8234TIP3   OH246192   4.649   4.614  14.988  0.0996 -0.1709  0.4875
 8234TIP3    H146193   4.582   4.631  14.922 -0.0565  1.3220  0.9964
 8234TIP3    H246194   4.609   4.644  15.070 -0.0044 -2.7306  1.3923
 8235TIP3   OH246195   3.524   0.294  15.143  0.2473 -0.2910  0.0779
 8235TIP3    H146196   3.461   0.262  15.209 -0.3158 -1.2267 -0.8954
 8235TIP3    H246197   3.584   0.221  15.131 -1.1284 -1.0678 -2.2740
 8236TIP3   OH246198   5.752   0.552   3.708 -0.3827 -0.1602  0.0405
 8236TIP3    H146199   5.746   0.517   3.797 -0.5502 -0.5165 -0.1126
 8236TIP3    H246200   5.822   0.502   3.668  1.2882  1.5770  0.7013
 8237TIP3   OH246201   1.537   1.726   1.492 -0.5804 -0.0971 -0.3279
 8237TIP3    H146202   1.599   1.745   1.562 -1.5859  0.3435  0.4441
 8237TIP3    H246203   1.559   1.787   1.422  0.5819 -0.7019 -0.5087
 8238TIP3   OH246204   0.567   1.365   3.791  0.3216  0.0689  0.4580
 8238TIP3    H146205   0.633   1.426   3.759  0.8215 -0.5763  0.2458
 8238TIP3    H246206   0.611   1.280   3.792  0.3076  0.0627  2.8057
 8239TIP3   OH246207   6.496   4.352  11.038 -0.1479  0.1944 -0.4234
 8239TIP3    H146208   6.465   4.443  11.042 -1.2564 -0.1877 -0.1134
 8239TIP3    H246209   6.469   4.313  11.121 -0.1026 -0.5502 -0.7496
 8240TIP3   OH246210   4.928   2.516   0.250 -0.0523 -0.1842  0.4882
 8240TIP3    H146211   4.985   2.592   0.246 -0.1676 -0.1617 -1.1039
 8240TIP3    H246212   4.986   2.443   0.272  0.4506 -0.0086 -0.2279
 8241TIP3   OH246213   0.938   2.893   1.625 -0.4127 -0.4118 -0.1051
 8241TIP3    H146214   1.014   2.891   1.683 -1.0483  0.4423  0.7722
 8241TIP3    H246215   0.880   2.825   1.659  0.2619 -1.5477 -1.2055
 8242TIP3   OH246216   4.461   3.490   2.783 -0.2731 -0.5888  0.1352
 8242TIP3    H146217   4.505   3.472   2.866  0.3813 -1.8721 -0.4746
 8242TIP3    H246218   4.525   3.467   2.716  0.1673  2.9361 -0.7316
 8243TIP3   OH246219   5.307   2.222   3.984  0.1621  0.1105 -0.2848
 8243TIP3    H146220   5.291   2.147   3.926  0.4201  0.6634 -1.0732
 8243TIP3    H246221   5.379   2.270   3.943  0.3951  0.4755  0.5294
 8244TIP3   OH246222   3.436   4.612   5.657  0.1732 -0.0657  0.1459
 8244TIP3    H146223   3.340   4.619   5.658  0.1992  0.4799  1.9708
 8244TIP3    H246224   3.454   4.535   5.711  0.7640 -0.0427 -0.0249
 8245TIP3   OH246225   4.503   5.520   3.451 -0.1474  0.1042  0.0911
 8245TIP3    H146226   4.424   5.546   3.403 -0.3740 -0.0853  0.3525
 8245TIP3    H246227   4.515   5.428   3.428  0.0650  0.1651 -0.0396
 8246TIP3   OH246228   2.619   2.695   4.177  0.4423 -0.4349 -0.2848
 8246TIP3    H146229   2.585   2.776   4.214  0.4573 -0.2477 -0.6801
 8246TIP3    H246230   2.608   2.705   4.082  2.9999  0.2604 -0.5454
 8247TIP3   OH246231   2.062   4.583  12.605 -0.8049  0.4804  0.5933
 8247TIP3    H146232   2.079   4.574  12.511 -0.7414  0.2641  0.6251
 8247TIP3    H246233   2.122   4.651  12.634 -0.6116  0.3363  0.5342
 8248TIP3   OH246234   2.289   0.100  11.325 -0.0832  0.1682  0.0795
 8248TIP3    H146235   2.201   0.080  11.356 -0.0351 -1.6798 -0.8792
 8248TIP3    H246236   2.344   0.095  11.404 -0.4256 -1.4358  0.2349
 8249TIP3   OH246237   5.003   5.966   3.425 -0.2698 -0.3224  0.2932
 8249TIP3    H146238   4.955   5.914   3.361 -1.5169  2.7890 -1.3884
 8249TIP3    H246239   4.937   5.997   3.486  0.3471 -0.1671  0.8861
 8250TIP3   OH246240   6.335   4.216  15.921  0.5023  0.5297 -0.0706
 8250TIP3    H146241   6.370   4.194  16.008 -0.7346 -1.8256 -0.1307
 8250TIP3    H246242   6.240   4.213  15.932  0.3261 -1.6488 -1.9510
 8251TIP3   OH246243   0.608   2.728   3.884 -0.1227  0.3966  0.4515
 8251TIP3    H146244   0.625   2.797   3.948 -0.4824  0.8655  0.0462
 8251TIP3    H246245   0.603   2.648   3.935 -0.7607  0.8184  1.0505
 8252TIP3   OH246246   1.487   3.580   6.000 -0.4069 -0.0788 -0.3348
 8252TIP3    H146247   1.547   3.565   6.073  0.4370 -1.3479 -1.2745
 8252TIP3    H246248   1.506   3.669   5.972 -0.7682  0.4409  0.9993
 8253TIP3   OH246249   5.797   4.905  13.635  0.0409 -0.5420  0.3970
 8253TIP3    H146250   5.847   4.833  13.672  0.1999 -0.3619  0.5353
 8253TIP3    H246251   5.821   4.981  13.688  1.0053 -0.0796 -0.6738
 8254TIP3   OH246252   2.245   3.713   2.230 -0.0617  0.5964 -0.2922
 8254TIP3    H146253   2.339   3.699   2.222 -0.1773 -0.9624  0.7620
 8254TIP3    H246254   2.237   3.802   2.264  1.0640  0.4768  0.3107
 8255TIP3   OH246255   0.118   4.186   4.147  0.2472  0.1508 -1.1557
 8255TIP3    H146256   0.163   4.260   4.107  1.4069 -0.6409 -1.3380
 8255TIP3    H246257   0.184   4.144   4.202 -1.2756  1.1672  1.5714
 8256TIP3   OH246258   3.354   6.233   5.547  0.1642  0.6948  0.1853
 8256TIP3    H146259   3.318   6.198   5.466  0.6118 -0.4638  0.4809
 8256TIP3    H246260   3.365   6.157   5.604 -1.8399  1.7333  2.0146
 8257TIP3   OH246261   4.298   0.684  14.492  0.2091  0.3584 -0.4291
 8257TIP3    H146262   4.232   0.700  14.425 -0.2915 -1.4249 -0.3927
 8257TIP3    H246263   4.370   0.643  14.444 -0.6655 -2.1131  0.2985
 8258TIP3   OH246264   3.414   4.157   0.328 -0.1811 -0.0075 -0.2964
 8258TIP3    H146265   3.379   4.070   0.310  0.4155 -0.5309  1.0592
 8258TIP3    H246266   3.364   4.215   0.270  0.3459 -1.4013 -2.2236
 8259TIP3   OH246267   3.952   4.721  12.577 -0.4314  0.2629 -0.6479
 8259TIP3    H146268   3.974   4.777  12.651 -0.3260 -0.7072  0.0678
 8259TIP3    H246269   3.905   4.647  12.616 -0.5383 -0.1696 -1.5678
 8260TIP3   OH246270   0.334   1.397   5.741 -0.0263 -0.4398  0.0736
 8260TIP3    H146271   0.243   1.384   5.766 -0.2694 -1.1946 -1.1362
 8260TIP3    H246272   0.383   1.335   5.795 -0.2990 -0.4583  0.2993
 8261TIP3   OH246273   3.237   4.356   4.635  0.1333 -0.7640 -0.7054
 8261TIP3    H146274   3.323   4.358   4.678 -0.3426  1.6428  0.1799
 8261TIP3    H246275   3.182   4.304   4.693  0.1084  0.5387  0.4564
 8262TIP3   OH246276   0.803   2.497  17.269 -0.0064 -0.0051 -0.3682
 8262TIP3    H146277   0.748   2.434  17.223  0.8974 -0.6255 -0.6105
 8262TIP3    H246278   0.763   2.506  17.355  0.6079 -1.9340  0.1432
 8263TIP3   OH246279   1.929   5.386   2.749 -0.5992  0.6284  0.4326
 8263TIP3    H146280   1.899   5.297   2.768 -0.4157  0.2257 -1.1549
 8263TIP3    H246281   1.901   5.403   2.659  1.6697  1.1901 -0.2046
 8264TIP3   OH246282   1.372   5.962  11.893 -0.5430 -0.4830  0.2403
 8264TIP3    H146283   1.403   5.875  11.867  1.9953  0.4765 -0.0358
 8264TIP3    H246284   1.351   6.006  11.811  0.0532 -0.1544  0.2631
 8265TIP3   OH246285   6.186   5.564  11.944 -0.0643  0.4875 -0.5668
 8265TIP3    H146286   6.226   5.651  11.943  1.3847 -0.1832 -0.9109
 8265TIP3    H246287   6.124   5.566  11.871  0.0387  1.1898 -0.6415
 8266TIP3   OH246288   6.445   2.574  16.282 -0.6178 -0.0848 -0.5105
 8266TIP3    H146289   6.355   2.597  16.307 -0.3674 -0.4538  0.7274
 8266TIP3    H246290   6.470   2.505  16.343 -0.0912 -1.1847 -1.9448
 8267TIP3   OH246291   0.056   2.521  16.728 -0.3951 -0.0839  0.1985
 8267TIP3    H146292   0.073   2.443  16.782 -0.8881 -0.5814 -0.3657
 8267TIP3    H246293   0.126   2.581  16.751 -0.1926 -0.5736  0.8781
 8268TIP3   OH246294   1.623   1.851   0.584 -0.3385  0.3454 -0.3400
 8268TIP3    H146295   1.663   1.821   0.665 -0.0431 -0.6670 -0.8587
 8268TIP3    H246296   1.565   1.923   0.611  1.8216  1.8462  0.4025
 8269TIP3   OH246297   3.193   4.036  12.199  0.1772 -0.4021  0.3623
 8269TIP3    H146298   3.238   4.033  12.283 -0.7341  0.7397  0.9135
 8269TIP3    H246299   3.180   3.944  12.175  2.9171 -0.7734  0.0954
 8270TIP3   OH246300   1.293   4.411  14.813  0.0446 -0.1861 -0.1279
 8270TIP3    H146301   1.382   4.417  14.778  0.2674  1.3700  0.6664
 8270TIP3    H246302   1.237   4.406  14.735  0.7539 -0.0015 -0.6545
 8271TIP3   OH246303   6.709   3.647   3.952  0.4723  0.1738 -0.3564
 8271TIP3    H146304   6.672   3.722   3.904 -0.9181 -0.7276 -0.7193
 8271TIP3    H246305   6.653   3.573   3.928  0.8977 -0.6763  1.2066
 8272TIP3   OH246306   0.122   4.455   0.290  0.3329  0.5267 -0.1159
 8272TIP3    H146307   0.107   4.508   0.368  0.1219  0.9032 -0.4124
 8272TIP3    H246308   0.077   4.373   0.307  2.3398 -0.3502  1.2082
 8273TIP3   OH246309   2.843   3.029   6.957  0.1959 -0.7330 -0.5715
 8273TIP3    H146310   2.855   3.082   7.035 -0.3378 -0.4782 -0.6616
 8273TIP3    H246311   2.929   3.028   6.915  0.0088  0.7240 -0.9942
 8274TIP3   OH246312   2.584   2.124  12.698 -0.2605  0.1717  0.3512
 8274TIP3    H146313   2.635   2.042  12.695 -0.9005 -0.1981 -0.4585
 8274TIP3    H246314   2.650   2.192  12.713  0.5590 -0.2382 -1.2882
 8275TIP3   OH246315   5.091   6.029  14.588 -0.2835  0.2317 -0.3283
 8275TIP3    H146316   5.006   6.002  14.552 -0.7339 -0.1344  0.9700
 8275TIP3    H246317   5.071   6.060  14.676  1.0896 -0.9361  0.4181
 8276TIP3   OH246318   3.421   4.681   3.783  0.4833  0.1796  0.2191
 8276TIP3    H146319   3.398   4.773   3.796 -1.0726 -0.0956 -0.5782
 8276TIP3    H246320   3.465   4.678   3.698 -0.6295 -0.0139 -0.3536
 8277TIP3   OH246321   4.841   1.625   6.134  0.6328  0.0196 -0.1950
 8277TIP3    H146322   4.894   1.545   6.135 -0.9586 -1.1247 -2.4660
 8277TIP3    H246323   4.766   1.604   6.190  0.6225  0.2158 -0.1357
 8278TIP3   OH246324   0.901   2.041   6.198 -0.2303  0.2353 -0.1666
 8278TIP3    H146325   0.863   2.025   6.284 -1.7079  1.6363 -0.5428
 8278TIP3    H246326   0.853   1.984   6.139  1.2842 -1.2847  0.0034
 8279TIP3   OH246327   4.918   1.262  15.294  1.0503  0.1480 -0.7259
 8279TIP3    H146328   4.854   1.320  15.252  0.3171 -1.0580 -1.3062
 8279TIP3    H246329   4.866   1.204  15.349  1.8800  0.7278  0.7043
 8280TIP3   OH246330   0.634   3.067  14.255  0.7211  0.0959 -0.0678
 8280TIP3    H146331   0.578   2.989  14.248 -1.5848  1.7358 -0.4932
 8280TIP3    H246332   0.653   3.073  14.349 -0.0224 -0.3460  0.1248
 8281TIP3   OH246333   0.036   1.554   4.017 -0.4526 -0.0023 -0.0983
 8281TIP3    H146334  -0.039   1.500   4.041  0.8922 -2.2295 -0.7385
 8281TIP3    H246335   0.033   1.558   3.921 -0.8092  1.4898 -0.0383
 8282TIP3   OH246336   5.512   4.869  17.179 -0.2423  0.0911  0.2811
 8282TIP3    H146337   5.605   4.858  17.158 -0.1913 -0.5032  0.7960
 8282TIP3    H246338   5.511   4.888  17.273 -0.7197 -1.3265  0.5829
 8283TIP3   OH246339   1.744   2.660  11.423 -1.3026 -0.5226  0.0197
 8283TIP3    H146340   1.665   2.684  11.376  0.1787  1.3514 -1.6006
 8283TIP3    H246341   1.784   2.591  11.370 -0.8690 -0.0876 -0.2327
 8284TIP3   OH246342   4.406   6.355  16.431 -0.6537 -0.9114  0.4172
 8284TIP3    H146343   4.436   6.394  16.514 -0.1584 -0.5834  0.0897
 8284TIP3    H246344   4.325   6.310  16.454 -1.3617  0.5075  0.7755
 8285TIP3   OH246345   4.696   5.022   0.117 -0.6164  0.3471 -0.3291
 8285TIP3    H146346   4.756   4.984   0.053 -1.7855 -1.2031 -0.5304
 8285TIP3    H246347   4.631   5.069   0.064 -1.2881 -0.5015 -0.2684
 8286TIP3   OH246348   3.915   3.905  15.648 -0.3383  0.1330  0.4410
 8286TIP3    H146349   3.871   3.820  15.642  0.3565 -0.0728 -2.2293
 8286TIP3    H246350   3.882   3.954  15.573  0.5536  1.6003  1.0011
 8287TIP3   OH246351   1.253   5.937   0.455 -0.0993 -0.1111 -0.1236
 8287TIP3    H146352   1.291   6.023   0.442 -0.9440  0.2343 -0.3706
 8287TIP3    H246353   1.158   5.952   0.451 -0.2297 -1.2737 -1.5697
 8288TIP3   OH246354   3.544   2.310  11.589  0.1703  0.0106 -0.4297
 8288TIP3    H146355   3.468   2.368  11.580 -0.9322 -1.4410 -0.6610
 8288TIP3    H246356   3.618   2.363  11.560 -0.4318  2.1401  1.6829
 8289TIP3   OH246357   4.681   3.195   2.040 -0.3886 -0.2376  0.5268
 8289TIP3    H146358   4.656   3.245   1.962 -0.7171 -1.5790 -0.2342
 8289TIP3    H246359   4.602   3.148   2.065  0.1572 -1.0947  0.6864
 8290TIP3   OH246360   2.245   0.003  12.949 -0.5665 -0.8174  0.0759
 8290TIP3    H146361   2.224  -0.065  13.013  1.0169 -2.4641 -1.1173
 8290TIP3    H246362   2.225   0.085  12.994 -1.2047 -2.0109  2.0288
 8291TIP3   OH246363   4.764   2.119  15.839 -0.2737  0.2643  0.2895
 8291TIP3    H146364   4.763   2.064  15.918 -1.3839  0.6039  0.5245
 8291TIP3    H246365   4.841   2.089  15.790 -1.7391 -2.6632 -0.3719
 8292TIP3   OH246366   1.827   1.528   1.371  0.1304 -0.1304 -0.9469
 8292TIP3    H146367   1.861   1.590   1.436  0.2973 -3.0524  1.8460
 8292TIP3    H246368   1.856   1.564   1.287  0.0532  3.6616  0.5590
 8293TIP3   OH246369   1.716   0.079  13.204 -0.1006 -0.5229  0.4640
 8293TIP3    H146370   1.660   0.028  13.146  2.8536 -2.8960 -0.4784
 8293TIP3    H246371   1.799   0.087  13.157  0.6383  2.1699  2.1134
 8294TIP3   OH246372   6.362   5.519   1.996  0.4619 -0.4353  0.2368
 8294TIP3    H146373   6.279   5.515   2.045  1.1365 -0.8485  1.3551
 8294TIP3    H246374   6.342   5.477   1.913 -0.5310 -0.2870  0.3879
 8295TIP3   OH246375   0.217   2.101   4.528 -0.4874 -0.8063 -0.0978
 8295TIP3    H146376   0.207   2.184   4.575  0.4106 -0.9828  0.4216
 8295TIP3    H246377   0.212   2.124   4.436  1.2582  0.0495 -0.0058
 8296TIP3   OH246378   5.945   0.443  13.162  0.4385  0.2630 -0.4640
 8296TIP3    H146379   6.002   0.479  13.229 -0.7328 -1.5931  1.5719
 8296TIP3    H246380   5.859   0.480  13.181  0.0988 -0.2790 -0.9221
 8297TIP3   OH246381   6.015   2.344   1.171  0.2839 -0.3368  0.2654
 8297TIP3    H146382   5.922   2.334   1.151  0.4104  0.1874 -0.6115
 8297TIP3    H246383   6.060   2.315   1.092  0.8410  0.2971  0.3435
 8298TIP3   OH246384   5.491   2.337   1.142  0.3488 -0.3038  0.6643
 8298TIP3    H146385   5.401   2.304   1.140  0.5972 -0.8801 -1.4226
 8298TIP3    H246386   5.508   2.367   1.053  1.4382  1.9879  1.5957
 8299TIP3   OH246387   6.095   6.651  16.934 -0.0537  0.1955 -0.2903
 8299TIP3    H146388   6.025   6.708  16.964 -0.5902 -1.1549  1.0753
 8299TIP3    H246389   6.116   6.596  17.010  0.6039 -1.2447 -1.4760
 8300TIP3   OH246390   2.525   1.291   4.882  0.0875 -0.0378 -0.2137
 8300TIP3    H146391   2.486   1.351   4.946  0.8284  0.0620  0.1534
 8300TIP3    H246392   2.493   1.322   4.797 -0.8200 -0.1050  0.0964
 8301TIP3   OH246393   4.887   1.153   1.757 -0.8455 -0.0103 -0.8320
 8301TIP3    H146394   4.932   1.236   1.773 -1.0186  0.0208 -0.4988
 8301TIP3    H246395   4.958   1.089   1.750 -0.6823  0.2444 -1.6068
 8302TIP3   OH246396   6.533   1.430   2.759 -0.6012 -0.3776 -0.1169
 8302TIP3    H146397   6.614   1.463   2.721 -1.1186  0.2128 -0.7117
 8302TIP3    H246398   6.465   1.454   2.696 -1.4492  0.5472  1.1235
 8303TIP3   OH246399   6.100   1.428   2.786  0.1572  0.4202 -0.0024
 8303TIP3    H146400   6.034   1.447   2.852  1.1969  0.1585  1.1374
 8303TIP3    H246401   6.124   1.514   2.751  1.0432  0.7601  1.3945
 8304TIP3   OH246402   6.502   3.699   2.297  0.2342  0.5689  0.0586
 8304TIP3    H146403   6.476   3.759   2.367 -0.6911  1.4575 -1.0196
 8304TIP3    H246404   6.463   3.737   2.218  0.6129 -0.8420 -0.8151
 8305TIP3   OH246405   0.914   3.550   0.485 -0.0407 -0.1246 -0.0066
 8305TIP3    H146406   0.835   3.533   0.434 -0.4176 -1.8896  1.1256
 8305TIP3    H246407   0.909   3.643   0.506  0.2828  0.7126 -3.3881
 8306TIP3   OH246408   5.481   3.250  13.950  0.4542 -0.1374  0.5427
 8306TIP3    H146409   5.425   3.325  13.928 -0.0183 -0.3088  1.1415
 8306TIP3    H246410   5.541   3.285  14.016  0.7786 -0.0644  0.2057
 8307TIP3   OH246411   2.640   5.293  13.458 -0.4283 -0.1764 -0.5166
 8307TIP3    H146412   2.714   5.348  13.430  0.1604 -0.9389 -0.4587
 8307TIP3    H246413   2.638   5.222  13.394  1.1556 -2.1449  1.5202
 8308TIP3   OH246414   3.837   3.089   6.179 -0.4682  0.5084 -0.1184
 8308TIP3    H146415   3.830   3.173   6.134 -0.9863  0.2671 -0.4884
 8308TIP3    H246416   3.839   3.111   6.272  0.7185  1.0223 -0.2464
 8309TIP3   OH246417   5.340   1.191  13.125  0.3943  0.4115 -0.0220
 8309TIP3    H146418   5.386   1.117  13.164 -0.8782 -0.7511 -0.7081
 8309TIP3    H246419   5.396   1.220  13.054  1.7184  1.2114  1.3175
 8310TIP3   OH246420   6.490   2.804   4.821  0.2069  0.5868  0.1870
 8310TIP3    H146421   6.505   2.894   4.792  1.8662  0.7920  1.6016
 8310TIP3    H246422   6.483   2.810   4.916  1.1386 -0.8778  0.3620
 8311TIP3   OH246423   3.549   2.231  16.216 -0.7130  0.2464 -0.2979
 8311TIP3    H146424   3.459   2.262  16.208 -0.9850 -0.5262 -0.2727
 8311TIP3    H246425   3.601   2.294  16.167 -1.3070  0.5256 -0.5672
 8312TIP3   OH246426   5.777   3.035  16.612  0.3723  0.0555 -0.3773
 8312TIP3    H146427   5.827   3.010  16.690  0.8120  0.2550 -0.5928
 8312TIP3    H246428   5.767   3.130  16.619 -1.8346 -0.2514  0.7575
 8313TIP3   OH246429   3.064   5.042   6.196 -0.0998  0.0673 -0.5400
 8313TIP3    H146430   3.157   5.025   6.209 -0.5762 -1.9701  0.3728
 8313TIP3    H246431   3.061   5.103   6.122  1.9857  0.7455 -0.0912
 8314TIP3   OH246432   2.672   2.785   5.869  0.1568  0.1725 -0.0566
 8314TIP3    H146433   2.743   2.792   5.806  0.6413  0.0920  0.4790
 8314TIP3    H246434   2.602   2.741   5.821  0.0890  1.1690 -0.8989
 8315TIP3   OH246435   3.854   1.259  13.812  0.5146 -0.2119 -0.0342
 8315TIP3    H146436   3.774   1.215  13.783  1.7853 -0.9806 -2.4642
 8315TIP3    H246437   3.861   1.335  13.755  1.2954  0.0943  0.4706
 8316TIP3   OH246438   6.617   1.327   1.947  0.0550 -0.2776  0.2310
 8316TIP3    H146439   6.707   1.361   1.947  0.0230 -0.1951 -1.2766
 8316TIP3    H246440   6.601   1.304   2.039  1.2369  0.7001  0.7023
 8317TIP3   OH246441   0.029   4.660  15.378  0.0853 -0.5760  0.3123
 8317TIP3    H146442   0.007   4.576  15.338 -0.2600  0.0998 -0.9336
 8317TIP3    H246443   0.120   4.651  15.406  0.5768 -0.7777 -1.3409
 8318TIP3   OH246444   5.747   4.926   5.501  0.0313 -0.3884  0.1096
 8318TIP3    H146445   5.787   4.999   5.454  0.3746  0.3964  1.5828
 8318TIP3    H246446   5.728   4.861   5.434  0.0892  0.8939 -1.1682
 8319TIP3   OH246447   2.962   5.036   2.711 -0.1283 -0.8902  0.7306
 8319TIP3    H146448   2.875   5.076   2.704  0.4165  0.1836  0.0591
 8319TIP3    H246449   2.946   4.953   2.757 -1.7680 -1.5696 -1.0168
 8320TIP3   OH246450   1.633   4.269   1.097 -0.0178  0.5009 -0.4839
 8320TIP3    H146451   1.537   4.267   1.100  0.0024 -0.3958 -0.1380
 8320TIP3    H246452   1.659   4.178   1.107  0.8797  0.7571 -0.4182
 8321TIP3   OH246453   4.248   6.512  15.937  0.4083  0.0261 -0.3995
 8321TIP3    H146454   4.215   6.445  15.997  0.0927  1.3128  0.9283
 8321TIP3    H246455   4.281   6.581  15.995  1.7361  0.5358 -1.7214
 8322TIP3   OH246456   0.243   1.504   4.368 -0.1200  0.3701 -0.3104
 8322TIP3    H146457   0.291   1.577   4.329 -0.2071  0.2641 -0.6213
 8322TIP3    H246458   0.183   1.476   4.299  0.3931 -0.4380 -0.4435
 8323TIP3   OH246459   1.692   3.261  11.013  0.3867 -0.2581  0.2648
 8323TIP3    H146460   1.784   3.241  11.029  0.0973 -2.0366 -0.2342
 8323TIP3    H246461   1.687   3.278  10.918  0.4507  1.2984  0.5218
 8324TIP3   OH246462   1.978   2.261  13.045  0.2034  0.2255  0.0934
 8324TIP3    H146463   2.030   2.181  13.044  0.8887  0.6724 -0.7707
 8324TIP3    H246464   1.959   2.279  12.953 -2.6879 -0.6762  0.4824
 8325TIP3   OH246465   1.926   0.298  11.112  0.5701  0.4565  0.5826
 8325TIP3    H146466   1.990   0.306  11.182  1.8731 -0.4991 -0.4852
 8325TIP3    H246467   1.938   0.377  11.059  1.1264  0.0935  0.1669
 8326TIP3   OH246468   3.618   1.194   5.012 -0.2707 -0.6822 -0.5471
 8326TIP3    H146469   3.638   1.287   5.019 -1.9827 -0.3096 -0.4805
 8326TIP3    H246470   3.698   1.150   5.042  0.9507  0.7426 -1.6213
 8327TIP3   OH246471   5.487   4.185   4.941 -0.3143 -0.0790 -0.1269
 8327TIP3    H146472   5.431   4.197   5.017  1.3248 -0.7947  1.2205
 8327TIP3    H246473   5.438   4.223   4.868 -1.9955  0.3930  1.2398
 8328TIP3   OH246474   2.149   4.854  14.678  0.0397 -0.1244 -0.4037
 8328TIP3    H146475   2.225   4.890  14.724  0.1741 -0.9800  0.0671
 8328TIP3    H246476   2.187   4.798  14.610 -0.1601 -1.7875  0.8322
 8329TIP3   OH246477   0.139   2.624  14.605 -0.1571 -0.1653  0.1871
 8329TIP3    H146478   0.127   2.536  14.641 -0.3649  0.1285  0.8495
 8329TIP3    H246479   0.224   2.621  14.561 -1.0148 -1.2370 -1.4440
 8330TIP3   OH246480   0.451   4.459   6.556  0.1434  0.2218  0.2326
 8330TIP3    H146481   0.443   4.384   6.615 -0.4023  0.8901  1.0098
 8330TIP3    H246482   0.396   4.437   6.481  0.2025 -0.2764  0.3340
 8331TIP3   OH246483   4.215   2.862  13.785  0.5026 -0.3420  0.0469
 8331TIP3    H146484   4.292   2.908  13.753  0.6560  0.0775  0.9975
 8331TIP3    H246485   4.229   2.855  13.879 -1.9466  2.3152  0.6857
 8332TIP3   OH246486   3.705   2.245  13.042 -0.4762  0.1950  0.0677
 8332TIP3    H146487   3.618   2.238  13.081 -0.7830  1.6184 -0.3394
 8332TIP3    H246488   3.705   2.181  12.971 -1.3445  0.4891 -0.1997
 8333TIP3   OH246489   1.947   5.421  13.485  0.0550 -0.1778  0.2599
 8333TIP3    H146490   2.001   5.500  13.482 -0.8074  0.4029 -0.7306
 8333TIP3    H246491   2.000   5.356  13.531  1.4149  0.5036 -0.3214
 8334TIP3   OH246492   3.490   4.508  17.265  0.1878 -0.1846 -0.1309
 8334TIP3    H146493   3.487   4.586  17.209  0.3695  0.6613  1.0111
 8334TIP3    H246494   3.405   4.506  17.309 -0.3757 -1.4749 -1.2614
 8335TIP3   OH246495   5.357   3.433   0.660  0.3818 -0.2949 -0.4439
 8335TIP3    H146496   5.278   3.381   0.650 -0.1887  0.1001  1.8489
 8335TIP3    H246497   5.384   3.420   0.750  1.9521  0.9639 -0.7004
 8336TIP3   OH246498   5.734   6.050  13.207  0.7920  0.6039 -0.0510
 8336TIP3    H146499   5.773   5.963  13.197 -0.6006 -0.2375  1.5107
 8336TIP3    H246500   5.713   6.078  13.118  1.3226 -0.6154 -0.5654
 8337TIP3   OH246501   0.360   4.934  16.951  0.5854 -0.1857 -0.1978
 8337TIP3    H146502   0.280   4.967  16.993 -0.7000 -2.0734 -1.0440
 8337TIP3    H246503   0.409   4.892  17.022 -0.5992 -1.5777 -0.1799
 8338TIP3   OH246504   1.277   2.425  13.882 -0.0681 -0.4039  0.0063
 8338TIP3    H146505   1.269   2.331  13.861  0.4150 -0.6084  0.7248
 8338TIP3    H246506   1.201   2.443  13.937  0.5345 -0.6890  0.9533
 8339TIP3   OH246507   1.461   3.159  14.599  0.0167 -0.0003 -0.1071
 8339TIP3    H146508   1.373   3.198  14.596  0.5476  1.2158  0.0984
 8339TIP3    H246509   1.462   3.098  14.525 -0.7156  0.5989 -0.6175
 8340TIP3   OH246510   5.234   4.989  13.091  0.0766 -0.2244 -0.1347
 8340TIP3    H146511   5.220   4.944  13.174  0.1383 -0.4317 -0.2365
 8340TIP3    H246512   5.176   4.944  13.029 -0.2606  0.1784 -0.1155
 8341TIP3   OH246513   4.948   3.282  11.378  0.1378  0.1904 -0.3658
 8341TIP3    H146514   4.875   3.320  11.428  0.5883  0.7082 -0.0929
 8341TIP3    H246515   4.985   3.357  11.331 -0.7789 -0.4363 -2.1060
 8342TIP3   OH246516   5.870   5.692  12.751  0.0819 -0.3044  0.5144
 8342TIP3    H146517   5.915   5.755  12.807  1.7038 -0.8645 -0.1365
 8342TIP3    H246518   5.860   5.738  12.667 -1.7962  0.3122  1.0532
 8343TIP3   OH246519   6.204   5.145   1.784 -0.1505 -0.1441 -0.1127
 8343TIP3    H146520   6.162   5.191   1.712  1.0123  0.0857 -0.6541
 8343TIP3    H246521   6.273   5.204   1.813  0.4489 -0.9463  0.1009
 8344TIP3   OH246522   2.823   4.921  16.540 -0.2898 -0.5000 -0.2301
 8344TIP3    H146523   2.743   4.877  16.568 -0.1394  0.1054  1.1655
 8344TIP3    H246524   2.804   4.952  16.452 -1.2411 -1.2346 -0.2859
 8345TIP3   OH246525   5.482   1.338   3.424  0.7639  0.4280  0.1905
 8345TIP3    H146526   5.388   1.348   3.438  0.5028 -0.7822 -0.6930
 8345TIP3    H246527   5.499   1.245   3.439  1.8072  0.6264  0.2571
 8346TIP3   OH246528   1.299   2.483  11.120 -0.1761 -0.1942  0.0910
 8346TIP3    H146529   1.282   2.416  11.186 -0.1433  0.8935  1.2205
 8346TIP3    H246530   1.375   2.450  11.071  0.6047 -0.4155  1.4225
 8347TIP3   OH246531   1.817   5.984  11.446 -0.0120  0.3901  1.2010
 8347TIP3    H146532   1.793   5.893  11.430  0.9170  0.4802 -0.8298
 8347TIP3    H246533   1.912   5.987  11.433  0.0114  1.5894  1.5351
 8348TIP3   OH246534   3.370   1.965   5.772  0.4755 -0.1227 -0.2015
 8348TIP3    H146535   3.281   1.968   5.737 -0.5705  0.3678  2.3729
 8348TIP3    H246536   3.387   2.054   5.802  0.8322 -0.8237  1.7227
 8349TIP3   OH246537   6.173   2.546   0.406  0.0540 -0.1274 -0.1858
 8349TIP3    H146538   6.116   2.616   0.438 -0.6219 -0.5366 -0.4890
 8349TIP3    H246539   6.132   2.517   0.324  0.4473 -0.7370 -0.1695
 8350TIP3   OH246540   5.593   2.421   1.384  0.0528  0.1753 -0.1744
 8350TIP3    H146541   5.541   2.388   1.310  0.7397 -0.1049 -0.5437
 8350TIP3    H246542   5.567   2.512   1.393  0.2810  0.3384 -1.0629
 8351TIP3   OH246543   5.861   1.914   1.145  0.7207 -0.3413  0.4982
 8351TIP3    H146544   5.869   1.963   1.226  0.8047  0.0011  0.2843
 8351TIP3    H246545   5.951   1.893   1.120  0.6949 -0.4499  0.4950
 8352TIP3   OH246546   5.396   1.363  16.016 -0.6739 -0.5083 -0.3145
 8352TIP3    H146547   5.432   1.275  16.028 -0.2529 -0.4998 -1.4005
 8352TIP3    H246548   5.363   1.387  16.102  1.8345 -0.5801  0.7370
 8353TIP3   OH246549   3.538   3.456   5.616 -0.4986  0.8391 -0.2621
 8353TIP3    H146550   3.606   3.508   5.573 -0.0021  1.1454  0.8771
 8353TIP3    H246551   3.527   3.379   5.560  2.1515 -0.1649  0.5228
 8354TIP3   OH246552   1.018   3.107   5.195  0.7704  0.1400 -0.6964
 8354TIP3    H146553   1.048   3.193   5.164 -1.1475  0.3272 -2.1885
 8354TIP3    H246554   0.929   3.124   5.226  0.9910 -0.9943  0.5511
 8355TIP3   OH246555   6.619   1.147  13.371  0.1133 -0.0014 -0.0781
 8355TIP3    H146556   6.526   1.135  13.392  0.5165 -0.8501  1.2988
 8355TIP3    H246557   6.649   1.060  13.344  0.2754  0.4918 -1.5456
 8356TIP3   OH246558   4.600   5.978  15.980 -0.7061  0.0272  0.0124
 8356TIP3    H146559   4.526   6.031  16.010 -0.6628 -0.3537  0.8152
 8356TIP3    H246560   4.590   5.974  15.885 -1.1411  0.8312  0.0210
 8357TIP3   OH246561   0.514   4.472  11.374 -0.0640 -0.0271 -0.8990
 8357TIP3    H146562   0.504   4.488  11.468 -0.3359  0.3020 -0.9834
 8357TIP3    H246563   0.599   4.430  11.366  0.5150  1.0670 -0.6273
 8358TIP3   OH246564   2.047   1.050   4.046 -0.2705  0.2249  0.4457
 8358TIP3    H146565   2.027   0.974   3.991  0.8180 -0.4680  1.0096
 8358TIP3    H246566   2.052   1.123   3.983 -1.0565 -0.2019 -0.1270
 8359TIP3   OH246567   1.915   6.309   0.995 -0.0372 -0.1288 -0.0507
 8359TIP3    H146568   1.944   6.221   1.018  2.7238  0.3340 -1.5207
 8359TIP3    H246569   1.891   6.303   0.903  1.5050  0.9325 -0.5448
 8360TIP3   OH246570   6.744   5.089  10.883 -0.0711 -0.3485 -0.2013
 8360TIP3    H146571   6.810   5.157  10.865 -0.5507  0.4178  0.9384
 8360TIP3    H246572   6.796   5.013  10.911  0.4038 -0.1813 -0.6018
 8361TIP3   OH246573   4.780   0.137   1.195  0.2892 -0.4636  0.1350
 8361TIP3    H146574   4.813   0.218   1.232 -0.2328 -0.9386  1.6900
 8361TIP3    H246575   4.789   0.073   1.266  1.6579 -2.0194 -1.3893
 8362TIP3   OH246576   1.544   2.055   0.030 -0.1483 -0.2986 -0.6218
 8362TIP3    H146577   1.579   2.040   0.118 -0.3334 -1.9023 -0.8024
 8362TIP3    H246578   1.520   1.967  -0.001 -0.5184  0.3131 -2.0885
 8363TIP3   OH246579   0.893   4.518   4.030  0.4767  0.1805 -0.1997
 8363TIP3    H146580   0.888   4.600   4.080 -1.1951  0.5303 -0.8982
 8363TIP3    H246581   0.845   4.455   4.085 -0.3106  0.2710 -0.7718
 8364TIP3   OH246582   6.600   4.700  13.196 -0.4375 -0.4935  0.0449
 8364TIP3    H146583   6.586   4.610  13.169  0.5030 -1.5157  2.7671
 8364TIP3    H246584   6.691   4.719  13.171 -0.3327 -0.6272  0.3229
 8365TIP3   OH246585   5.722   2.967   0.205  0.5315 -0.0981  0.1169
 8365TIP3    H146586   5.680   2.891   0.245  0.9320  0.8960  2.5515
 8365TIP3    H246587   5.649   3.025   0.181  0.2650 -0.8944 -1.0127
 8366TIP3   OH246588   0.135   3.970   2.393  0.0787  0.2962  0.3079
 8366TIP3    H146589   0.167   4.057   2.368 -0.7072  1.0639  1.9178
 8366TIP3    H246590   0.211   3.913   2.383  0.4728  1.0580 -1.2774
 8367TIP3   OH246591   6.091   3.814  13.397 -0.2053  0.0404 -0.0073
 8367TIP3    H146592   6.174   3.815  13.445 -1.1441  0.7284  1.6431
 8367TIP3    H246593   6.077   3.904  13.368  0.2241 -0.3188 -1.3660
 8368TIP3   OH246594   0.666   0.098   0.734 -0.9323 -0.1475  0.5353
 8368TIP3    H146595   0.658   0.051   0.817 -0.0007 -1.3454 -0.0506
 8368TIP3    H246596   0.604   0.171   0.743 -1.9477 -1.1262  1.6826
 8369TIP3   OH246597   6.592   1.732   2.534 -0.1062 -0.7039  0.1425
 8369TIP3    H146598   6.599   1.684   2.451  0.5751 -0.7755  0.2439
 8369TIP3    H246599   6.650   1.685   2.594  2.3994  1.6202 -0.3867
 8370TIP3   OH246600   5.729   3.989  15.032  0.1966 -0.4756 -0.4161
 8370TIP3    H146601   5.790   3.954  14.968  2.1475 -2.3291  2.3578
 8370TIP3    H246602   5.688   3.912  15.072  1.0204  0.4715  2.4220
 8371TIP3   OH246603   3.300   1.297  11.836  0.6152 -0.7618  0.7375
 8371TIP3    H146604   3.278   1.270  11.925 -0.4700 -0.5861  0.5255
 8371TIP3    H246605   3.246   1.374  11.820 -2.2586 -3.1056 -1.4974
 8372TIP3   OH246606   0.503   4.982   2.350 -0.4673 -0.1526 -0.2968
 8372TIP3    H146607   0.522   4.949   2.438 -1.4301  3.2183  1.2558
 8372TIP3    H246608   0.418   4.944   2.328  0.9580 -3.1394 -0.9641
 8373TIP3   OH246609   5.381   5.837  15.922 -0.1843  0.4732  0.5485
 8373TIP3    H146610   5.296   5.823  15.880 -0.1726 -0.4710  0.8215
 8373TIP3    H246611   5.439   5.774  15.880  0.4622  1.3332  0.1426
 8374TIP3   OH246612   4.688   0.473  12.407 -0.0455  0.9604  0.4609
 8374TIP3    H146613   4.618   0.452  12.346 -0.7416  0.5615  1.3860
 8374TIP3    H246614   4.737   0.391  12.416 -0.0748  0.9590  0.6054
 8375TIP3   OH246615   0.599   2.798   1.786  0.1510 -0.4632  0.4867
 8375TIP3    H146616   0.672   2.737   1.780  1.1556  0.6596  1.0663
 8375TIP3    H246617   0.596   2.841   1.700 -0.2052 -0.9279  0.2653
 8376TIP3   OH246618   6.608   0.977  14.498 -0.0084  0.3368  0.5207
 8376TIP3    H146619   6.629   0.955  14.589  2.0656  1.4994  0.3507
 8376TIP3    H246620   6.529   1.031  14.504  0.9196  1.6030  1.7660
 8377TIP3   OH246621   2.076   0.366  14.523 -0.7972  0.3285 -0.5710
 8377TIP3    H146622   2.037   0.446  14.558 -0.2229 -0.0684  0.9986
 8377TIP3    H246623   2.004   0.324  14.475 -1.2660  1.4676 -0.8987
 8378TIP3   OH246624   1.029   3.862   0.260 -1.2519  0.5208  0.0245
 8378TIP3    H146625   1.040   3.951   0.226 -1.8169  0.5095 -0.2038
 8378TIP3    H246626   0.996   3.874   0.349 -1.5279  0.5426 -0.0788
 8379TIP3   OH246627   5.378   5.792  15.317 -0.1093  0.4082 -0.6225
 8379TIP3    H146628   5.338   5.748  15.392 -0.1671 -0.6743 -1.2726
 8379TIP3    H246629   5.420   5.870  15.353 -0.1005 -0.1300  0.5343
 8380TIP3   OH246630   0.672   2.163   2.554  0.0112  0.0120 -0.4479
 8380TIP3    H146631   0.588   2.118   2.558  0.0861 -0.0124  0.9275
 8380TIP3    H246632   0.648   2.255   2.541 -0.2328  0.0277  0.1013
 8381TIP3   OH246633   1.359   2.024   1.625 -0.1968 -0.4857 -0.1440
 8381TIP3    H146634   1.348   2.053   1.715 -0.9869  2.4038 -1.1027
 8381TIP3    H246635   1.449   1.993   1.620  0.7334  1.8835  1.0210
 8382TIP3   OH246636   3.424   5.990   1.886 -0.4182 -0.0874 -0.2947
 8382TIP3    H146637   3.376   5.907   1.893  0.0110 -0.1381  2.9385
 8382TIP3    H246638   3.361   6.052   1.850 -0.9306 -1.6372 -2.1441
 8383TIP3   OH246639   6.541   3.238  16.618  0.5554 -0.5026 -0.6516
 8383TIP3    H146640   6.454   3.273  16.637  1.2489  2.6880 -2.9729
 8383TIP3    H246641   6.526   3.164  16.560 -0.6781 -1.2189  0.5427
 8384TIP3   OH246642   2.871   4.149  14.579  0.8477  0.4195  0.4151
 8384TIP3    H146643   2.830   4.111  14.501  2.7526  0.1259 -0.4631
 8384TIP3    H246644   2.873   4.243  14.561  0.0816  0.5015  0.7104
 8385TIP3   OH246645   3.605   2.679  12.503 -0.3877  0.4731 -0.4658
 8385TIP3    H146646   3.592   2.604  12.445 -0.0526 -0.9001  1.1940
 8385TIP3    H246647   3.604   2.754  12.445 -0.6530 -0.8222 -2.1836
 8386TIP3   OH246648   1.668   4.805  12.043 -0.4860 -0.0489 -0.3836
 8386TIP3    H146649   1.668   4.827  12.136  0.6335  1.3870 -0.7073
 8386TIP3    H246650   1.694   4.713  12.040  1.3496  0.4257  0.6148
 8387TIP3   OH246651   4.296   6.090  15.731 -0.4911  1.4316 -0.1714
 8387TIP3    H146652   4.295   6.185  15.728 -1.1026  1.5039  1.7310
 8387TIP3    H246653   4.284   6.069  15.824  0.5364 -0.4804 -0.4495
 8388TIP3   OH246654   0.119   2.425   5.665  0.2988 -0.2305 -0.3380
 8388TIP3    H146655   0.080   2.427   5.752 -0.8447  0.5348 -0.8469
 8388TIP3    H246656   0.208   2.392   5.678  0.2439  0.2060  1.1485
 8389TIP3   OH246657   0.586   0.875  15.829 -0.7192  0.2605  0.2028
 8389TIP3    H146658   0.635   0.888  15.749  1.4259 -0.8301  1.2966
 8389TIP3    H246659   0.607   0.950  15.884  1.4616 -1.2335  1.4888
 8390TIP3   OH246660   5.929   5.744  16.577  0.3657 -0.4473 -0.3082
 8390TIP3    H146661   5.868   5.699  16.636  0.7817 -1.0016 -0.2981
 8390TIP3    H246662   5.882   5.749  16.494  0.1102 -0.4159 -0.1650
 8391TIP3   OH246663   2.858   1.433   4.652  0.3672 -0.0957  0.2407
 8391TIP3    H146664   2.947   1.416   4.682  0.3115  1.5694  1.4138
 8391TIP3    H246665   2.830   1.510   4.702 -1.6387 -0.4572 -0.2805
 8392TIP3   OH246666   4.755   5.353   2.650 -0.1545 -0.9886  0.4128
 8392TIP3    H146667   4.673   5.344   2.600  0.3524  1.5360 -0.9664
 8392TIP3    H246668   4.731   5.407   2.725  0.1121 -0.7293  0.3110
 8393TIP3   OH246669   0.318   4.212  13.088 -0.0625  0.1013  0.3693
 8393TIP3    H146670   0.252   4.218  13.157  1.9385  1.1178  2.2498
 8393TIP3    H246671   0.322   4.300  13.051  1.7231  0.6095  1.7125
 8394TIP3   OH246672   1.204   0.323  15.335 -0.0492  0.3114  0.0885
 8394TIP3    H146673   1.238   0.310  15.423  0.5889 -1.1567 -0.3711
 8394TIP3    H246674   1.145   0.249  15.320 -1.8802  1.7129  0.0890
 8395TIP3   OH246675   6.663   3.061   1.367  0.3447 -0.5850 -1.0859
 8395TIP3    H146676   6.644   3.118   1.442  0.8528 -1.8819  0.0399
 8395TIP3    H246677   6.682   3.122   1.295  0.5951  0.6702  0.0230
 8396TIP3   OH246678   4.070   1.077   3.842 -0.2035  0.5677 -0.0495
 8396TIP3    H146679   4.118   0.994   3.836 -0.3349  0.4600  0.4487
 8396TIP3    H246680   3.993   1.063   3.787  0.1550  0.6252 -0.5823
 8397TIP3   OH246681   4.519   3.215  12.745 -0.3522  0.7847 -0.3126
 8397TIP3    H146682   4.513   3.310  12.760 -2.9573  0.7517 -0.9458
 8397TIP3    H246683   4.605   3.203  12.705 -0.0776  2.9278 -0.4446
 8398TIP3   OH246684   1.236   1.236   7.056 -0.1413  0.3566 -0.1608
 8398TIP3    H146685   1.281   1.161   7.095 -1.9006  0.7905  2.8990
 8398TIP3    H246686   1.183   1.197   6.985 -0.8871 -1.3135  1.2546
 8399TIP3   OH246687   0.265   2.474   2.906  0.3728 -0.1809  0.4327
 8399TIP3    H146688   0.201   2.492   2.837 -2.0028 -0.1803  2.5674
 8399TIP3    H246689   0.217   2.488   2.987  3.5634  1.4842  2.1370
 8400TIP3   OH246690   5.556   2.334   6.363 -0.7072 -0.5901 -0.1058
 8400TIP3    H146691   5.467   2.367   6.352 -0.9690 -0.6709  1.7008
 8400TIP3    H246692   5.605   2.407   6.401 -0.3311 -0.9731  0.1502
 8401TIP3   OH246693   6.711   3.791   6.330  0.3661 -0.1742  0.2205
 8401TIP3    H146694   6.805   3.810   6.329  0.2428  0.4697 -0.5982
 8401TIP3    H246695   6.676   3.840   6.255 -0.8445  0.7872  1.3752
 8402TIP3   OH246696   2.572   4.743  16.260  0.1826  0.1290  0.1086
 8402TIP3    H146697   2.483   4.710  16.247 -0.3983  1.2699  1.1752
 8402TIP3    H246698   2.585   4.740  16.355  0.7004  1.4895  0.0761
 8403TIP3   OH246699   4.328   4.145  17.020  0.3059  0.1643 -1.2950
 8403TIP3    H146700   4.423   4.137  17.029  0.3362  1.4440 -0.2639
 8403TIP3    H246701   4.315   4.182  16.933  0.6862 -1.1323 -1.9033
 8404TIP3   OH246702   5.839   2.506   1.450 -0.2171 -0.8816  0.4247
 8404TIP3    H146703   5.893   2.439   1.492  0.3679 -1.4032 -1.1215
 8404TIP3    H246704   5.769   2.458   1.408  1.5930 -0.8261 -2.8338
 8405TIP3   OH246705   2.559   2.288  16.619 -0.6015 -0.4701  0.1865
 8405TIP3    H146706   2.490   2.239  16.663  0.4418 -2.0980  0.0507
 8405TIP3    H246707   2.516   2.327  16.542 -1.6146 -0.5170  0.7212
 8406TIP3   OH246708   1.159   1.897   2.533 -0.8336  0.1866  0.1380
 8406TIP3    H146709   1.219   1.846   2.587 -0.8452  2.4513  2.4100
 8406TIP3    H246710   1.071   1.873   2.565 -0.9917 -0.6374 -0.8939
 8407TIP3   OH246711   3.510   3.788   1.362  0.6436 -0.1040 -0.2128
 8407TIP3    H146712   3.496   3.766   1.454  2.4001 -3.3180 -0.6601
 8407TIP3    H246713   3.429   3.833   1.336  0.0157  0.6187  2.7872
 8408TIP3   OH246714   6.536   2.956  15.072  0.0182 -0.0248  0.2731
 8408TIP3    H146715   6.630   2.951  15.089 -0.2091 -2.0782  1.0670
 8408TIP3    H246716   6.505   3.029  15.126  1.2172  0.9490 -0.3360
 8409TIP3   OH246717   6.284   2.858   0.756 -0.1680 -0.0373 -0.6497
 8409TIP3    H146718   6.331   2.855   0.672  0.8579  0.3312 -0.0931
 8409TIP3    H246719   6.230   2.937   0.750 -2.7705 -1.8574 -2.3540
 8410TIP3   OH246720   1.577   3.178  12.865  0.1877 -0.4293 -0.3126
 8410TIP3    H146721   1.648   3.129  12.907 -0.5042 -0.6096  0.6721
 8410TIP3    H246722   1.598   3.176  12.772 -0.6169 -3.9160 -0.4874
 8411TIP3   OH246723   2.803   3.191  11.188  0.4487  0.0065 -0.1693
 8411TIP3    H146724   2.843   3.114  11.148 -1.3323 -0.8663 -0.3225
 8411TIP3    H246725   2.777   3.162  11.276 -0.0414  0.4835 -0.1478
 8412TIP3   OH246726   2.430   1.360  15.887  0.0656  0.3733 -0.4816
 8412TIP3    H146727   2.473   1.313  15.816  0.2132  0.5086 -0.4817
 8412TIP3    H246728   2.501   1.387  15.945  0.1284  1.7212 -1.1478
 8413TIP3   OH246729   3.212   0.649  12.047  0.1124 -0.4952 -0.5184
 8413TIP3    H146730   3.259   0.731  12.056 -1.5119  0.2271  1.9044
 8413TIP3    H246731   3.248   0.592  12.115 -0.4805 -0.9257 -0.5505
 8414TIP3   OH246732   1.665   4.801   6.782  0.5229  0.6151 -0.0009
 8414TIP3    H146733   1.738   4.852   6.746 -0.4732  0.4216 -2.3936
 8414TIP3    H246734   1.605   4.790   6.708  0.2058 -3.1581  0.7254
 8415TIP3   OH246735   0.248   5.186  13.352  0.0926 -0.6057 -0.2832
 8415TIP3    H146736   0.281   5.097  13.369 -1.3922 -1.2319 -0.5989
 8415TIP3    H246737   0.191   5.175  13.276  1.0433  0.8840 -1.2304
 8416TIP3   OH246738   4.527   1.332  16.862 -0.6370  0.5841 -0.1496
 8416TIP3    H146739   4.492   1.353  16.949  0.5401 -2.6009  1.1942
 8416TIP3    H246740   4.622   1.330  16.875 -0.5449 -1.9963 -0.9617
 8417TIP3   OH246741   0.475   2.187  13.435  0.0761  0.0230  0.4166
 8417TIP3    H146742   0.415   2.152  13.502  0.6129 -1.5392  0.1050
 8417TIP3    H246743   0.417   2.216  13.365 -0.3466 -1.8676 -0.0656
 8418TIP3   OH246744   1.703   3.615  11.059  0.3145  0.2746 -0.3879
 8418TIP3    H146745   1.628   3.578  11.014 -0.0235 -0.7816  1.0155
 8418TIP3    H246746   1.766   3.635  10.990 -0.3704 -0.9013 -1.3507
 8419TIP3   OH246747   4.476   5.227   1.984 -0.3460  0.0806 -0.2067
 8419TIP3    H146748   4.538   5.167   1.942 -0.0794  0.9522 -1.1097
 8419TIP3    H246749   4.531   5.286   2.036 -0.4531  0.4995 -0.5574
 8420TIP3   OH246750   5.266   3.277   3.413  0.4043  0.2697  0.2329
 8420TIP3    H146751   5.205   3.348   3.394 -1.2162 -0.7064  1.6504
 8420TIP3    H246752   5.278   3.280   3.508 -0.5227 -1.9699  0.4589
 8421TIP3   OH246753   6.591   3.173   2.650  0.1489 -0.4366 -0.3928
 8421TIP3    H146754   6.656   3.229   2.610  1.1117  0.6380  2.5229
 8421TIP3    H246755   6.514   3.182   2.595  0.8376  2.4185 -0.9631
 8422TIP3   OH246756   1.772   3.975  12.663  0.2155 -0.4169  0.1483
 8422TIP3    H146757   1.842   3.962  12.600  0.1415  0.1344 -0.0523
 8422TIP3    H246758   1.788   3.909  12.731 -0.1680 -1.5392 -0.8374
 8423TIP3   OH246759   5.155   4.876  17.199 -0.4824 -0.5125  0.1885
 8423TIP3    H146760   5.205   4.940  17.250 -0.8098  0.8854 -1.2449
 8423TIP3    H246761   5.189   4.791  17.229  4.3324  0.3806 -2.2535
 8424TIP3   OH246762   2.553   0.878  14.049 -0.2247 -0.3518  0.9191
 8424TIP3    H146763   2.569   0.788  14.077  1.9675 -0.1017  0.5381
 8424TIP3    H246764   2.462   0.877  14.018  0.2786 -2.8479 -0.6666
 8425TIP3   OH246765   2.496   4.277  11.971 -0.4005  0.4186 -0.6626
 8425TIP3    H146766   2.461   4.204  11.919  1.0176 -0.1843 -0.7919
 8425TIP3    H246767   2.495   4.351  11.911 -1.6742  0.4701 -0.5923
 8426TIP3   OH246768   1.914   1.748   0.312 -0.1751 -0.0524  0.4967
 8426TIP3    H146769   2.006   1.726   0.326 -0.2856 -0.6032  0.3631
 8426TIP3    H246770   1.886   1.691   0.241 -0.5886  0.2041  0.4502
 8427TIP3   OH246771   2.425   1.752   6.840 -0.3773 -0.1440 -0.3135
 8427TIP3    H146772   2.410   1.821   6.775 -0.5788 -1.3515 -1.5707
 8427TIP3    H246773   2.501   1.782   6.890 -1.2542  1.6016  0.0303
 8428TIP3   OH246774   4.051   4.609  11.071 -0.4558 -0.2850 -0.3558
 8428TIP3    H146775   4.045   4.690  11.121 -0.8877  0.0665 -0.9807
 8428TIP3    H246776   3.967   4.601  11.027  0.8378  0.7011 -3.0513
 8429TIP3   OH246777   5.027   0.974   5.782  0.3153  0.3413  0.4338
 8429TIP3    H146778   4.954   1.034   5.768  0.1620 -0.1386 -0.9363
 8429TIP3    H246779   5.083   1.018   5.846 -0.1515  1.6142 -0.0205
 8430TIP3   OH246780   0.536   6.469   0.846 -0.2619 -0.3291  0.0146
 8430TIP3    H146781   0.453   6.506   0.817 -0.7377 -1.8683 -0.6564
 8430TIP3    H246782   0.538   6.381   0.807  0.4647 -1.3072  2.1547
 8431TIP3   OH246783   0.297   0.059  14.753  0.5236 -0.1379 -0.2598
 8431TIP3    H146784   0.330   0.056  14.842  0.1818  1.2038 -0.0809
 8431TIP3    H246785   0.280  -0.033  14.730  1.0509 -0.5195  0.8757
 8432TIP3   OH246786   5.416   5.876   0.833  0.0750 -0.1887 -0.5606
 8432TIP3    H146787   5.511   5.872   0.825  0.1827 -0.3553  0.7311
 8432TIP3    H246788   5.396   5.823   0.910 -0.7735  2.4612  1.1107
 8433TIP3   OH246789   2.970   5.794  12.566  0.1818  0.0226  0.1329
 8433TIP3    H146790   2.895   5.770  12.512  0.5997  0.7377 -0.7712
 8433TIP3    H246791   3.035   5.727  12.547 -0.3198 -0.7878  1.1640
 8434TIP3   OH246792   1.655   1.339   1.325  0.5020 -0.3259 -0.0972
 8434TIP3    H146793   1.730   1.398   1.334  0.4224 -0.4938  1.6829
 8434TIP3    H246794   1.612   1.369   1.244  0.8679  1.5907  0.3792
 8435TIP3   OH246795   3.997   4.663   5.909 -0.2899  0.2539 -0.1773
 8435TIP3    H146796   3.964   4.675   5.998 -0.4617 -2.2954  0.1366
 8435TIP3    H246797   4.088   4.637   5.920 -0.5325 -0.8619 -0.6938
 8436TIP3   OH246798   2.789   4.423   5.834 -1.0056  0.0994  0.2065
 8436TIP3    H146799   2.819   4.332   5.833 -0.8539  0.1358  1.0588
 8436TIP3    H246800   2.843   4.465   5.901 -1.4909  0.6738  0.2425
 8437TIP3   OH246801   6.714   6.575   1.382  0.0527 -0.0984  0.4710
 8437TIP3    H146802   6.630   6.615   1.406 -0.4939 -0.7219 -0.3474
 8437TIP3    H246803   6.765   6.576   1.462  0.0045  2.1081  0.5004
 8438TIP3   OH246804   0.066   6.203   1.900 -0.0287  0.1497 -0.3417
 8438TIP3    H146805   0.081   6.287   1.857  0.1804  0.4441  0.2991
 8438TIP3    H246806   0.137   6.196   1.964  0.3707 -0.8364 -0.8805
 8439TIP3   OH246807   2.206   1.015   5.731  0.0768  0.2303 -0.0646
 8439TIP3    H146808   2.221   1.109   5.722  2.9163  0.0505  2.0186
 8439TIP3    H246809   2.192   1.002   5.825 -0.1068 -1.4816 -0.3086
 8440TIP3   OH246810   2.467   6.218  17.175 -0.1087  0.6749  0.2842
 8440TIP3    H146811   2.506   6.152  17.118  3.2285  1.6834  1.3007
 8440TIP3    H246812   2.462   6.297  17.120 -1.6327  0.3048 -0.1265
 8441TIP3   OH246813   5.082   3.182   2.738  0.2078  0.6346  0.6767
 8441TIP3    H146814   5.077   3.207   2.645 -1.9169  0.4176  0.7133
 8441TIP3    H246815   5.000   3.136   2.755  0.1475  1.5201  2.9198
 8442TIP3   OH246816   6.438   1.173  11.405 -0.1808 -0.4948  0.0757
 8442TIP3    H146817   6.450   1.177  11.500  0.8061 -0.6461 -0.0403
 8442TIP3    H246818   6.525   1.151  11.370  0.0932  2.2043 -1.0601
 8443TIP3   OH246819   4.577   4.177  14.885  0.0529 -0.5388  0.1167
 8443TIP3    H146820   4.595   4.230  14.808 -1.0480  0.3421  0.4583
 8443TIP3    H246821   4.653   4.118  14.892 -0.4250 -1.4954 -2.3418
 8444TIP3   OH246822   2.283   0.723  11.548 -0.3814 -0.7060 -0.1221
 8444TIP3    H146823   2.257   0.631  11.550 -0.0738 -0.7829  0.4145
 8444TIP3    H246824   2.246   0.757  11.466 -2.2090 -0.7796  0.6587
 8445TIP3   OH246825   0.194   2.829  13.017 -0.0430 -0.4062  0.1044
 8445TIP3    H146826   0.149   2.907  12.986 -0.7561 -1.0055 -0.3885
 8445TIP3    H246827   0.216   2.849  13.108  1.5434  1.1316 -0.5777
 8446TIP3   OH246828   5.501   2.226  12.922 -0.2714  0.3202 -0.2533
 8446TIP3    H146829   5.418   2.250  12.962 -0.1901  0.0378  0.0866
 8446TIP3    H246830   5.477   2.163  12.854 -0.3928  0.6754 -0.5396
 8447TIP3   OH246831   1.433   4.656  16.386  0.0748  0.0776  0.1399
 8447TIP3    H146832   1.487   4.646  16.307 -0.4929 -0.8404 -0.1427
 8447TIP3    H246833   1.407   4.748  16.386  3.1281  1.0086  1.2570
 8448TIP3   OH246834   5.607   5.430  11.310 -0.2423 -0.9103 -0.3483
 8448TIP3    H146835   5.631   5.450  11.401  0.4728  0.2512 -0.7837
 8448TIP3    H246836   5.554   5.505  11.282  0.7238 -0.5852 -1.3362
 8449TIP3   OH246837   2.333   0.844  14.554 -0.2617 -0.0840 -0.3318
 8449TIP3    H146838   2.273   0.898  14.503 -1.0633 -1.9211 -1.3967
 8449TIP3    H246839   2.410   0.834  14.498 -0.0918  0.0020 -0.1151
 8450TIP3   OH246840   6.765   2.597  14.340 -0.2512 -0.7364  0.0251
 8450TIP3    H146841   6.730   2.531  14.280  0.5611  0.1141 -1.4298
 8450TIP3    H246842   6.852   2.616  14.305  1.0392 -1.6425  2.6377
 8451TIP3   OH246843   3.472   5.966   5.537  0.1462  0.4546  0.3176
 8451TIP3    H146844   3.513   5.890   5.577 -0.1091 -2.1214 -3.9535
 8451TIP3    H246845   3.381   5.940   5.524  0.1038  1.3560 -1.3854
 8452TIP3   OH246846   3.490   4.101  15.039  0.5155 -0.2244  0.4936
 8452TIP3    H146847   3.547   4.155  15.094  2.0266 -2.9914  1.7457
 8452TIP3    H246848   3.492   4.015  15.079 -0.7440 -1.6003 -2.2382
 8453TIP3   OH246849   6.790   6.362   2.997  0.0136  0.1291 -0.1052
 8453TIP3    H146850   6.821   6.295   2.935  0.4780  0.0926  0.1601
 8453TIP3    H246851   6.863   6.373   3.058 -0.9901 -0.9317  1.3377
 8454TIP3   OH246852   1.284   4.425   2.411  0.3147  0.4249 -0.3856
 8454TIP3    H146853   1.337   4.418   2.331 -1.5260 -2.7786 -1.4097
 8454TIP3    H246854   1.194   4.422   2.380 -0.4323  0.7229  1.7096
 8455TIP3   OH246855   3.325   3.953  12.635 -0.2725  0.1874 -0.2927
 8455TIP3    H146856   3.232   3.966  12.657 -0.2516  3.0369 -1.5695
 8455TIP3    H246857   3.372   3.984  12.712 -0.3576 -0.7516  0.1434
 8456TIP3   OH246858   3.146   3.157   2.118 -0.0494  0.4599 -0.5130
 8456TIP3    H146859   3.153   3.063   2.101 -0.7689  0.5504 -1.3298
 8456TIP3    H246860   3.121   3.163   2.210 -0.3810 -0.1688 -0.5603
 8457TIP3   OH246861   5.017   3.148  16.707 -0.2686 -0.9977  0.0436
 8457TIP3    H146862   4.987   3.182  16.792 -0.5320 -0.8138 -0.1206
 8457TIP3    H246863   5.107   3.178  16.699 -0.8467  0.6258 -0.6087
 8458TIP3   OH246864   5.684   0.123  11.411  0.4269  0.2524 -0.1341
 8458TIP3    H146865   5.748   0.090  11.349  0.0518 -1.2078  0.2345
 8458TIP3    H246866   5.735   0.147  11.489  0.7145  0.6885 -0.4536
 8459TIP3   OH246867   4.097   6.169  14.808  0.3463  0.3256  0.7490
 8459TIP3    H146868   4.093   6.131  14.720 -1.0348  1.8182  0.1423
 8459TIP3    H246869   4.057   6.255  14.798  1.6734  1.1499  2.5152
 8460TIP3   OH246870   0.006   5.695   4.963 -0.3197 -0.4005 -0.6355
 8460TIP3    H146871   0.080   5.746   4.931 -0.1951  0.2243  0.5960
 8460TIP3    H246872  -0.064   5.759   4.973 -0.2260 -0.4850  0.7148
 8461TIP3   OH246873   0.781   2.226   4.687 -0.6030 -0.1854 -0.2938
 8461TIP3    H146874   0.748   2.172   4.759  0.7190  1.4860  1.6343
 8461TIP3    H246875   0.875   2.211   4.686 -0.7798 -1.3576 -2.7114
 8462TIP3   OH246876   1.776   5.722  17.002 -0.1574  0.4605 -0.5782
 8462TIP3    H146877   1.811   5.636  16.980  0.1255  0.4135  0.0662
 8462TIP3    H246878   1.801   5.778  16.928 -3.3365 -0.7946 -2.7378
 8463TIP3   OH246879   4.879   0.679   1.694 -0.6678  0.2878 -0.5199
 8463TIP3    H146880   4.873   0.629   1.776 -0.4387  1.5898  0.2953
 8463TIP3    H246881   4.925   0.620   1.634  1.3207  0.2337  0.9992
 8464TIP3   OH246882   4.677   1.043  15.867 -0.3859 -0.0683  0.4375
 8464TIP3    H146883   4.682   1.075  15.777 -0.7952  0.7134  0.6865
 8464TIP3    H246884   4.586   1.058  15.893 -0.5411 -1.2914  0.6170
 8465TIP3   OH246885   1.928   4.841  13.492 -0.4731  0.3020  0.2999
 8465TIP3    H146886   1.855   4.808  13.439  0.4371  0.2226 -0.9186
 8465TIP3    H246887   1.940   4.931  13.462  0.1703  0.2002  0.2507
 8466TIP3   OH246888   2.351   5.763  11.193 -0.5528 -0.0012  0.3557
 8466TIP3    H146889   2.346   5.724  11.105  2.6765 -0.8191  0.4516
 8466TIP3    H246890   2.287   5.834  11.191 -1.5325 -0.8746 -2.2043
 8467TIP3   OH246891   3.271   4.866   2.619  0.3348 -0.6070  0.3002
 8467TIP3    H146892   3.263   4.950   2.574  0.1790 -0.2483  0.9828
 8467TIP3    H246893   3.234   4.882   2.706  1.9149 -0.8868  1.0458
 8468TIP3   OH246894   4.197   1.269   1.636 -0.2362  0.3781  0.0515
 8468TIP3    H146895   4.105   1.254   1.658 -0.8952  1.7453 -1.6371
 8468TIP3    H246896   4.216   1.357   1.671 -0.1085  0.8546 -1.1933
 8469TIP3   OH246897   5.048   3.895  16.754 -0.1046  0.1744 -0.2772
 8469TIP3    H146898   5.141   3.903  16.775  0.3064 -1.6178 -1.3799
 8469TIP3    H246899   5.040   3.926  16.664 -0.4761 -0.1834 -0.3720
 8470TIP3   OH246900   1.341   3.252   2.711 -0.1533 -0.2347  0.3197
 8470TIP3    H146901   1.290   3.314   2.763  0.0975  0.1138  0.1541
 8470TIP3    H246902   1.276   3.205   2.659 -0.2199  0.9079 -0.6375
 8471TIP3   OH246903   1.171   3.053  14.574  0.0958  0.1404  0.2147
 8471TIP3    H146904   1.204   3.026  14.489  2.2903  3.1263  0.0177
 8471TIP3    H246905   1.079   3.074  14.559 -0.4275 -2.6109 -0.6083
 8472TIP3   OH246906   6.490   3.900  12.204 -0.2930 -0.0607  0.3499
 8472TIP3    H146907   6.563   3.841  12.221 -0.4393 -0.9644 -2.0655
 8472TIP3    H246908   6.414   3.855  12.240  0.2752  0.8881  2.8833
 8473TIP3   OH246909   5.940   1.656   0.991 -1.0717 -0.6065  0.1766
 8473TIP3    H146910   6.027   1.679   0.958  0.2608 -3.5180  1.3995
 8473TIP3    H246911   5.880   1.676   0.919  0.8615 -0.2924 -1.3897
 8474TIP3   OH246912   5.505   1.439  11.003 -0.1970 -0.0773  0.1061
 8474TIP3    H146913   5.451   1.367  11.035  1.7041 -1.7357 -0.3249
 8474TIP3    H246914   5.463   1.465  10.921 -0.2833 -1.4345 -0.3025
 8475TIP3   OH246915   1.718   1.579   6.895  0.4496  0.0884 -0.3651
 8475TIP3    H146916   1.641   1.578   6.952 -0.3632  0.0192 -1.4528
 8475TIP3    H246917   1.695   1.638   6.823  1.1601 -0.4434 -1.0463
 8476TIP3   OH246918   5.140   1.477   1.230  0.5228  0.2903  0.5444
 8476TIP3    H146919   5.157   1.387   1.256 -0.8859 -0.1576 -0.0132
 8476TIP3    H246920   5.174   1.530   1.302  0.2016 -0.7489  1.4768
 8477TIP3   OH246921   5.398   0.303   4.725 -0.0534  0.3985  0.0939
 8477TIP3    H146922   5.327   0.244   4.698  0.6518  0.2542 -1.5480
 8477TIP3    H246923   5.354   0.383   4.754 -0.9707 -0.5051  1.2219
 8478TIP3   OH246924   4.170   5.524  16.110 -0.1083  0.3727 -0.1519
 8478TIP3    H146925   4.204   5.610  16.135 -1.2359  0.2524  1.9690
 8478TIP3    H246926   4.167   5.475  16.192  2.3144 -2.3811 -1.6191
 8479TIP3   OH246927   4.252   3.608  11.711  0.5025 -0.1740  0.0109
 8479TIP3    H146928   4.240   3.633  11.803  1.8678  1.6493 -0.2568
 8479TIP3    H246929   4.178   3.648  11.666  1.4509  1.5237 -0.0863
 8480TIP3   OH246930   1.940   5.174   3.293  0.3900 -0.0463 -0.2746
 8480TIP3    H146931   1.918   5.138   3.207 -2.4237 -1.7420  1.0721
 8480TIP3    H246932   1.974   5.099   3.342  1.3575  0.7579  0.2900
 8481TIP3   OH246933   6.812   6.657   1.151  0.2197 -0.0595 -0.2063
 8481TIP3    H146934   6.736   6.687   1.101  0.2351 -0.3473 -0.4100
 8481TIP3    H246935   6.777   6.629   1.235  0.2237  0.6323  0.0285
 8482TIP3   OH246936   2.257   6.332  16.818 -0.3730 -0.2282  0.2402
 8482TIP3    H146937   2.290   6.378  16.741  0.4155 -0.0706  0.6712
 8482TIP3    H246938   2.168   6.306  16.794  0.1846 -0.9739 -1.0614
 8483TIP3   OH246939   4.255   3.085  15.227  0.0897  0.2638 -0.0848
 8483TIP3    H146940   4.275   3.044  15.143  1.3342 -0.6757  0.6453
 8483TIP3    H246941   4.230   3.175  15.205 -1.8909 -0.6255 -1.6461
 8484TIP3   OH246942   5.155   4.340  15.906 -0.3269 -0.5217  0.2367
 8484TIP3    H146943   5.126   4.288  15.981 -0.2691  0.6297  1.0775
 8484TIP3    H246944   5.082   4.335  15.844 -1.0012 -0.3041  0.9867
 8485TIP3   OH246945   0.849   1.434  15.763  0.8000  0.8464 -0.1605
 8485TIP3    H146946   0.910   1.360  15.766  0.1954  0.3979  1.2034
 8485TIP3    H246947   0.894   1.499  15.708  2.1703  0.2302  0.2001
 8486TIP3   OH246948   0.779   0.525  13.818  0.0271  0.5021 -0.4759
 8486TIP3    H146949   0.736   0.440  13.832  1.2461  0.1210  1.1657
 8486TIP3    H246950   0.725   0.568  13.752 -0.8438 -1.3912 -1.0528
 8487TIP3   OH246951   6.409   5.399   5.156 -0.1645  0.6751 -0.1302
 8487TIP3    H146952   6.389   5.492   5.141 -0.0991  0.4629 -1.5707
 8487TIP3    H246953   6.361   5.353   5.087 -1.0823 -0.4572  1.2289
 8488TIP3   OH246954   3.128   0.169  12.843  0.2960  0.0077 -0.1954
 8488TIP3    H146955   3.220   0.184  12.820  0.6157  0.0672  1.1291
 8488TIP3    H246956   3.130   0.093  12.901 -0.4398  0.3384  0.2648
 8489TIP3   OH246957   2.841   2.728   6.350  0.4804 -0.0537  0.0283
 8489TIP3    H146958   2.822   2.821   6.365  0.3753 -0.0171 -0.3110
 8489TIP3    H246959   2.756   2.691   6.324  0.5182 -0.2480  0.1818
 8490TIP3   OH246960   5.893   2.979   0.828  0.4569  0.4143 -0.0041
 8490TIP3    H146961   5.832   2.998   0.756  0.8663  0.2298 -0.4017
 8490TIP3    H246962   5.846   2.917   0.883 -0.3480  1.5139  0.5615
 8491TIP3   OH246963   3.663   6.635   5.828 -0.4600 -0.1657  0.0890
 8491TIP3    H146964   3.702   6.710   5.875  0.8350 -0.2114 -0.8648
 8491TIP3    H246965   3.689   6.649   5.737  1.5197 -2.8246  0.1834
 8492TIP3   OH246966   4.699   0.478   3.301  0.3461 -0.2537  0.5012
 8492TIP3    H146967   4.703   0.564   3.343  1.6630 -1.7257  3.6189
 8492TIP3    H246968   4.629   0.431   3.348  0.3988 -1.2440 -0.3880
 8493TIP3   OH246969   4.139   4.697   1.063 -0.8685 -0.1959  0.6480
 8493TIP3    H146970   4.123   4.671   0.972  1.4682 -0.3091  0.2251
 8493TIP3    H246971   4.204   4.768   1.055 -1.2800  0.3587  2.1895
 8494TIP3   OH246972   5.989   4.597  16.852  0.8662  0.8449  0.1123
 8494TIP3    H146973   5.948   4.538  16.916  4.1758 -0.2050  1.3406
 8494TIP3    H246974   5.917   4.653  16.823 -1.8150 -1.9532  0.9674
 8495TIP3   OH246975   1.105   1.044   0.173  0.3843 -0.1845 -0.0459
 8495TIP3    H146976   1.117   1.095   0.093  0.9659  1.0464  0.8175
 8495TIP3    H246977   1.190   1.046   0.216 -0.7892  2.0722  2.2948
 8496TIP3   OH246978   2.583   0.774   4.567 -0.8763 -0.2979 -0.1013
 8496TIP3    H146979   2.671   0.804   4.543 -0.4354 -2.0327 -0.6642
 8496TIP3    H246980   2.562   0.826   4.645  1.3757 -1.1344  1.1130
 8497TIP3   OH246981   2.036   1.855   4.042 -0.1068  0.0457 -0.9023
 8497TIP3    H146982   2.021   1.929   3.983  1.1351  1.0049 -0.0513
 8497TIP3    H246983   2.042   1.779   3.984 -1.2768  0.6221 -1.7997
 8498TIP3   OH246984   5.834   3.348   3.546 -0.0859 -0.2891 -0.4481
 8498TIP3    H146985   5.875   3.265   3.570  0.0318 -0.4986 -1.3437
 8498TIP3    H246986   5.749   3.322   3.510  0.2807 -0.0766 -1.4634
 8499TIP3   OH246987   1.234   1.801   5.656 -0.4432  0.1768 -0.3546
 8499TIP3    H146988   1.230   1.897   5.655  0.9312  0.2331 -1.6585
 8499TIP3    H246989   1.275   1.780   5.740  0.5929  0.7924 -0.7002
 8500TIP3   OH246990   3.298   1.663   4.164 -0.6318  0.8370 -0.1960
 8500TIP3    H146991   3.360   1.735   4.162 -1.3953  1.5003 -0.3414
 8500TIP3    H246992   3.331   1.604   4.231 -0.6488  1.9075  0.7635
 8501TIP3   OH246993   2.846   3.918   2.688  0.1661 -0.0140 -0.3197
 8501TIP3    H146994   2.800   4.002   2.695  2.3889  1.2603 -0.3509
 8501TIP3    H246995   2.794   3.858   2.741 -0.0039  2.0655  1.9949
 8502TIP3   OH246996   6.381   4.605  10.974  0.0469 -0.0356 -0.6433
 8502TIP3    H146997   6.349   4.686  10.937 -0.9420 -0.7307 -1.3226
 8502TIP3    H246998   6.306   4.566  11.018  0.9025  0.1898  1.0830
 8503TIP3   OH246999   2.383   6.104   3.213  0.1252 -0.6578 -0.2546
 8503TIP3    H147000   2.347   6.190   3.190 -0.5583 -1.5301 -2.5991
 8503TIP3    H247001   2.347   6.045   3.147 -0.4600 -3.0111  2.0953
 8504TIP3   OH247002   5.254   4.298   4.410 -0.3631  0.2555 -0.5296
 8504TIP3    H147003   5.190   4.366   4.389  0.3995  1.0881 -0.2143
 8504TIP3    H247004   5.309   4.337   4.479 -0.1507 -0.8191 -0.0801
 8505TIP3   OH247005   5.102   2.800  15.250 -0.3024  0.1065  0.3317
 8505TIP3    H147006   5.086   2.706  15.241  0.5615  0.0295 -0.4951
 8505TIP3    H247007   5.118   2.812  15.344  0.7528 -0.7686  0.2828
 8506TIP3   OH247008   0.368   2.925   2.651  0.4796 -0.3069  0.3078
 8506TIP3    H147009   0.404   2.921   2.562 -1.3400  1.3295 -0.5207
 8506TIP3    H247010   0.445   2.933   2.707  1.6337 -1.0122 -1.1172
 8507TIP3   OH247011   5.532   4.871   2.740  0.0372  0.6872 -0.0849
 8507TIP3    H147012   5.575   4.838   2.820 -1.9143 -0.2144  0.6250
 8507TIP3    H247013   5.603   4.878   2.677  1.4792  0.5474  1.4677
 8508TIP3   OH247014   5.747   6.314   5.456 -0.0824 -0.0461  0.6736
 8508TIP3    H147015   5.652   6.320   5.466  0.0756  0.2389  2.0228
 8508TIP3    H247016   5.777   6.263   5.531  0.6859 -1.4579 -0.5556
 8509TIP3   OH247017   6.374   5.690  12.901  0.0911  1.8300 -0.4694
 8509TIP3    H147018   6.468   5.676  12.898 -0.2787 -0.8511 -0.4890
 8509TIP3    H247019   6.357   5.727  12.988  1.0640  1.6370 -0.2001
 8510TIP3   OH247020   4.085   2.623   5.591  0.0587  0.1450 -0.0908
 8510TIP3    H147021   4.060   2.531   5.587 -1.1125  0.3950  1.2309
 8510TIP3    H247022   4.007   2.668   5.622  0.8004  1.5208 -0.1840
 8511TIP3   OH247023   2.725   4.228   1.306 -0.1186 -0.2051  0.4282
 8511TIP3    H147024   2.757   4.254   1.392  0.1728  0.8142  0.0168
 8511TIP3    H247025   2.660   4.161   1.325  2.1726 -2.2644  1.2715
 8512TIP3   OH247026   3.945   1.897  15.652 -0.1912  0.2914  0.5115
 8512TIP3    H147027   3.993   1.845  15.587  1.1412  3.0250 -0.7980
 8512TIP3    H247028   3.909   1.970  15.603 -1.9014  0.7045  2.3137
 8513TIP3   OH247029   2.304   6.052  16.273 -0.7619 -0.7789 -0.1846
 8513TIP3    H147030   2.290   5.992  16.200 -0.7960 -2.5341  1.2166
 8513TIP3    H247031   2.335   5.996  16.344 -0.4655  0.9282  1.0664
 8514TIP3   OH247032   5.501   2.137  16.871 -0.7060  0.3453 -0.3002
 8514TIP3    H147033   5.563   2.142  16.798 -0.0307  2.1095  0.3857
 8514TIP3    H247034   5.513   2.049  16.906  0.5686  0.2612 -0.9133
 8515TIP3   OH247035   3.131   0.871   2.360  0.4620  0.1651  0.0856
 8515TIP3    H147036   3.062   0.867   2.426  0.5769  1.6650  0.3181
 8515TIP3    H247037   3.164   0.782   2.354  0.6478  0.0647  2.2614
 8516TIP3   OH247038   0.203   0.694  11.415 -0.1574  0.0057 -0.1226
 8516TIP3    H147039   0.135   0.710  11.350 -1.2394  3.8158  1.7760
 8516TIP3    H247040   0.267   0.763  11.400  0.7365 -0.4882  1.3511
 8517TIP3   OH247041   0.865   6.271  12.784  0.0721 -0.1588  0.6727
 8517TIP3    H147042   0.957   6.290  12.798  0.0147 -0.3173  1.2625
 8517TIP3    H247043   0.863   6.223  12.701  0.4924  0.0439  0.5418
 8518TIP3   OH247044   6.578   3.226   1.951  0.4246  0.5868 -0.1220
 8518TIP3    H147045   6.587   3.141   1.994  1.5048  1.1776  0.8482
 8518TIP3    H247046   6.622   3.215   1.867 -2.0905 -0.7120 -1.3258
 8519TIP3   OH247047   3.566   3.538  13.974 -0.3703 -0.0137  0.4595
 8519TIP3    H147048   3.539   3.629  13.991  2.5055  1.1393 -0.7953
 8519TIP3    H247049   3.621   3.515  14.050 -0.1996 -0.3045  0.2493
 8520TIP3   OH247050   3.380   5.937  15.766  0.2101 -0.0785 -0.0585
 8520TIP3    H147051   3.405   5.908  15.679  2.2884 -0.9941  0.7909
 8520TIP3    H247052   3.367   6.032  15.757  0.9859 -0.0730 -1.2390
 8521TIP3   OH247053   5.131   5.835   4.344 -0.1336  0.0303 -0.3639
 8521TIP3    H147054   5.048   5.794   4.366 -0.2258  0.5110  0.1918
 8521TIP3    H247055   5.197   5.780   4.384 -0.0734 -1.3572 -2.3104
 8522TIP3   OH247056   6.171   4.209   4.560  0.0257 -0.2608 -0.0039
 8522TIP3    H147057   6.237   4.222   4.492  0.3882 -0.0279  0.3871
 8522TIP3    H247058   6.170   4.292   4.608 -0.2035 -0.4340  0.2902
 8523TIP3   OH247059   4.975   2.680  11.939  0.6573  0.5981 -0.7835
 8523TIP3    H147060   4.886   2.651  11.958  0.2488  0.6812 -2.5615
 8523TIP3    H247061   4.965   2.771  11.910  1.3235  0.6009 -1.0082
 8524TIP3   OH247062   5.055   5.137  14.112  0.0097  0.0507 -0.6159
 8524TIP3    H147063   5.050   5.179  14.198  0.5892 -2.4668  0.7020
 8524TIP3    H247064   5.049   5.209  14.049  0.4653  2.0205  1.5468
 8525TIP3   OH247065   3.906   3.524  13.023  0.0257  0.2763 -0.3677
 8525TIP3    H147066   3.993   3.542  12.988  0.2210  0.4284  0.1880
 8525TIP3    H247067   3.922   3.491  13.111 -0.5101  0.9412 -0.0183
 8526TIP3   OH247068   2.776   4.118  13.640 -0.3551  0.3750 -0.4660
 8526TIP3    H147069   2.862   4.103  13.679 -0.2726 -2.1614 -1.5262
 8526TIP3    H247070   2.713   4.092  13.708 -0.2607  0.0916 -0.4887
 8527TIP3   OH247071   6.080   0.902   0.335  0.1570 -0.3107  0.0851
 8527TIP3    H147072   6.159   0.951   0.354 -0.6565  1.2421 -0.4808
 8527TIP3    H247073   6.014   0.939   0.393 -1.3296  1.6672 -2.7572
 8528TIP3   OH247074   5.083   1.561   2.710  0.8021 -0.0170  0.4193
 8528TIP3    H147075   5.044   1.628   2.653 -2.4791 -1.5024  0.7858
 8528TIP3    H247076   5.049   1.582   2.798  0.8797 -1.3311  0.7727
 8529TIP3   OH247077   2.071   0.459   4.102 -0.0331  0.6467 -0.4386
 8529TIP3    H147078   2.151   0.513   4.104 -0.0682  0.7210 -0.9905
 8529TIP3    H247079   2.080   0.400   4.177  1.0758 -0.1129 -1.1509
 8530TIP3   OH247080   6.379   6.717  16.903  0.1702  0.3183  0.1345
 8530TIP3    H147081   6.467   6.705  16.941  0.3521  0.4443 -0.2411
 8530TIP3    H247082   6.321   6.725  16.979  0.6458  1.3887  0.3922
 8531TIP3   OH247083   5.176   2.486   0.058 -0.2383  0.2140 -0.2798
 8531TIP3    H147084   5.166   2.412   0.117 -1.4489  0.5742 -0.0083
 8531TIP3    H247085   5.102   2.479  -0.003  0.1892  0.6444 -0.8606
 8532TIP3   OH247086   4.535   6.521  15.588 -0.5998  0.0580  0.2167
 8532TIP3    H147087   4.452   6.476  15.604 -2.3026  2.8184 -0.5034
 8532TIP3    H247088   4.517   6.613  15.608  2.9005  0.4353  2.0950
 8533TIP3   OH247089   3.676   1.864   1.139  0.3006 -0.0256  0.1132
 8533TIP3    H147090   3.618   1.803   1.184 -0.3257 -0.2192 -0.9615
 8533TIP3    H247091   3.630   1.888   1.059  0.8321  1.3490  0.1993
 8534TIP3   OH247092   5.733   1.239   2.837 -0.1185  0.1532 -0.0166
 8534TIP3    H147093   5.777   1.170   2.787  0.3969  0.0534  0.5791
 8534TIP3    H247094   5.687   1.290   2.771 -0.8069 -0.9814 -0.4326
 8535TIP3   OH247095   3.479   2.415  16.522 -0.4428  0.5526  0.0366
 8535TIP3    H147096   3.509   2.438  16.610 -1.5231  1.4862  0.1768
 8535TIP3    H247097   3.560   2.403  16.471  0.1770  1.0792  0.8881
 8536TIP3   OH247098   1.928   6.637  11.988 -0.6288 -0.5759  0.1355
 8536TIP3    H147099   2.015   6.605  11.967 -0.3194 -0.0751  0.6530
 8536TIP3    H247100   1.936   6.732  11.990 -0.8387 -0.5753  1.6679
 8537TIP3   OH247101   6.042   5.557   1.993  0.2905 -0.1043 -0.1147
 8537TIP3    H147102   6.042   5.473   1.947 -0.3202  0.1010 -0.4900
 8537TIP3    H247103   5.951   5.570   2.020  0.1477  0.9987 -1.0908
 8538TIP3   OH247104   0.116   2.620  11.166 -0.4214 -0.6744  0.3473
 8538TIP3    H147105   0.033   2.638  11.121  0.1693  0.3848 -0.3461
 8538TIP3    H247106   0.100   2.643  11.258 -0.3873  1.2783 -0.0989
 8539TIP3   OH247107   1.708   0.784   1.389  0.4661  0.6055 -0.4946
 8539TIP3    H147108   1.669   0.777   1.302 -3.6194 -0.8926  1.3092
 8539TIP3    H247109   1.666   0.860   1.428  1.3711  0.5448  0.6234
 8540TIP3   OH247110   0.502   4.771  17.123  0.1987 -0.5674 -0.1260
 8540TIP3    H147111   0.443   4.697  17.117 -1.1045  0.5583 -1.5923
 8540TIP3    H247112   0.567   4.756  17.055 -0.7351  0.1995 -1.2002
 8541TIP3   OH247113   6.621   0.766  15.838 -0.1267 -1.0732 -0.0983
 8541TIP3    H147114   6.698   0.737  15.888 -0.8381 -0.0419  1.6131
 8541TIP3    H247115   6.658   0.813  15.763  0.9182 -0.5709  0.7141
 8542TIP3   OH247116   5.749   2.261   1.144  0.2493 -0.2955  0.3097
 8542TIP3    H147117   5.665   2.286   1.182  0.2316 -0.9806  0.7230
 8542TIP3    H247118   5.796   2.217   1.215  0.4492 -1.0611 -0.2835
 8543TIP3   OH247119   5.955   2.849  15.720  0.3490  0.1245  0.1485
 8543TIP3    H147120   5.900   2.770  15.726 -0.6848  0.6776 -1.4983
 8543TIP3    H247121   5.975   2.856  15.626  1.6700  0.9943  0.4925
 8544TIP3   OH247122   5.999   5.741   6.051  0.6223 -0.5468 -0.4936
 8544TIP3    H147123   5.908   5.764   6.033  0.2451  0.4553  2.3946
 8544TIP3    H247124   5.999   5.646   6.061 -0.9366 -0.2573  3.2545
 8545TIP3   OH247125   4.656   4.493  12.042 -0.1819  0.5541 -0.5336
 8545TIP3    H147126   4.561   4.483  12.042 -0.2388  1.0838 -0.6103
 8545TIP3    H247127   4.672   4.574  12.091  0.3416 -0.5269  1.1416
 8546TIP3   OH247128   1.087   4.817   4.006 -0.6431 -0.4154 -0.4753
 8546TIP3    H147129   1.091   4.912   4.017 -1.1185 -0.2558 -1.5934
 8546TIP3    H247130   1.109   4.782   4.092 -2.2481  0.7310  0.4484
 8547TIP3   OH247131   1.695   0.820   2.067  0.3048 -0.5971 -0.5181
 8547TIP3    H147132   1.760   0.782   2.127  0.3835  0.4217  0.0432
 8547TIP3    H247133   1.656   0.892   2.116 -1.5962 -1.4921 -0.6712
 8548TIP3   OH247134   5.785   6.159  11.764  0.3485  0.0174  0.1459
 8548TIP3    H147135   5.777   6.252  11.783  1.9644  0.4402 -1.1080
 8548TIP3    H247136   5.803   6.118  11.848 -0.0082  0.8873  0.6437
 8549TIP3   OH247137   1.263   1.021   5.827 -0.0739 -0.1379 -0.0604
 8549TIP3    H147138   1.198   0.989   5.890 -1.3136  1.6248 -0.4142
 8549TIP3    H247139   1.230   0.992   5.742 -0.7615  1.2685 -0.2999
 8550TIP3   OH247140   3.918   1.568   5.114 -0.3016 -0.5489  0.5200
 8550TIP3    H147141   3.962   1.653   5.118  0.3266 -0.7829 -1.1062
 8550TIP3    H247142   3.982   1.507   5.152  0.5004 -0.7674 -1.1417
 8551TIP3   OH247143   1.835   6.185   1.710  0.6929 -0.3516 -0.0971
 8551TIP3    H147144   1.910   6.245   1.711  1.1528 -0.9151  2.4644
 8551TIP3    H247145   1.759   6.241   1.722  0.8848  0.0069 -0.5437
 8552TIP3   OH247146   1.650   6.055   0.668 -0.0979 -0.0002  0.4277
 8552TIP3    H147147   1.602   5.974   0.651 -1.6445  0.7628  0.9983
 8552TIP3    H247148   1.711   6.032   0.738 -1.5681 -0.3205  1.6301
 8553TIP3   OH247149   5.998   4.281  14.796  0.0668 -0.2031 -0.3053
 8553TIP3    H147150   6.014   4.298  14.704  0.2087 -0.3093 -0.2998
 8553TIP3    H247151   6.005   4.186  14.806  1.9397 -0.0325  0.1727
 8554TIP3   OH247152   5.461   4.258   2.647 -0.3282 -0.1162  0.0471
 8554TIP3    H147153   5.377   4.298   2.626 -0.7296 -2.1136 -2.3327
 8554TIP3    H247154   5.440   4.167   2.667  1.2063 -0.5146 -0.0616
 8555TIP3   OH247155   4.329   4.082   0.543 -0.1025  0.0712  0.6512
 8555TIP3    H147156   4.327   4.018   0.472 -0.3620 -0.9722  1.5884
 8555TIP3    H247157   4.316   4.030   0.622 -0.6756  1.3378  1.3914
 8556TIP3   OH247158   0.016   4.998  11.239 -0.0334 -0.5051  0.5497
 8556TIP3    H147159   0.060   5.070  11.284  1.2363 -0.9728  0.0716
 8556TIP3    H247160   0.060   4.993  11.154 -0.6145 -1.3708  0.3025
 8557TIP3   OH247161   2.791   1.664   3.525 -0.3130  0.2592 -0.2357
 8557TIP3    H147162   2.726   1.646   3.458 -0.7921  0.1248  0.2612
 8557TIP3    H247163   2.875   1.641   3.485 -0.4372  1.7001 -1.3425
 8558TIP3   OH247164   0.162   4.355  12.559 -0.1277 -0.2518 -0.1353
 8558TIP3    H147165   0.171   4.365  12.654 -0.7206 -1.5114  0.0656
 8558TIP3    H247166   0.088   4.295  12.548  1.1278 -1.6119 -1.3432
 8559TIP3   OH247167   3.059   2.604   3.691 -0.3472 -0.2897 -0.0406
 8559TIP3    H147168   3.089   2.558   3.612 -0.4644  0.6404 -0.6370
 8559TIP3    H247169   3.138   2.617   3.743 -0.0922  0.0600 -0.5119
 8560TIP3   OH247170   6.464   2.116   3.510 -0.0229 -0.1973 -0.0789
 8560TIP3    H147171   6.439   2.055   3.440 -1.7451  0.2443  0.1282
 8560TIP3    H247172   6.432   2.201   3.480  1.0095  0.3383  0.3406
 8561TIP3   OH247173   6.529   2.446   1.978 -0.6942  0.4402  0.5882
 8561TIP3    H147174   6.443   2.408   1.994  0.0104 -0.2701  2.9671
 8561TIP3    H247175   6.585   2.371   1.957  0.0205  0.4823  2.2377
 8562TIP3   OH247176   0.584   0.377  16.361  0.1032  0.0741 -0.2261
 8562TIP3    H147177   0.507   0.435  16.356 -2.3922 -3.2457 -2.2736
 8562TIP3    H247178   0.610   0.381  16.453 -1.1454  2.9932  0.0522
 8563TIP3   OH247179   3.779   1.869   3.062  0.1911 -0.5349  0.3554
 8563TIP3    H147180   3.842   1.938   3.044  0.7206 -0.4963  2.2386
 8563TIP3    H247181   3.833   1.792   3.081 -0.3637 -1.0717 -0.2386
 8564TIP3   OH247182   2.433   1.363   4.224 -0.4126  0.0148 -0.7070
 8564TIP3    H147183   2.519   1.330   4.200 -0.1847  0.7031 -0.8351
 8564TIP3    H247184   2.410   1.424   4.153 -0.4792  0.7534 -0.0596
 8565TIP3   OH247185   3.865   6.724  15.210 -0.4402  0.4811 -0.4680
 8565TIP3    H147186   3.847   6.663  15.282 -0.5541  0.2882 -0.6573
 8565TIP3    H247187   3.949   6.764  15.232 -0.8674  1.0260  0.1852
 8566TIP3   OH247188   2.971   6.097   3.701  0.0328  0.1632  0.8319
 8566TIP3    H147189   3.066   6.087   3.707 -0.0769 -0.4366  1.6463
 8566TIP3    H247190   2.950   6.068   3.613  0.3679 -1.7026  1.3483
 8567TIP3   OH247191   4.711   3.532   4.634  0.6002  0.1598 -0.1192
 8567TIP3    H147192   4.683   3.503   4.547  2.8676 -1.4096 -0.3868
 8567TIP3    H247193   4.650   3.492   4.695 -0.7040  0.8555 -0.9582
 8568TIP3   OH247194   4.327   6.284  12.332 -0.1955 -0.5675  0.2405
 8568TIP3    H147195   4.369   6.281  12.418 -0.2021 -0.0938  0.2588
 8568TIP3    H247196   4.252   6.225  12.341 -0.8681  0.3774  0.9270
 8569TIP3   OH247197   3.946   6.784  11.098 -0.5714 -0.9593 -0.2547
 8569TIP3    H147198   3.997   6.797  11.017  1.0401  0.4352  0.9266
 8569TIP3    H247199   3.857   6.809  11.074 -0.2447 -1.1877 -1.7825
 8570TIP3   OH247200   5.790   3.708   4.766  0.1211 -0.0785  0.4148
 8570TIP3    H147201   5.768   3.641   4.831 -1.6874  0.7589  0.6710
 8570TIP3    H247202   5.712   3.762   4.759  0.6229  0.4231 -1.7648
 8571TIP3   OH247203   0.879   4.151  12.460 -0.2446  0.4193  0.3161
 8571TIP3    H147204   0.926   4.119  12.537  0.3286  0.3083 -0.0731
 8571TIP3    H247205   0.912   4.239  12.445  0.2178  0.1578 -0.2539
 8572TIP3   OH247206   4.305   3.359  16.413 -0.1626 -0.1207 -0.0001
 8572TIP3    H147207   4.391   3.350  16.454 -0.1560 -1.6410 -0.2941
 8572TIP3    H247208   4.321   3.408  16.332  0.2801  0.3951  0.4028
 8573TIP3   OH247209   4.180   5.643  10.486  0.2160  0.2054 -0.1666
 8573TIP3    H147210   4.201   5.643  10.392  0.4918  0.5354 -0.1066
 8573TIP3    H247211   4.151   5.732  10.504 -0.2602  0.0268 -0.0267
 8574TIP3   OH247212   3.764   3.837   0.666 -0.1967 -0.4655 -0.2322
 8574TIP3    H147213   3.703   3.837   0.592 -0.6591 -1.3018  0.1394
 8574TIP3    H247214   3.752   3.922   0.708  1.0600  0.5661 -1.9238
 8575TIP3   OH247215   4.853   5.829   3.246  0.0063  0.4000  0.0624
 8575TIP3    H147216   4.910   5.757   3.218  0.1883  1.0286 -1.2293
 8575TIP3    H247217   4.765   5.793   3.239  0.1500 -0.0553  0.5117
 8576TIP3   OH247218   0.657   5.772   1.119  0.2609 -0.3987  0.0935
 8576TIP3    H147219   0.657   5.733   1.207  1.1640  0.0456  0.2904
 8576TIP3    H247220   0.635   5.864   1.134  2.1278  0.0628  0.0222
 8577TIP3   OH247221   6.438   4.840   5.373 -0.4526  0.0836 -0.4410
 8577TIP3    H147222   6.431   4.933   5.353  0.2279 -0.4405 -3.2677
 8577TIP3    H247223   6.526   4.815   5.344  0.1029 -1.0619  2.0405
 8578TIP3   OH247224   2.608   6.666  16.830 -0.0666  0.2201  0.1523
 8578TIP3    H147225   2.679   6.604  16.811 -0.1691  0.0784  0.2327
 8578TIP3    H247226   2.629   6.743  16.777 -0.0573  0.0318 -0.1181
 8579TIP3   OH247227   3.887   2.425  12.323 -0.4027 -0.6005 -0.1672
 8579TIP3    H147228   3.871   2.466  12.408 -3.4645  0.2645 -1.0753
 8579TIP3    H247229   3.918   2.496  12.267  0.7119 -0.9667 -0.0174
 8580TIP3   OH247230   4.292   3.069   0.566 -0.5268 -0.1419  0.0240
 8580TIP3    H147231   4.353   3.038   0.499 -1.2292 -0.3298 -0.5251
 8580TIP3    H247232   4.269   2.990   0.615 -0.5021 -0.1034  0.0988
 8581TIP3   OH247233   2.319   5.420   1.219  0.0194 -0.4402  0.3383
 8581TIP3    H147234   2.347   5.376   1.139  2.5197 -0.9330  1.4284
 8581TIP3    H247235   2.304   5.349   1.281 -1.3905 -0.0354  0.4737
 8582TIP3   OH247236   1.466   0.376  13.371 -0.1875  0.0954  0.1435
 8582TIP3    H147237   1.480   0.403  13.462  2.1726  0.2160 -0.2354
 8582TIP3    H247238   1.426   0.289  13.378  1.9191 -0.8099  1.2950
 8583TIP3   OH247239   5.222   4.811  13.886 -0.2382 -0.0842  0.3328
 8583TIP3    H147240   5.301   4.865  13.884  0.1809 -0.7104 -0.4821
 8583TIP3    H247241   5.157   4.866  13.929  0.1093  1.1700 -0.7075
 8584TIP3   OH247242   4.823   6.780  14.751  0.1582  0.9910 -0.6720
 8584TIP3    H147243   4.773   6.798  14.672  0.5951  1.7852 -0.7659
 8584TIP3    H247244   4.914   6.797  14.727  0.6733 -1.7437 -0.9074
 8585TIP3   OH247245   0.782   4.333   2.376 -0.7109  0.0445  0.0280
 8585TIP3    H147246   0.717   4.363   2.313 -0.1284 -0.3244 -0.7644
 8585TIP3    H247247   0.755   4.244   2.398  0.4712 -0.7529 -1.6296
 8586TIP3   OH247248   2.546   3.755   0.824 -0.7831 -0.3698  0.1709
 8586TIP3    H147249   2.548   3.664   0.854 -1.7786 -0.7780 -0.9631
 8586TIP3    H247250   2.457   3.767   0.790 -0.7491  1.1181  0.5797
 8587TIP3   OH247251   3.712   0.789  14.575  0.3994 -0.4343  0.2147
 8587TIP3    H147252   3.708   0.830  14.489  0.3369 -0.4055  0.2318
 8587TIP3    H247253   3.730   0.697  14.557 -0.0654 -0.5138  0.1501
 8588TIP3   OH247254   3.750   3.630  17.029 -0.1798 -0.1028  0.4350
 8588TIP3    H147255   3.765   3.574  17.105 -1.0670 -2.7316 -1.2245
 8588TIP3    H247256   3.673   3.591  16.986  1.1065  0.4951 -2.5104
 8589TIP3   OH247257   2.567   1.235  15.659  0.4174  0.1077  0.1196
 8589TIP3    H147258   2.524   1.259  15.577  0.7585  1.4289  0.3114
 8589TIP3    H247259   2.660   1.225  15.636  0.7096  1.6572  0.5560
 8590TIP3   OH247260   3.082   0.634   0.562 -0.1805  0.6463 -0.0133
 8590TIP3    H147261   3.009   0.656   0.504  0.4426  1.9545 -0.3132
 8590TIP3    H247262   3.040   0.592   0.638 -1.0150 -0.8780 -1.2720
 8591TIP3   OH247263   1.394   3.189   1.087 -0.1571 -0.1349 -0.2137
 8591TIP3    H147264   1.422   3.258   1.147  3.8682 -1.3561 -0.5013
 8591TIP3    H247265   1.374   3.115   1.144  1.9691 -0.7417 -0.2017
 8592TIP3   OH247266   4.693   0.807  15.571  0.1797  0.6491  0.4660
 8592TIP3    H147267   4.782   0.773  15.584 -0.3582 -1.2174 -0.4808
 8592TIP3    H247268   4.651   0.796  15.656  0.9221  1.8099  1.0015
 8593TIP3   OH247269   2.096   1.616  16.372  0.4260 -0.3832 -0.3377
 8593TIP3    H147270   2.143   1.670  16.309 -0.0685 -1.0703 -1.2944
 8593TIP3    H247271   2.006   1.646  16.367  0.4767 -0.0781  0.4360
 8594TIP3   OH247272   0.813   6.531  12.894  0.5875 -0.1947  0.3378
 8594TIP3    H147273   0.799   6.608  12.950 -0.5640 -0.3320  0.2457
 8594TIP3    H247274   0.838   6.462  12.955  1.8258  0.2975  0.4000
 8595TIP3   OH247275   0.471   0.265   4.403 -0.0699 -0.4691 -0.1002
 8595TIP3    H147276   0.434   0.306   4.325  2.2881 -0.8488 -1.4531
 8595TIP3    H247277   0.509   0.183   4.371  1.1001 -0.5325  1.4030
 8596TIP3   OH247278   5.107   2.321   4.521  0.2772 -0.1447  0.0480
 8596TIP3    H147279   5.032   2.267   4.498 -1.1838  1.5101  0.7232
 8596TIP3    H247280   5.158   2.327   4.441 -0.2365 -1.4158 -0.3895
 8597TIP3   OH247281   4.090   0.092   5.252  0.5960  0.0047 -0.6875
 8597TIP3    H147282   4.006   0.095   5.298  0.6573 -0.8601 -0.5272
 8597TIP3    H247283   4.149   0.144   5.306  0.5862 -0.7440  0.0413
 8598TIP3   OH247284   3.261   0.131   2.748 -0.3300  0.2281  0.1397
 8598TIP3    H147285   3.212   0.050   2.736 -1.5268  0.8388  0.8857
 8598TIP3    H247286   3.348   0.112   2.711  0.3151 -2.2892  2.7667
 8599TIP3   OH247287   0.525   5.602  16.229 -0.3652  0.1945 -0.4659
 8599TIP3    H147288   0.482   5.540  16.289 -0.3424  0.6273  0.0072
 8599TIP3    H247289   0.611   5.617  16.268  0.4587 -1.1442 -1.7412
 8600TIP3   OH247290   5.688   0.748   1.365 -0.0484 -0.7119  0.0711
 8600TIP3    H147291   5.693   0.664   1.410  0.8074 -1.3143 -1.1294
 8600TIP3    H247292   5.641   0.730   1.284  0.8776 -0.2085 -0.5857
 8601TIP3   OH247293   4.918   6.297  12.722 -0.4157 -0.1314  0.0835
 8601TIP3    H147294   4.961   6.383  12.722 -2.4928  0.9372 -0.1938
 8601TIP3    H247295   4.972   6.244  12.664 -1.4208  2.2063 -3.1222
 8602TIP3   OH247296   3.140   1.745  13.528 -0.1907 -0.6296 -0.3096
 8602TIP3    H147297   3.068   1.766  13.469 -0.8760 -1.2570  0.2818
 8602TIP3    H247298   3.184   1.671  13.487  0.9221  0.5858 -1.3283
 8603TIP3   OH247299   6.206   3.779  11.731 -0.9463 -1.1298 -0.5361
 8603TIP3    H147300   6.290   3.795  11.773 -1.9011  0.1931  0.9502
 8603TIP3    H247301   6.201   3.845  11.662 -1.4854 -0.0289  0.5178
 8604TIP3   OH247302   5.251   3.729  11.542  0.0836  0.2120  0.0149
 8604TIP3    H147303   5.264   3.815  11.582 -0.8152 -0.2525  1.3214
 8604TIP3    H247304   5.281   3.667  11.609 -0.4421 -0.5390 -0.4435
 8605TIP3   OH247305   4.530   4.709  14.727 -0.0361 -0.1722  0.5346
 8605TIP3    H147306   4.525   4.804  14.738  0.9807  0.2450 -2.1952
 8605TIP3    H247307   4.470   4.690  14.655 -0.5685 -1.6875  1.3451
 8606TIP3   OH247308   2.094   4.456  13.992 -0.4013  0.0386 -0.2300
 8606TIP3    H147309   2.114   4.453  13.898  0.4849  0.4132 -0.0561
 8606TIP3    H247310   2.158   4.397  14.032 -0.6293  0.0625  0.1668
 8607TIP3   OH247311   3.899   0.820   0.637  0.3542  0.2171 -0.0790
 8607TIP3    H147312   3.875   0.728   0.635  0.4854  0.2029 -1.1477
 8607TIP3    H247313   3.883   0.851   0.548  0.0164  1.2989  0.3413
 8608TIP3   OH247314   1.954   3.924  13.413 -0.4698  0.6371 -0.3395
 8608TIP3    H147315   1.860   3.919  13.429 -0.6915 -1.5542 -1.9421
 8608TIP3    H247316   1.985   3.994  13.470 -2.7067 -0.1190  1.9162
 8609TIP3   OH247317   6.061   2.773  12.343 -0.7613  0.0853  0.7704
 8609TIP3    H147318   6.047   2.804  12.253  0.3912 -0.7662  0.2821
 8609TIP3    H247319   5.987   2.715  12.360  0.7892 -2.4974 -0.9175
 8610TIP3   OH247320   0.011   3.272   0.243 -0.1331  0.4564 -0.3243
 8610TIP3    H147321  -0.013   3.346   0.297  2.4255  0.1956  1.2573
 8610TIP3    H247322   0.040   3.310   0.160 -0.6516  1.0775 -0.2204
 8611TIP3   OH247323   3.976   4.805  15.033 -0.9302 -0.2884  0.0823
 8611TIP3    H147324   3.934   4.881  14.993 -1.2825 -0.6796 -0.2965
 8611TIP3    H247325   3.958   4.815  15.127  1.8519  1.8424  0.4498
 8612TIP3   OH247326   5.002   5.700   5.484  0.9326 -0.1039  0.5947
 8612TIP3    H147327   5.096   5.711   5.495  1.4934 -0.6284 -3.0642
 8612TIP3    H247328   4.983   5.737   5.398 -2.1396 -0.4255  1.0762
 8613TIP3   OH247329   0.775   0.510   6.460  0.1881  0.3483 -0.3330
 8613TIP3    H147330   0.788   0.545   6.549 -0.6469  0.5428 -0.2829
 8613TIP3    H247331   0.823   0.428   6.459  1.4592  1.0807 -0.1713
 8614TIP3   OH247332   1.441   4.705  10.951 -0.2021 -0.9376 -0.5105
 8614TIP3    H147333   1.458   4.703  10.857 -1.2810  1.3143 -0.7669
 8614TIP3    H247334   1.348   4.682  10.959 -0.2927 -0.4011 -0.0426
 8615TIP3   OH247335   0.909   5.417   1.275 -0.2133 -0.0400  0.1353
 8615TIP3    H147336   0.881   5.349   1.215 -0.6399 -0.1455  0.4456
 8615TIP3    H247337   0.971   5.374   1.334 -0.7246 -0.2463  0.5309
 8616TIP3   OH247338   5.628   4.328  11.317  0.3612 -0.2850  0.0612
 8616TIP3    H147339   5.564   4.398  11.328  2.0249  1.1039  1.0427
 8616TIP3    H247340   5.621   4.305  11.224 -0.2406  1.1406 -0.2671
 8617TIP3   OH247341   1.042   3.896   6.310 -0.1704 -0.0961  0.2092
 8617TIP3    H147342   1.119   3.953   6.301  2.2204 -3.2904 -0.3366
 8617TIP3    H247343   1.043   3.869   6.401  1.2733 -2.6133 -0.4879
 8618TIP3   OH247344   5.975   4.770  13.226  0.4753  0.3543 -0.5126
 8618TIP3    H147345   5.885   4.740  13.217  0.4086  0.9345 -1.8141
 8618TIP3    H247346   5.970   4.843  13.287 -0.0179  0.7493 -1.0236
 8619TIP3   OH247347   6.690   4.936  15.878 -0.2388  0.4001 -0.4373
 8619TIP3    H147348   6.629   4.972  15.814 -0.4428 -0.5367 -0.7810
 8619TIP3    H247349   6.649   4.953  15.962 -0.3852  0.8682 -0.6020
 8620TIP3   OH247350   4.525   2.107  13.855 -0.0001  0.2765  0.1798
 8620TIP3    H147351   4.487   2.186  13.816  2.1032  0.2963 -1.9820
 8620TIP3    H247352   4.450   2.053  13.879 -1.4448  2.3679  0.4971
 8621TIP3   OH247353   6.142   3.286   3.829  0.3648  0.2537  0.0956
 8621TIP3    H147354   6.147   3.193   3.806  2.1803  0.5113 -0.6290
 8621TIP3    H247355   6.058   3.295   3.875  0.2944 -1.7863  0.3996
 8622TIP3   OH247356   2.196   3.581  12.270  0.3296  0.6136 -0.2756
 8622TIP3    H147357   2.151   3.569  12.186 -0.2475 -1.2822  0.2646
 8622TIP3    H247358   2.206   3.492  12.304  0.6736  1.3503  1.6028
 8623TIP3   OH247359   5.702   2.288  12.495 -0.3744 -0.5456  0.1027
 8623TIP3    H147360   5.789   2.302  12.458 -0.7702  2.0453  0.0820
 8623TIP3    H247361   5.642   2.305  12.423 -0.9828  0.0225  0.7421
 8624TIP3   OH247362   1.897   1.928   6.329  0.0688  0.6799 -0.0962
 8624TIP3    H147363   1.938   2.010   6.357 -0.3189  1.2864 -1.2777
 8624TIP3    H247364   1.827   1.913   6.392 -1.1859  2.3508 -1.0558
 8625TIP3   OH247365   3.095   6.204  15.787  0.1532  0.1730 -0.2612
 8625TIP3    H147366   3.090   6.139  15.717  1.6144  1.1126 -1.2817
 8625TIP3    H247367   3.013   6.253  15.780  0.3106  0.2983 -1.3886
 8626TIP3   OH247368   5.571   6.216   2.584 -0.5669  0.1970  0.1852
 8626TIP3    H147369   5.497   6.274   2.596 -0.7234 -0.2864  1.6330
 8626TIP3    H247370   5.629   6.234   2.658  0.3936  0.0169 -0.5011
 8627TIP3   OH247371   4.047   1.981   1.749 -0.4007 -0.2881 -0.0362
 8627TIP3    H147372   4.001   2.050   1.700 -0.6508  0.9085  1.8317
 8627TIP3    H247373   4.041   1.904   1.693 -3.3755  0.2434 -0.5420
 8628TIP3   OH247374   1.246   6.317  12.048 -0.0344  0.0392 -0.1271
 8628TIP3    H147375   1.289   6.327  11.963  0.6779  0.6265  0.2906
 8628TIP3    H247376   1.154   6.303  12.027 -0.8604  5.4460 -0.9433
 8629TIP3   OH247377   1.408   2.976   2.681 -0.6637  0.0935 -0.0927
 8629TIP3    H147378   1.500   2.956   2.693 -0.4471  0.3386 -1.2273
 8629TIP3    H247379   1.406   3.070   2.663 -1.2142  0.2403  0.7071
 8630TIP3   OH247380   3.348   4.527  14.451  0.0554  0.1433 -0.4227
 8630TIP3    H147381   3.428   4.565  14.414 -0.3956  0.6697 -0.8568
 8630TIP3    H247382   3.378   4.482  14.531  0.5709  1.5144  0.1625
 8631TIP3   OH247383   4.134   6.595  14.534  0.5174 -0.5389 -0.0476
 8631TIP3    H147384   4.203   6.611  14.599  0.5765 -1.0168  0.0073
 8631TIP3    H247385   4.165   6.639  14.455 -0.2229  1.3006  0.6384
 8632TIP3   OH247386   0.517   5.803  12.736 -0.1129  0.0994 -0.2120
 8632TIP3    H147387   0.441   5.790  12.793 -0.9206  0.5243 -1.1896
 8632TIP3    H247388   0.506   5.739  12.666  0.1938  0.4738 -0.6011
 8633TIP3   OH247389   2.087   1.734  12.930 -0.2061 -0.3365 -0.0845
 8633TIP3    H147390   2.052   1.735  13.019 -1.3292  0.9316 -0.5095
 8633TIP3    H247391   2.042   1.661  12.887 -0.7307 -0.0599 -0.0093
 8634TIP3   OH247392   6.237   3.697   2.571 -0.2797  0.0218  0.5885
 8634TIP3    H147393   6.326   3.700   2.535 -0.5647  0.9055 -0.0721
 8634TIP3    H247394   6.232   3.773   2.629 -0.6613  0.0871  0.4740
 8635TIP3   OH247395   5.492   5.218   1.935  0.6274  0.0767  0.1991
 8635TIP3    H147396   5.471   5.144   1.993  0.7706 -0.8104 -0.8526
 8635TIP3    H247397   5.408   5.263   1.923  0.0192 -1.3374 -1.0757
 8636TIP3   OH247398   0.454   5.279  14.918 -0.4755 -0.3017 -0.1515
 8636TIP3    H147399   0.388   5.238  14.862 -0.2900 -1.0390  0.1555
 8636TIP3    H247400   0.499   5.205  14.959 -0.9567  0.2413  1.3723
 8637TIP3   OH247401   6.584   4.985   2.625  0.0895  0.1242  0.4038
 8637TIP3    H147402   6.587   5.058   2.564  0.3630  0.4900  0.8529
 8637TIP3    H247403   6.634   5.015   2.701  1.1060 -0.9125  0.1580
 8638TIP3   OH247404   4.108   1.742   0.289 -0.3721  0.4216  0.5518
 8638TIP3    H147405   4.113   1.734   0.384  0.3431 -2.5207  0.3154
 8638TIP3    H247406   4.076   1.657   0.259  0.4837  0.9064 -1.9188
 8639TIP3   OH247407   5.979   1.642  12.734  0.0082  0.1858  0.7444
 8639TIP3    H147408   5.971   1.730  12.770 -3.8671 -1.2019  3.6535
 8639TIP3    H247409   5.901   1.632  12.678  0.6139 -1.2618  0.1419
 8640TIP3   OH247410   6.438   3.190  11.860  0.2861 -0.1784  0.0869
 8640TIP3    H147411   6.400   3.162  11.944  1.4266  0.7117  0.9299
 8640TIP3    H247412   6.393   3.271  11.839  1.7443  0.9631  1.1684
 8641TIP3   OH247413   2.986   0.701   3.740 -0.0111 -0.3835  0.2067
 8641TIP3    H147414   3.048   0.665   3.803 -0.3409  1.9414  1.9030
 8641TIP3    H247415   3.018   0.789   3.722 -1.2685 -0.1719 -1.0611
 8642TIP3   OH247416   1.146   1.362  13.755  0.1909 -0.4331 -0.2949
 8642TIP3    H147417   1.225   1.413  13.772 -0.2854  0.1668  0.0975
 8642TIP3    H247418   1.163   1.278  13.798  0.7839 -0.4542 -0.5599
 8643TIP3   OH247419   5.007   0.122   2.857 -0.0650  0.3804 -0.0016
 8643TIP3    H147420   5.101   0.124   2.842 -0.2916 -0.7466 -1.6903
 8643TIP3    H247421   4.970   0.172   2.785 -0.7909  0.2821  0.3000
 8644TIP3   OH247422   3.889   6.559  14.443  0.4886  0.0132 -0.2305
 8644TIP3    H147423   3.983   6.567  14.462  0.6173 -1.9922  0.1215
 8644TIP3    H247424   3.885   6.543  14.348  0.7167 -2.3603  0.1121
 8645TIP3   OH247425   5.732   3.110  15.221 -0.1257  0.0294  0.1938
 8645TIP3    H147426   5.736   3.187  15.277  1.0693  0.7609 -0.8608
 8645TIP3    H247427   5.761   3.141  15.135 -1.1051 -1.2557 -0.6219
 8646TIP3   OH247428   3.397   5.085   4.377 -0.4303 -0.4413  0.1028
 8646TIP3    H147429   3.362   5.174   4.387  1.0906 -0.0855  2.7625
 8646TIP3    H247430   3.336   5.030   4.427  1.0250 -0.2513  2.1298
 8647TIP3   OH247431   1.347   2.462  12.304  0.2901  0.3890  0.3081
 8647TIP3    H147432   1.276   2.525  12.316  0.9346  0.9681  1.1662
 8647TIP3    H247433   1.305   2.384  12.267 -0.9983  0.3079  1.8853
 8648TIP3   OH247434   6.639   2.010   1.824  0.2675 -0.2314 -0.1457
 8648TIP3    H147435   6.595   1.966   1.751 -0.1105 -0.0320 -0.0393
 8648TIP3    H247436   6.732   1.996   1.808  0.3266  2.3097 -2.2276
 8649TIP3   OH247437   6.788   6.472   0.064 -0.0826 -0.2901  0.1333
 8649TIP3    H147438   6.751   6.484  -0.023  3.7356 -0.8370 -1.6658
 8649TIP3    H247439   6.752   6.389   0.095 -0.1714 -0.9450 -1.6706
 8650TIP3   OH247440   6.343   0.799   2.156 -0.8314 -0.5260  0.0644
 8650TIP3    H147441   6.415   0.773   2.098 -0.0038  1.2431  0.2551
 8650TIP3    H247442   6.364   0.759   2.240  0.6470  1.0205  0.4701
 8651TIP3   OH247443   2.271   4.217   2.250  0.0228  0.0845 -0.1862
 8651TIP3    H147444   2.224   4.197   2.168  0.1461  0.5840 -0.3760
 8651TIP3    H247445   2.354   4.169   2.241 -0.6621 -1.2380  0.3825
 8652TIP3   OH247446   0.834   1.015   4.353  0.4705 -0.9311  0.8077
 8652TIP3    H147447   0.828   0.923   4.377  1.2501 -1.7129 -1.8596
 8652TIP3    H247448   0.917   1.045   4.390  1.1622 -1.8438  0.0298
 8653TIP3   OH247449   4.094   6.072  14.551  0.0963  0.0257  0.3022
 8653TIP3    H147450   4.136   6.147  14.509  0.0957  0.9836  1.9678
 8653TIP3    H247451   4.001   6.084  14.534  0.3332 -1.2570 -2.0491
 8654TIP3   OH247452   4.851   5.566  13.023  0.2675  0.2549 -0.3724
 8654TIP3    H147453   4.767   5.564  13.068  0.4253  1.7096  0.0145
 8654TIP3    H247454   4.909   5.613  13.083  0.5441  2.0243 -1.9842
 8655TIP3   OH247455   3.288   5.022  11.573  0.3393 -0.1267  0.5387
 8655TIP3    H147456   3.289   5.044  11.666 -1.1520 -0.7714  0.7271
 8655TIP3    H247457   3.212   4.964  11.563  1.1340 -0.9630 -0.8754
 8656TIP3   OH247458   0.799   5.263   5.685 -0.6628  0.0088 -0.5020
 8656TIP3    H147459   0.864   5.285   5.618 -0.8365 -2.0335 -1.3884
 8656TIP3    H247460   0.833   5.185   5.728 -2.2708 -0.8253 -0.6736
 8657TIP3   OH247461   6.340   1.549   3.430 -0.1106 -0.3934 -0.0254
 8657TIP3    H147462   6.306   1.460   3.441  0.8358 -0.7851 -0.2031
 8657TIP3    H247463   6.407   1.557   3.497 -0.1735  0.1818 -0.0349
 8658TIP3   OH247464   6.069   0.051   5.951  0.5599  0.4988 -0.0079
 8658TIP3    H147465   6.028  -0.008   6.014  0.5574  1.2959  0.7339
 8658TIP3    H247466   6.154   0.010   5.933 -0.1616 -0.6635 -0.8477
 8659TIP3   OH247467   3.451   4.092  15.345 -0.1474 -0.4268 -0.4209
 8659TIP3    H147468   3.418   4.003  15.340  0.1641 -0.4807 -1.6762
 8659TIP3    H247469   3.506   4.093  15.423  1.7186 -1.9689 -1.6845
 8660TIP3   OH247470   2.223   5.590  12.865 -0.3562 -0.1279  0.3099
 8660TIP3    H147471   2.215   5.680  12.897 -2.6145  0.4800 -1.7827
 8660TIP3    H247472   2.136   5.552  12.878 -0.2288 -1.0774 -1.4266
 8661TIP3   OH247473   1.552   4.442   0.027  0.2326 -0.1358  0.2998
 8661TIP3    H147474   1.556   4.428   0.122  0.5493  0.9091  0.4468
 8661TIP3    H247475   1.642   4.459   0.001  0.3943 -2.1309 -0.4737
 8662TIP3   OH247476   6.467   0.347  15.186 -0.4897  0.5738  0.8079
 8662TIP3    H147477   6.480   0.333  15.280  0.1123 -0.6425  0.5447
 8662TIP3    H247478   6.386   0.397  15.181  0.2063  1.8830  2.0517
 8663TIP3   OH247479   2.500   5.723  16.783  0.1368 -0.3612 -0.2733
 8663TIP3    H147480   2.576   5.777  16.759  0.6392 -0.2982  1.4138
 8663TIP3    H247481   2.493   5.659  16.712  2.4616 -1.0613  0.0750
 8664TIP3   OH247482   1.519   3.270   1.487 -0.1161 -0.1599  0.2132
 8664TIP3    H147483   1.468   3.334   1.438  0.7796 -0.8405 -1.6742
 8664TIP3    H247484   1.460   3.242   1.558 -1.1699  1.3920 -0.0222
 8665TIP3   OH247485   0.737   3.322  16.039  0.1907  0.2507 -0.1615
 8665TIP3    H147486   0.741   3.261  16.112 -1.5019 -3.3063 -2.8451
 8665TIP3    H247487   0.665   3.382  16.061  1.1932  0.6660  2.0560
 8666TIP3   OH247488   3.644   6.731  16.508 -0.1241  0.1519 -0.3302
 8666TIP3    H147489   3.594   6.811  16.525  2.2700  1.9149 -1.3836
 8666TIP3    H247490   3.694   6.716  16.588  1.6416  1.3842 -1.1804
 8667TIP3   OH247491   0.528   6.715  16.261 -0.1561 -0.1940 -0.1620
 8667TIP3    H147492   0.582   6.730  16.184 -0.1965  1.5467  0.1264
 8667TIP3    H247493   0.444   6.756  16.241 -0.2732  0.0007  0.6780
 8668TIP3   OH247494   4.593   3.821  15.913 -0.3655  0.7055  0.6492
 8668TIP3    H147495   4.571   3.904  15.955  0.2962  1.0087  0.4006
 8668TIP3    H247496   4.539   3.756  15.958 -0.8590  1.2642  0.8703
 8669TIP3   OH247497   6.180   3.754   0.823  0.1832  0.9371 -0.5988
 8669TIP3    H147498   6.201   3.738   0.915 -1.3843  0.9757 -0.2230
 8669TIP3    H247499   6.224   3.837   0.802 -1.5030  2.2264  0.8364
 8670TIP3   OH247500   0.864   6.116  17.243 -0.0318  0.3235 -0.3049
 8670TIP3    H147501   0.877   6.201  17.286  1.4639 -0.5632  1.0626
 8670TIP3    H247502   0.769   6.105  17.238 -0.2269  1.1054  1.4760
 8671TIP3   OH247503   3.413   0.008   1.441 -0.0783 -0.4644 -0.3408
 8671TIP3    H147504   3.443   0.046   1.359 -0.1616  0.7750  0.1964
 8671TIP3    H247505   3.320   0.031   1.445  0.2958  0.9339  0.8864
 8672TIP3   OH247506   3.360   3.640  11.399 -0.3000  0.4705  0.4699
 8672TIP3    H147507   3.363   3.675  11.488 -0.9192 -0.3641  0.8314
 8672TIP3    H247508   3.323   3.710  11.346  0.7513  1.2297  0.7345
 8673TIP3   OH247509   1.530   2.054  17.012  0.0815 -0.3752  0.3308
 8673TIP3    H147510   1.540   2.134  17.063  1.9529 -0.5816  0.3320
 8673TIP3    H247511   1.505   1.988  17.076  0.4364 -0.2052  0.6455
 8674TIP3   OH247512   1.694   6.676  15.560 -0.2511  0.3582  0.7070
 8674TIP3    H147513   1.635   6.636  15.624 -0.9961 -0.5199 -0.5025
 8674TIP3    H247514   1.645   6.750  15.524 -0.9607 -0.8473 -0.8737
 8675TIP3   OH247515   0.814   0.437  14.561  0.0583 -0.0875 -0.2862
 8675TIP3    H147516   0.824   0.350  14.523  1.9377  0.5581 -1.3395
 8675TIP3    H247517   0.787   0.492  14.488 -0.4914  0.3508  0.2387
 8676TIP3   OH247518   5.633   2.145   3.544  0.3144  0.1806  0.0933
 8676TIP3    H147519   5.646   2.175   3.633 -0.0698 -1.3751  0.6858
 8676TIP3    H247520   5.538   2.134   3.536  0.4075 -0.3891 -0.2686
 8677TIP3   OH247521   5.324   6.531  16.863 -0.1229  0.3620 -0.0164
 8677TIP3    H147522   5.309   6.620  16.895 -0.3945  0.9427 -1.7128
 8677TIP3    H247523   5.379   6.542  16.785 -0.5851 -0.9086 -0.5398
 8678TIP3   OH247524   5.648   6.411  13.435  0.1263 -0.3304  0.2329
 8678TIP3    H147525   5.695   6.485  13.396 -1.3897  0.2090 -0.5837
 8678TIP3    H247526   5.621   6.442  13.521 -1.6145  0.5229 -0.6087
 8679TIP3   OH247527   0.275   3.035  13.516 -0.1893  0.1721  0.2191
 8679TIP3    H147528   0.182   3.022  13.532 -0.4165  0.0275 -1.1721
 8679TIP3    H247529   0.283   3.039  13.420  1.3377 -0.7011  0.2873
 8680TIP3   OH247530   0.132   6.080   6.215  0.4492  0.5932 -0.1064
 8680TIP3    H147531   0.068   6.077   6.144  0.1231 -1.5961  0.2553
 8680TIP3    H247532   0.084   6.051   6.292  1.4641  0.4855  0.4984
 8681TIP3   OH247533   2.009   3.130  12.923  0.5410  0.4988  0.1200
 8681TIP3    H147534   1.957   3.185  12.865 -0.4208 -0.8566 -0.3159
 8681TIP3    H247535   1.952   3.113  12.997  0.9938  0.4294  0.4530
 8682TIP3   OH247536   5.000   1.355   3.066  0.3704 -0.1523 -0.2544
 8682TIP3    H147537   4.911   1.342   3.033  0.4414  0.0465 -0.5252
 8682TIP3    H247538   5.038   1.267   3.068 -0.6225 -0.5473  2.1350
 8683TIP3   OH247539   5.363   2.335   5.112  0.3554 -0.0301 -0.1362
 8683TIP3    H147540   5.314   2.337   5.194  0.6726  0.0396  0.0548
 8683TIP3    H247541   5.409   2.419   5.110  0.3437 -0.0303 -0.3883
 8684TIP3   OH247542   5.992   1.797  12.313  0.1882  0.6891  0.8397
 8684TIP3    H147543   6.078   1.839  12.308  0.0498  1.0198  1.1844
 8684TIP3    H247544   5.936   1.863  12.354 -1.0394  1.7500 -2.4134
 8685TIP3   OH247545   2.486   5.161  15.391 -0.6052 -0.2352 -0.0725
 8685TIP3    H147546   2.539   5.120  15.323 -0.9801 -0.5007 -0.2084
 8685TIP3    H247547   2.486   5.254  15.369 -1.4588 -0.4274 -0.9565
 8686TIP3   OH247548   4.444   5.719  13.350 -0.6748  0.7516 -0.3759
 8686TIP3    H147549   4.429   5.626  13.366 -0.0916  0.7072 -0.0715
 8686TIP3    H247550   4.408   5.762  13.428 -0.8680  0.7768 -0.4783
 8687TIP3   OH247551   4.588   3.980   1.731 -0.3821 -0.0311 -0.2497
 8687TIP3    H147552   4.558   4.053   1.786  0.0042 -0.0379 -0.0264
 8687TIP3    H247553   4.628   4.022   1.655  0.6096  0.0103  0.2837
 8688TIP3   OH247554   0.398   6.811  11.200  0.2978 -0.2802  0.5261
 8688TIP3    H147555   0.412   6.827  11.107 -1.8522 -1.3821 -0.0024
 8688TIP3    H247556   0.400   6.899  11.239 -2.7040  0.5942 -1.1361
 8689TIP3   OH247557   6.286   1.286   6.433 -0.3994 -0.3647 -0.0064
 8689TIP3    H147558   6.363   1.307   6.380 -0.4963  0.6203  0.2350
 8689TIP3    H247559   6.318   1.227   6.501 -0.5350 -2.7376 -1.9556
 8690TIP3   OH247560   6.366   5.865  15.937 -0.2349 -0.8761  0.0643
 8690TIP3    H147561   6.452   5.831  15.962  0.4835  0.5308 -0.4541
 8690TIP3    H247562   6.383   5.922  15.862 -1.4194  0.6267  0.9225
 8691TIP3   OH247563   5.566   0.488  10.645 -0.1953 -0.0925 -0.0849
 8691TIP3    H147564   5.506   0.515  10.714 -1.4243  0.4127 -1.3195
 8691TIP3    H247565   5.648   0.531  10.667  0.0689 -1.6983  2.2451
 8692TIP3   OH247566   5.657   3.984  10.637  0.0067  0.4767 -0.1917
 8692TIP3    H147567   5.658   3.903  10.586  3.1539  0.9639 -1.0244
 8692TIP3    H247568   5.737   3.979  10.690 -0.4782  2.4221  0.7773
 8693TIP3   OH247569   3.089   5.403  12.872 -0.1163  0.1552  0.4264
 8693TIP3    H147570   3.036   5.457  12.814 -0.7342 -0.4528  0.4204
 8693TIP3    H247571   3.069   5.436  12.960  0.9828  1.2189  0.2913
 8694TIP3   OH247572   2.096   1.269  17.129 -1.0787  0.7044 -0.0271
 8694TIP3    H147573   2.064   1.258  17.039 -0.3397  0.8798 -0.3195
 8694TIP3    H247574   2.020   1.298  17.178 -1.5894  0.2007 -0.5154
 8695TIP3   OH247575   0.173   6.312   0.936  0.0687  1.1449  0.0211
 8695TIP3    H147576   0.161   6.333   1.028 -1.6827  0.1417  0.0646
 8695TIP3    H247577   0.136   6.224   0.927  0.6527  1.0367 -1.5433
 8696TIP3   OH247578   2.439   6.360   0.599  0.6812 -0.3105 -0.2283
 8696TIP3    H147579   2.498   6.402   0.536  2.1473  0.3549  1.5341
 8696TIP3    H247580   2.443   6.267   0.577  0.8557 -0.0333 -1.3852
 8697TIP3   OH247581   0.883   6.004  14.746 -0.3977 -0.1632 -0.2649
 8697TIP3    H147582   0.925   5.976  14.665  1.3579 -0.5187  0.7412
 8697TIP3    H247583   0.934   5.962  14.815 -1.3202  0.8372  1.0504
 8698TIP3   OH247584   0.058   2.544  11.692 -0.3010 -0.4007  0.0823
 8698TIP3    H147585   0.072   2.489  11.615 -0.1109 -1.2752  0.7301
 8698TIP3    H247586   0.056   2.633  11.658 -4.6951 -0.9952 -1.5528
 8699TIP3   OH247587   5.375   5.562  15.103 -0.1497  0.5869 -0.0456
 8699TIP3    H147588   5.354   5.506  15.178  1.1904 -0.2206 -0.2533
 8699TIP3    H247589   5.353   5.650  15.132 -2.5392 -0.0532  0.1994
 8700TIP3   OH247590   3.119   1.782   2.902 -0.5610 -0.4384 -0.4304
 8700TIP3    H147591   3.135   1.784   2.997 -1.5603  0.4257 -0.2669
 8700TIP3    H247592   3.025   1.799   2.893  0.0011  2.2940 -1.6875
 8701TIP3   OH247593   3.945   6.312   2.595  0.7541 -0.2792 -0.3740
 8701TIP3    H147594   4.013   6.256   2.558 -0.1955 -0.5799 -1.7179
 8701TIP3    H247595   3.884   6.327   2.522 -0.9282 -0.5195  0.9603
 8702TIP3   OH247596   3.587   1.251  15.783  0.0914  0.2965  0.2943
 8702TIP3    H147597   3.596   1.336  15.740 -1.4587 -0.1362 -0.9508
 8702TIP3    H247598   3.676   1.216  15.786  0.3675  0.7203 -1.7932
 8703TIP3   OH247599   1.021   3.393  11.878 -0.1802  0.3263 -0.5414
 8703TIP3    H147600   0.946   3.334  11.869  0.0567  0.1719 -1.6632
 8703TIP3    H247601   1.016   3.425  11.968  0.2994 -2.2081  0.4217
 8704TIP3   OH247602   5.329   3.504  13.977 -0.3296 -0.0059 -0.0875
 8704TIP3    H147603   5.308   3.589  14.015 -0.3588 -0.3249  0.6114
 8704TIP3    H247604   5.266   3.493  13.906  1.2959  1.7076 -1.8762
 8705TIP3   OH247605   0.385   6.070  11.654 -0.6554  0.0702  0.0929
 8705TIP3    H147606   0.356   6.073  11.563  1.9492  0.8829 -0.7285
 8705TIP3    H247607   0.447   5.998  11.658  1.3432  1.7586  0.5624
 8706TIP3   OH247608   0.402   3.030   1.873  0.0116 -0.0840  0.2849
 8706TIP3    H147609   0.338   2.971   1.914 -1.1520  0.0428 -1.2763
 8706TIP3    H247610   0.468   2.972   1.835  0.7878 -0.2226  1.8312
 8707TIP3   OH247611   1.116   0.825  13.915  0.0054  0.6650  0.1517
 8707TIP3    H147612   1.106   0.772  13.835  0.3912  1.2527 -0.2932
 8707TIP3    H247613   1.207   0.812  13.941  0.4682  2.0980 -0.6783
 8708TIP3   OH247614   6.345   2.163  11.257  0.3119 -0.1706  0.2456
 8708TIP3    H147615   6.254   2.132  11.253  0.2158  0.3427 -2.7234
 8708TIP3    H247616   6.392   2.108  11.195  0.7102  3.5215 -2.9173
 8709TIP3   OH247617   6.663   2.501   2.952 -0.3928  0.0031 -0.2809
 8709TIP3    H147618   6.659   2.467   2.863  1.7261 -1.3307  0.0899
 8709TIP3    H247619   6.699   2.589   2.942 -0.1477 -0.1490 -0.7460
 8710TIP3   OH247620   3.638   2.791  15.353 -0.1395  1.0618  0.3068
 8710TIP3    H147621   3.566   2.844  15.386 -0.4172 -0.7515  2.7280
 8710TIP3    H247622   3.614   2.701  15.375  2.8049  0.4173  1.0567
 8711TIP3   OH247623   0.697   1.304   5.967 -0.0899 -0.1590  0.1917
 8711TIP3    H147624   0.774   1.347   5.930 -0.0557 -0.1941  0.2226
 8711TIP3    H247625   0.732   1.239   6.028 -0.1203 -0.7118 -0.3709
 8712TIP3   OH247626   4.650   0.310  13.705 -0.0100  0.2600 -0.1696
 8712TIP3    H147627   4.734   0.273  13.679  0.2096  0.8174 -0.2795
 8712TIP3    H247628   4.656   0.403  13.679  0.2235  0.8346  1.8673
 8713TIP3   OH247629   3.969   0.369  13.910  0.1360  0.6005  0.3418
 8713TIP3    H147630   3.966   0.464  13.912  0.4084  0.6709 -1.6779
 8713TIP3    H247631   3.892   0.341  13.960 -1.6569  1.9298 -1.5782
 8714TIP3   OH247632   5.025   5.325  11.425 -0.0150  0.0704 -0.1690
 8714TIP3    H147633   5.009   5.260  11.356 -1.7808 -0.2538  0.5190
 8714TIP3    H247634   5.068   5.397  11.380 -0.1606 -0.6013 -1.4040
 8715TIP3   OH247635   5.799   2.901   2.403 -0.5269  0.1479  0.1688
 8715TIP3    H147636   5.716   2.888   2.357 -0.2030  0.3115 -0.4747
 8715TIP3    H247637   5.852   2.953   2.342 -0.9490  2.4455  1.7227
 8716TIP3   OH247638   3.491   6.460  15.599  0.3868  0.3281  0.1800
 8716TIP3    H147639   3.455   6.512  15.671 -0.0149  0.5938 -0.2083
 8716TIP3    H247640   3.551   6.520  15.554 -0.7551  0.7508 -0.8076
 8717TIP3   OH247641   4.403   6.804  11.898  0.3603  0.4082 -0.9484
 8717TIP3    H147642   4.376   6.893  11.876 -0.9686 -0.1721 -1.6672
 8717TIP3    H247643   4.322   6.756  11.910  1.0511 -0.0866  2.0567
 8718TIP3   OH247644   0.006   3.220  14.007 -0.4812 -0.2335 -0.1923
 8718TIP3    H147645  -0.053   3.208  13.932 -0.4211 -0.2173 -0.2429
 8718TIP3    H247646  -0.042   3.279  14.065 -0.9783 -1.0971  0.2811
 8719TIP3   OH247647   5.311   5.783  12.875 -0.1152 -0.1049 -0.4239
 8719TIP3    H147648   5.389   5.808  12.826  0.5927 -0.5228  0.4870
 8719TIP3    H247649   5.276   5.707  12.828  0.4474 -0.3811 -0.3911
 8720TIP3   OH247650   6.755   6.390  16.759 -0.1710 -0.6109 -0.1177
 8720TIP3    H147651   6.734   6.297  16.751 -3.3679 -0.0981  1.4469
 8720TIP3    H247652   6.680   6.436  16.721  0.1356  1.3347  1.5103
 8721TIP3   OH247653   5.161   1.050   4.555  0.1404  0.4857 -0.4203
 8721TIP3    H147654   5.207   1.119   4.507  1.9687  0.2142  0.9277
 8721TIP3    H247655   5.229   1.001   4.600 -1.3968 -0.3671  1.0619
 8722TIP3   OH247656   6.490   2.074  12.531 -0.0998  0.0402  0.1737
 8722TIP3    H147657   6.560   2.091  12.595 -0.3764  1.2369  0.1595
 8722TIP3    H247658   6.411   2.064  12.584 -0.1653  0.1052  0.0875
 8723TIP3   OH247659   3.687   5.330   0.786 -0.0849 -0.0282  0.2659
 8723TIP3    H147660   3.740   5.267   0.737  0.2469  0.3778  0.0972
 8723TIP3    H247661   3.749   5.398   0.813 -0.5399  0.5394 -0.0787
 8724TIP3   OH247662   4.453   5.794   3.198  0.0432  0.4752 -0.5313
 8724TIP3    H147663   4.406   5.711   3.208 -0.0436  0.6382  0.4287
 8724TIP3    H247664   4.512   5.798   3.274  0.8758  0.7564 -1.1787
 8725TIP3   OH247665   2.355   3.873   0.332 -0.5484 -0.5107  0.1767
 8725TIP3    H147666   2.262   3.887   0.319 -0.2918  0.7529 -0.4502
 8725TIP3    H247667   2.386   3.955   0.372  0.3336 -0.7986  0.0924
 8726TIP3   OH247668   0.239   1.367  16.947 -0.2714 -0.2030 -0.4410
 8726TIP3    H147669   0.203   1.295  16.896  0.2231 -0.3601 -0.5727
 8726TIP3    H247670   0.334   1.351  16.947  0.1754  2.1202 -3.0310
 8727TIP3   OH247671   2.682   3.366   3.407 -0.1818  0.3189 -0.2995
 8727TIP3    H147672   2.640   3.447   3.381  1.9492  1.0905 -1.4627
 8727TIP3    H247673   2.742   3.345   3.335  0.8624 -1.1399  0.9411
 8728TIP3   OH247674   0.748   4.293   6.521 -0.2355  0.2041  0.5572
 8728TIP3    H147675   0.695   4.216   6.500  0.2838 -0.1990  0.7289
 8728TIP3    H247676   0.689   4.367   6.506 -0.7152 -0.2207  0.3285
 8729TIP3   OH247677   6.037   0.055   1.166  0.2524 -0.6267 -0.5653
 8729TIP3    H147678   6.011   0.120   1.101  0.5115 -1.4660 -1.5379
 8729TIP3    H247679   6.124   0.083   1.194 -0.3434  0.3959  0.3144
 8730TIP3   OH247680   5.537   4.719   3.615 -0.0945  0.0261 -0.3339
 8730TIP3    H147681   5.560   4.677   3.697  0.5217 -0.0307 -0.5322
 8730TIP3    H247682   5.621   4.732   3.570 -0.0234  3.4155  0.6653
 8731TIP3   OH247683   2.131   2.772  12.050  0.0842  0.0626 -0.1412
 8731TIP3    H147684   2.144   2.833  11.978  0.6063 -0.1844 -0.2651
 8731TIP3    H247685   2.103   2.691  12.008 -0.2140  0.0999 -0.0141
 8732TIP3   OH247686   0.919   5.426   1.994  0.1635 -0.1670  0.5469
 8732TIP3    H147687   0.829   5.452   1.971  0.1507  0.1204  0.9157
 8732TIP3    H247688   0.963   5.509   2.012 -0.0071 -0.4378  2.2083
 8733TIP3   OH247689   5.340   3.130  11.357 -0.0790  0.2136 -0.0177
 8733TIP3    H147690   5.407   3.062  11.362 -0.6126 -0.3030  0.1538
 8733TIP3    H247691   5.265   3.088  11.314 -0.9893  0.1993  1.5239
 8734TIP3   OH247692   1.604   0.130  16.969  0.5116  0.0514  0.2195
 8734TIP3    H147693   1.637   0.103  16.883 -1.2826 -0.9258 -0.1893
 8734TIP3    H247694   1.625   0.056  17.026 -1.0420 -0.6313 -0.0698
 8735TIP3   OH247695   4.244   5.585   2.843 -0.4965 -0.1981  0.4153
 8735TIP3    H147696   4.204   5.671   2.830  1.5776  0.6892 -0.3386
 8735TIP3    H247697   4.172   5.523   2.834 -1.7180  1.3493 -0.7599
 8736TIP3   OH247698   2.301   4.701   5.505  0.8426 -0.4592  0.6654
 8736TIP3    H147699   2.279   4.776   5.449 -0.8099 -0.4426  1.3231
 8736TIP3    H247700   2.227   4.642   5.497  0.7796 -0.6593  2.4921
 8737TIP3   OH247701   2.506   3.679  14.309  0.4208  0.8429  0.4464
 8737TIP3    H147702   2.493   3.603  14.252 -0.6790  0.6285  0.9827
 8737TIP3    H247703   2.601   3.691  14.311  0.6015 -0.4630  0.2962
 8738TIP3   OH247704   1.297   4.373   1.390 -0.2071  0.0381  0.5382
 8738TIP3    H147705   1.363   4.428   1.433 -1.8122  1.2525  1.5026
 8738TIP3    H247706   1.275   4.419   1.309  0.4502 -0.6137 -0.0274
 8739TIP3   OH247707   2.090   4.201   4.246  0.2079 -0.6414  0.1246
 8739TIP3    H147708   2.186   4.208   4.249  0.1285  0.0510  1.5452
 8739TIP3    H247709   2.069   4.199   4.153  1.6398 -1.3278 -0.1953
 8740TIP3   OH247710   2.568   5.326   0.742  0.2782  0.2331  0.2191
 8740TIP3    H147711   2.632   5.258   0.761 -0.1118 -0.1349  0.2176
 8740TIP3    H247712   2.498   5.281   0.694 -0.1987  0.5357  0.6238
 8741TIP3   OH247713   2.038   1.702  14.697 -0.2057  0.3506  0.4151
 8741TIP3    H147714   1.997   1.763  14.636  0.3163  2.0740  1.7819
 8741TIP3    H247715   2.051   1.752  14.777  1.4540 -1.1615  1.1246
 8742TIP3   OH247716   1.348   0.560  13.671 -0.5194 -0.1902 -0.0447
 8742TIP3    H147717   1.256   0.545  13.690 -0.7921  1.7550  0.2412
 8742TIP3    H247718   1.348   0.617  13.595  0.4303  0.3627  0.3577
 8743TIP3   OH247719   1.091   1.539  14.483 -0.6661 -0.5090 -0.4834
 8743TIP3    H147720   1.132   1.489  14.412  0.2679  0.0665 -0.3557
 8743TIP3    H247721   1.087   1.477  14.556 -0.2198 -0.6457 -0.5686
 8744TIP3   OH247722   0.549   4.724  13.020 -0.1472  0.0586  0.4131
 8744TIP3    H147723   0.576   4.814  13.036  0.2746  0.1757 -0.8861
 8744TIP3    H247724   0.501   4.728  12.937 -0.2056 -0.8961  0.3922
 8745TIP3   OH247725   3.313   5.212  14.534 -0.1511 -0.1080  0.1951
 8745TIP3    H147726   3.285   5.298  14.501  1.4901  0.5828  0.5975
 8745TIP3    H247727   3.238   5.155  14.515 -0.8880  1.1895 -0.9447
 8746TIP3   OH247728   6.370   4.011   3.002  0.7948 -0.0529 -0.5050
 8746TIP3    H147729   6.337   4.043   3.086  0.3757  0.0805 -0.7178
 8746TIP3    H247730   6.431   3.941   3.025 -0.2022 -0.8026 -0.1398
 8747TIP3   OH247731   0.383   3.065  15.616 -0.1856 -0.0983 -0.0899
 8747TIP3    H147732   0.342   2.995  15.667  0.5595  0.2944  1.0613
 8747TIP3    H247733   0.321   3.138  15.622 -1.6997 -1.0770 -2.5469
 8748TIP3   OH247734   5.266   4.610   2.027  0.4296 -0.3156 -0.0301
 8748TIP3    H147735   5.336   4.675   2.024  0.6959 -0.6286 -0.8334
 8748TIP3    H247736   5.300   4.541   2.084 -0.0982  0.5217  1.3028
 8749TIP3   OH247737   2.933   6.304  15.263  0.1280 -0.4285 -0.3686
 8749TIP3    H147738   2.928   6.396  15.236 -1.2214 -0.4621 -0.2467
 8749TIP3    H247739   2.856   6.291  15.319 -0.6768 -2.1118 -1.8372
 8750TIP3   OH247740   5.467   0.140  14.315 -0.2048  0.1958  0.6897
 8750TIP3    H147741   5.521   0.112  14.240 -1.4443  2.0478 -0.9549
 8750TIP3    H247742   5.523   0.200  14.364 -0.6109  1.8318 -0.8114
 8751TIP3   OH247743   4.965   5.409   5.904 -0.0752 -0.3906 -0.7812
 8751TIP3    H147744   4.919   5.392   5.986  0.6006 -1.9946 -0.7181
 8751TIP3    H247745   4.923   5.487   5.869 -1.1089 -0.3293  0.5453
 8752TIP3   OH247746   5.385   0.960   4.673 -0.2307  0.0252  0.3679
 8752TIP3    H147747   5.458   0.999   4.722 -0.2795 -0.4059  0.7899
 8752TIP3    H247748   5.384   0.868   4.701  0.0130 -0.3350 -0.7797
 8753TIP3   OH247749   2.144   3.590  15.061 -0.6184 -0.5793 -0.3251
 8753TIP3    H147750   2.108   3.676  15.040  1.3380  0.1244 -0.8781
 8753TIP3    H247751   2.068   3.533  15.067 -1.9638  1.2177  0.2185
 8754TIP3   OH247752   5.042   1.005  14.246  0.0145  0.1575 -0.0419
 8754TIP3    H147753   5.120   0.953  14.263 -0.0577  0.1884  0.3851
 8754TIP3    H247754   4.970   0.954  14.283 -0.3797 -0.6320 -1.8275
 8755TIP3   OH247755   1.351   6.665   1.343  0.4345  0.1036  0.0685
 8755TIP3    H147756   1.436   6.678   1.301  1.7732 -1.9722  2.0093
 8755TIP3    H247757   1.369   6.674   1.437 -1.4522 -0.5627  0.5148
 8756TIP3   OH247758   5.218   2.516   2.941  0.3274 -0.0989  0.4261
 8756TIP3    H147759   5.230   2.607   2.916  0.9232 -0.5098 -0.8525
 8756TIP3    H247760   5.139   2.488   2.895  0.7168 -0.5049 -0.0076
 8757TIP3   OH247761   2.490   5.485  15.607  0.1280  0.1643 -0.2637
 8757TIP3    H147762   2.490   5.434  15.526  0.6725  0.5355 -0.5020
 8757TIP3    H247763   2.460   5.572  15.581  1.0897  0.5138 -0.2184
 8758TIP3   OH247764   6.490   5.305   2.500  0.2590  0.3702  0.2465
 8758TIP3    H147765   6.500   5.388   2.452  4.2417  0.9912  1.9458
 8758TIP3    H247766   6.433   5.327   2.574  2.4235  1.9992  1.4747
 8759TIP3   OH247767   1.725   1.916  11.124 -0.1109 -0.3028 -0.0399
 8759TIP3    H147768   1.695   1.840  11.073  0.2593 -0.4444 -0.0470
 8759TIP3    H247769   1.771   1.878  11.198 -2.2966 -0.1342  1.4394
 8760TIP3   OH247770   2.176   3.622  11.237  0.2427  0.1120 -0.5091
 8760TIP3    H147771   2.196   3.704  11.192  0.2862  1.7883  2.4019
 8760TIP3    H247772   2.095   3.641  11.286  0.2817 -1.5579  0.2290
 8761TIP3   OH247773   3.831   4.894  17.116 -0.0407  0.0577  0.0819
 8761TIP3    H147774   3.862   4.865  17.202 -1.3506  1.4602  1.0664
 8761TIP3    H247775   3.741   4.862  17.111 -0.3740  1.0133 -0.2448
 8762TIP3   OH247776   0.286   4.056   4.822  0.8480  0.6058 -0.0164
 8762TIP3    H147777   0.307   4.148   4.806 -0.2938  0.6448 -1.3454
 8762TIP3    H247778   0.303   4.013   4.738  0.2179 -0.1885  0.2607
 8763TIP3   OH247779   0.581   0.186   2.950  0.6221 -0.1123  0.7456
 8763TIP3    H147780   0.663   0.147   2.921  0.4372 -0.8338  1.1630
 8763TIP3    H247781   0.523   0.181   2.874  0.0616 -2.2151  1.2544
 8764TIP3   OH247782   2.006   3.763  15.683 -0.4718  0.1626  0.3926
 8764TIP3    H147783   2.042   3.825  15.747  0.1596  0.2245 -0.0180
 8764TIP3    H247784   1.979   3.818  15.609 -2.5632  0.2629  1.1846
 8765TIP3   OH247785   6.810   0.604   6.462 -0.5082 -0.0492  0.4784
 8765TIP3    H147786   6.724   0.604   6.504 -1.0184 -0.3952 -0.5550
 8765TIP3    H247787   6.834   0.512   6.456 -0.3641  0.0095  0.1501
 8766TIP3   OH247788   6.697   4.833   5.711  0.1055  0.6212  0.1159
 8766TIP3    H147789   6.678   4.917   5.670  0.0954  0.2396 -0.6829
 8766TIP3    H247790   6.761   4.792   5.653 -0.3739 -0.1940  0.1420
 8767TIP3   OH247791   3.900   4.603   0.158 -0.1239 -0.4254 -0.5826
 8767TIP3    H147792   3.814   4.560   0.166  0.8258 -2.0227  1.7880
 8767TIP3    H247793   3.930   4.579   0.070  0.2912 -4.6280  0.5569
 8768TIP3   OH247794   1.272   3.160   5.694 -0.3287  0.6032  0.4222
 8768TIP3    H147795   1.291   3.066   5.691 -3.0652  0.0536 -1.9671
 8768TIP3    H247796   1.290   3.185   5.785  0.5358 -2.2091  1.0700
 8769TIP3   OH247797   3.579   1.981   6.359  0.6515  0.1851 -0.8766
 8769TIP3    H147798   3.525   1.970   6.280 -0.1774 -1.0145 -0.1542
 8769TIP3    H247799   3.544   2.060   6.401 -0.7083 -0.7224 -0.2882
 8770TIP3   OH247800   2.139   5.647   2.313  0.5154  0.6596  0.2428
 8770TIP3    H147801   2.167   5.735   2.288  0.2830  0.4732 -0.6978
 8770TIP3    H247802   2.066   5.628   2.254 -1.2565  0.9267  2.2906
 8771TIP3   OH247803   6.431   4.262  10.778 -0.5213  0.3902  0.2096
 8771TIP3    H147804   6.487   4.184  10.784  0.6436  1.1487 -0.5666
 8771TIP3    H247805   6.455   4.314  10.854  1.3686  1.6798 -1.2080
 8772TIP3   OH247806   1.240   0.516   5.469 -0.2496  1.0637 -0.3581
 8772TIP3    H147807   1.213   0.490   5.381 -1.4321  1.1319 -0.0232
 8772TIP3    H247808   1.182   0.468   5.528  1.5789 -0.2182  0.4548
 8773TIP3   OH247809   1.596   1.614   5.965 -0.5955 -0.1866  0.1268
 8773TIP3    H147810   1.664   1.659   6.016 -0.0479 -0.4617 -0.3509
 8773TIP3    H247811   1.628   1.524   5.957 -1.2518 -0.4353  0.3070
 8774TIP3   OH247812   0.918   2.829  16.995  0.2502  0.2040 -0.0870
 8774TIP3    H147813   1.009   2.811  17.019  0.8569  0.3202 -2.2047
 8774TIP3    H247814   0.886   2.887  17.063  1.7443  0.0984  0.7220
 8775TIP3   OH247815   3.149   0.200  11.663 -0.3594  0.4032 -0.1489
 8775TIP3    H147816   3.065   0.181  11.622 -0.5367  0.6530  0.0979
 8775TIP3    H247817   3.126   0.243  11.746  0.0192  0.7753 -0.2387
 8776TIP3   OH247818   4.740   2.355  12.776 -0.5749  0.3071  0.1624
 8776TIP3    H147819   4.800   2.397  12.714 -1.2531  0.7763 -0.1779
 8776TIP3    H247820   4.783   2.272  12.798 -0.1853  0.2776 -0.6950
 8777TIP3   OH247821   1.382   1.698  13.788 -0.0389  0.2698 -0.5084
 8777TIP3    H147822   1.387   1.602  13.790 -0.7066  0.2312 -0.7107
 8777TIP3    H247823   1.469   1.725  13.760 -0.1409 -0.3166 -1.4127
 8778TIP3   OH247824   1.031   4.476   2.323 -0.0584 -0.2002 -0.1957
 8778TIP3    H147825   1.011   4.565   2.296 -1.4542  0.7156  3.5242
 8778TIP3    H247826   0.946   4.432   2.330  0.1587 -0.2392  2.9056
 8779TIP3   OH247827   5.292   0.460   2.237  0.1224  0.1385  0.3869
 8779TIP3    H147828   5.286   0.365   2.243 -0.2398  0.2077  1.1674
 8779TIP3    H247829   5.204   0.488   2.210  0.6853  0.1294 -1.5405
 8780TIP3   OH247830   5.411   5.545   3.337 -0.9481  0.4001  1.1854
 8780TIP3    H147831   5.395   5.575   3.248 -3.7387 -0.0698  1.4968
 8780TIP3    H247832   5.454   5.619   3.381  2.2451 -0.0466 -1.0292
 8781TIP3   OH247833   5.516   1.036  16.589 -0.4548 -0.1293  0.2900
 8781TIP3    H147834   5.549   0.961  16.540  2.2657  0.4934  1.0879
 8781TIP3    H247835   5.487   1.097  16.521  2.1687  0.2304 -0.5930
 8782TIP3   OH247836   0.301   5.077   1.790  0.3310  0.4161  0.3896
 8782TIP3    H147837   0.316   4.992   1.749 -1.1684 -0.2122  1.0777
 8782TIP3    H247838   0.227   5.113   1.742 -0.6027  0.2425  1.6533
 8783TIP3   OH247839   0.368   6.211  13.654 -0.4206 -0.2677  0.0472
 8783TIP3    H147840   0.416   6.146  13.603  0.4944 -2.0467  3.0134
 8783TIP3    H247841   0.277   6.199  13.628  0.1239 -0.5117 -1.7941
 8784TIP3   OH247842   0.004   6.635   3.164 -0.1431 -0.2188  1.0872
 8784TIP3    H147843   0.071   6.703   3.153  0.8965 -1.1504  1.5091
 8784TIP3    H247844   0.022   6.572   3.095 -1.1329 -0.0440  0.6709
 8785TIP3   OH247845   0.290   4.774  14.533 -0.0296 -0.3878 -0.2992
 8785TIP3    H147846   0.194   4.782  14.529  0.0006 -0.6238 -1.7851
 8785TIP3    H247847   0.318   4.772  14.442  1.2776 -1.8087  0.1051
 8786TIP3   OH247848   0.522   6.533   1.669 -0.0323 -0.6390 -0.3108
 8786TIP3    H147849   0.475   6.600   1.620 -0.4170 -0.0073  0.8765
 8786TIP3    H247850   0.567   6.581   1.738 -0.3521 -1.5942  0.5873
 8787TIP3   OH247851   1.818   4.610  10.706 -0.3456  0.2284  0.2406
 8787TIP3    H147852   1.884   4.544  10.686 -1.4231 -0.9707  0.5642
 8787TIP3    H247853   1.861   4.693  10.686 -0.4106 -0.7046 -4.5267
 8788TIP3   OH247854   6.669   2.785  17.234 -0.6044 -0.1737 -0.5372
 8788TIP3    H147855   6.690   2.710  17.289 -0.3490  0.5256  0.3321
 8788TIP3    H247856   6.709   2.765  17.149 -1.3729 -1.4517 -0.6061
 8789TIP3   OH247857   0.995   3.598  14.420  0.4006 -0.1929 -0.3345
 8789TIP3    H147858   1.053   3.526  14.445 -0.3362  0.0310  2.1816
 8789TIP3    H247859   1.028   3.674  14.467  0.0609  0.7033 -1.5227
 8790TIP3   OH247860   5.347   3.383  11.252 -0.0447 -0.6066  0.3503
 8790TIP3    H147861   5.276   3.442  11.276 -0.0808 -0.0482 -1.0465
 8790TIP3    H247862   5.331   3.304  11.302 -0.8839  0.0106  1.0661
 8791TIP3   OH247863   1.170   2.497   3.401 -0.0945  0.2010  0.1384
 8791TIP3    H147864   1.260   2.493   3.433  0.5132  2.4275 -1.2085
 8791TIP3    H247865   1.172   2.451   3.317 -0.4649 -0.7105  0.6228
 8792TIP3   OH247866   1.282   3.033   2.930  0.4370  0.1395  0.5017
 8792TIP3    H147867   1.308   3.059   2.842 -0.3986 -0.5360  0.0427
 8792TIP3    H247868   1.205   2.977   2.917 -0.0262  0.4778  1.6889
 8793TIP3   OH247869   2.745   4.604   3.254  0.1848  0.3236 -0.2313
 8793TIP3    H147870   2.795   4.685   3.266 -0.0485  0.2253  1.5896
 8793TIP3    H247871   2.803   4.535   3.286  0.2302 -0.1987 -1.4125
 8794TIP3   OH247872   2.603   2.791   4.976  0.3462  0.0351  0.0344
 8794TIP3    H147873   2.680   2.756   5.022  1.0380  2.4907  0.8878
 8794TIP3    H247874   2.537   2.801   5.045 -0.3383 -0.9544 -0.4755
 8795TIP3   OH247875   0.465   6.310   6.409 -0.0462 -0.1664 -0.4781
 8795TIP3    H147876   0.382   6.319   6.457  0.7707 -0.0918  0.9660
 8795TIP3    H247877   0.439   6.278   6.323 -1.7773  2.2177 -0.8840
 8796TIP3   OH247878   2.590   5.487   5.938  0.1140 -0.3433 -0.2194
 8796TIP3    H147879   2.653   5.414   5.934  0.2439 -0.2325 -0.2219
 8796TIP3    H247880   2.644   5.563   5.960 -0.0425 -0.2727 -0.0862
 8797TIP3   OH247881   0.115   1.154   5.750  0.0807  0.4602 -0.0548
 8797TIP3    H147882   0.043   1.108   5.707 -0.7414  0.5850  1.1735
 8797TIP3    H247883   0.073   1.211   5.814  1.2109  1.3541 -0.0831
 8798TIP3   OH247884   3.571   0.098   3.047  0.3001 -0.4648 -0.1345
 8798TIP3    H147885   3.649   0.066   3.093  0.0785 -1.1402 -0.2122
 8798TIP3    H247886   3.534   0.019   3.006 -2.0808 -0.7334  2.3294
 8799TIP3   OH247887   1.882   5.114  12.550  0.6201  0.3707 -0.0737
 8799TIP3    H147888   1.915   5.147  12.634  0.1517  0.2303  0.1679
 8799TIP3    H247889   1.887   5.190  12.491  2.5215  0.0344 -0.3807
 8800TIP3   OH247890   2.521   2.095   2.301 -0.4217 -0.4372 -0.4703
 8800TIP3    H147891   2.598   2.057   2.343  1.4367  3.7829  0.2024
 8800TIP3    H247892   2.450   2.083   2.365  0.9499  0.4162  1.2575
 8801TIP3   OH247893   6.604   2.936  11.141  0.1015  0.0937  0.2736
 8801TIP3    H147894   6.678   2.903  11.091 -0.3122 -1.2378  0.5406
 8801TIP3    H247895   6.535   2.948  11.076  0.1292  0.0689  0.2395
 8802TIP3   OH247896   0.875   2.229  11.382 -0.0196 -0.0341 -0.0021
 8802TIP3    H147897   0.838   2.241  11.294  1.8244  0.2509 -0.7491
 8802TIP3    H247898   0.955   2.179  11.369 -0.3532 -1.0692  1.6712
 8803TIP3   OH247899   3.407   0.941  15.858 -0.2034  0.4203  0.1387
 8803TIP3    H147900   3.409   1.023  15.809 -2.1126  1.9205  2.4692
 8803TIP3    H247901   3.322   0.902  15.836 -0.1812  0.0838  0.6449
 8804TIP3   OH247902   6.789   4.029  14.595 -0.6155  0.1385  0.1498
 8804TIP3    H147903   6.833   4.094  14.649 -1.5314  2.2760 -1.5854
 8804TIP3    H247904   6.703   4.067  14.576 -0.1420 -0.2814 -3.2109
 8805TIP3   OH247905   0.655   5.112  16.888 -0.3036  0.2062  0.4594
 8805TIP3    H147906   0.580   5.145  16.839 -0.1929 -1.1482 -0.6465
 8805TIP3    H247907   0.619   5.080  16.970 -1.2055 -2.0815 -0.8024
 8806TIP3   OH247908   3.634   6.695   2.438  0.3833 -0.7307 -0.2081
 8806TIP3    H147909   3.564   6.638   2.406  0.1344 -0.2674 -0.4984
 8806TIP3    H247910   3.711   6.668   2.389 -0.3676  1.1318 -2.5056
 8807TIP3   OH247911   6.269   2.308  12.787 -0.0826  0.3239 -0.1947
 8807TIP3    H147912   6.193   2.365  12.775  0.2188  0.8393  0.3033
 8807TIP3    H247913   6.343   2.362  12.762  0.2190  0.1910  0.4069
 8808TIP3   OH247914   2.052   6.116   4.037  0.0137  0.2308 -0.6111
 8808TIP3    H147915   2.003   6.104   3.956 -1.3582  0.6895  0.1310
 8808TIP3    H247916   2.037   6.035   4.086 -0.4395  0.5975 -0.1486
 8809TIP3   OH247917   0.400   5.871   1.409 -0.3466  0.9251  0.2202
 8809TIP3    H147918   0.322   5.889   1.462 -1.6913 -0.0369 -1.4089
 8809TIP3    H247919   0.370   5.876   1.318  1.7457  1.6748 -0.4740
 8810TIP3   OH247920   0.121   5.015  17.060 -0.0835  0.4294 -0.1927
 8810TIP3    H147921   0.046   5.024  17.002 -0.5974  1.9668  0.6852
 8810TIP3    H247922   0.085   4.977  17.140  0.2038  0.4997 -0.0283
 8811TIP3   OH247923   4.930   0.262   4.402 -0.0386 -0.6628  0.3785
 8811TIP3    H147924   4.992   0.243   4.332  2.1560  3.2509  1.1214
 8811TIP3    H247925   4.951   0.199   4.471  0.8985 -1.5286 -0.6905
 8812TIP3   OH247926   2.403   0.320  15.491 -0.0727 -0.1203 -0.6867
 8812TIP3    H147927   2.356   0.370  15.424 -0.2352 -0.6965 -1.0111
 8812TIP3    H247928   2.396   0.229  15.462  1.5494 -0.1843 -0.9240
 8813TIP3   OH247929   2.154   3.804   5.266 -0.3455  0.0711  0.2718
 8813TIP3    H147930   2.176   3.787   5.358  1.6834 -0.2921 -0.2599
 8813TIP3    H247931   2.076   3.752   5.250 -0.5399 -0.1072  1.7154
 8814TIP3   OH247932   0.390   1.716  16.243  0.5106  0.2424  0.3149
 8814TIP3    H147933   0.456   1.682  16.304 -0.0799  0.5729  1.1497
 8814TIP3    H247934   0.437   1.725  16.160  0.8172 -2.0344  0.2207
 8815TIP3   OH247935   0.729   0.072   0.142  0.2955  0.1149  0.1209
 8815TIP3    H147936   0.822   0.094   0.131 -0.0931  2.0038  0.5006
 8815TIP3    H247937   0.682   0.148   0.107 -1.1267 -1.1646 -0.7936
 8816TIP3   OH247938   5.608   2.049   5.569  0.1785  0.1901 -0.5885
 8816TIP3    H147939   5.680   2.014   5.516  0.8248 -0.0710  0.4555
 8816TIP3    H247940   5.641   2.133   5.602  0.8504 -0.9112  1.6428
 8817TIP3   OH247941   0.035   2.083  14.624  0.1349 -0.6606 -0.2635
 8817TIP3    H147942  -0.042   2.053  14.575 -0.4350 -2.4339  1.6293
 8817TIP3    H247943   0.079   2.003  14.651  1.5584  0.3169  0.3819
 8818TIP3   OH247944   5.248   2.162  14.942  0.0595 -0.1551 -0.0822
 8818TIP3    H147945   5.306   2.102  14.895  0.4079  0.0583  0.0789
 8818TIP3    H247946   5.268   2.248  14.907  1.6767  0.2765  1.7818
 8819TIP3   OH247947   3.955   5.998  14.982 -0.2829 -0.1466  0.0156
 8819TIP3    H147948   3.993   5.911  14.997 -1.7078 -0.8495 -0.4349
 8819TIP3    H247949   4.018   6.041  14.923  0.9250 -0.4968  1.0141
 8820TIP3   OH247950   5.867   2.309   2.351  0.6069 -0.7849 -0.6370
 8820TIP3    H147951   5.828   2.372   2.412  0.5639 -1.6040  0.1856
 8820TIP3    H247952   5.824   2.226   2.372  0.2039 -0.9718 -2.1418
 8821TIP3   OH247953   3.947   4.608  16.081  0.0115  0.1696 -0.7453
 8821TIP3    H147954   3.911   4.585  16.167  1.3032 -0.4121 -0.3512
 8821TIP3    H247955   3.910   4.693  16.061 -1.5234 -0.3790 -0.3059
 8822TIP3   OH247956   3.291   4.636  16.038 -0.4292 -0.0405  0.8741
 8822TIP3    H147957   3.361   4.575  16.014 -0.3554  0.0332  0.9024
 8822TIP3    H247958   3.329   4.723  16.026 -1.4279  0.0654 -1.9654
 8823TIP3   OH247959   6.584   6.556  16.619 -0.0866  0.3826 -0.4156
 8823TIP3    H147960   6.616   6.645  16.633 -2.7132  1.3544 -0.2133
 8823TIP3    H247961   6.589   6.544  16.524  0.0436  0.8476 -0.4679
 8824TIP3   OH247962   6.052   3.608  15.696 -0.3460  0.4634  0.5745
 8824TIP3    H147963   6.113   3.534  15.702 -0.4514  0.3412  0.1799
 8824TIP3    H247964   5.979   3.574  15.644  0.3125  1.3247 -0.9485
 8825TIP3   OH247965   0.314   5.247   6.656  0.1801  0.5374 -0.7552
 8825TIP3    H147966   0.318   5.312   6.726  0.6184  0.3612 -0.6115
 8825TIP3    H247967   0.325   5.163   6.701  0.2780  0.4108 -1.0144
 8826TIP3   OH247968   0.728   3.762  13.484  0.3698 -0.4303 -0.8119
 8826TIP3    H147969   0.702   3.688  13.539  2.7160 -1.5896 -1.2295
 8826TIP3    H247970   0.768   3.723  13.407 -0.5553  1.2472 -2.2067
 8827TIP3   OH247971   4.513   5.524   2.761 -0.0978  0.6601  0.4171
 8827TIP3    H147972   4.443   5.584   2.785 -1.0930  0.8682 -2.7763
 8827TIP3    H247973   4.469   5.455   2.712  1.7606  0.1483 -0.5581
 8828TIP3   OH247974   4.004   6.664  16.241  1.0149 -0.1202  0.0072
 8828TIP3    H147975   3.984   6.588  16.186  1.0426 -0.7306  0.8245
 8828TIP3    H247976   4.091   6.644  16.276  0.6623 -0.1077  0.8944
 8829TIP3   OH247977   5.691   0.130   5.620 -0.4586  0.4227  0.1881
 8829TIP3    H147978   5.666   0.194   5.686  2.4043  2.1947 -0.3411
 8829TIP3    H247979   5.782   0.107   5.642 -0.7284 -1.8342 -0.9103
 8830TIP3   OH247980   2.148   5.776  11.511 -0.0183  0.5712  0.6403
 8830TIP3    H147981   2.117   5.687  11.494  0.1754  1.1950 -3.5137
 8830TIP3    H247982   2.194   5.770  11.595  1.8687 -3.7277 -0.5808
 8831TIP3   OH247983   4.643   5.740   3.430  0.5450 -0.2461 -0.5250
 8831TIP3    H147984   4.614   5.648   3.434 -0.2201  0.0366  1.0578
 8831TIP3    H247985   4.716   5.745   3.492 -0.0055  0.4068  0.0825
 8832TIP3   OH247986   4.003   2.878   1.099 -0.1390 -0.7739 -0.8566
 8832TIP3    H147987   4.042   2.955   1.140 -1.0549 -0.6196 -0.2899
 8832TIP3    H247988   4.041   2.804   1.146 -1.1705 -0.5981  0.2486
 8833TIP3   OH247989   0.985   3.840   4.050 -0.5644  1.0253  0.5511
 8833TIP3    H147990   1.077   3.822   4.032 -0.3976  2.8732 -0.6219
 8833TIP3    H247991   0.970   3.926   4.010 -2.5579  1.1459  1.5329
 8834TIP3   OH247992   4.801   6.063   5.383  0.1576 -0.3124  0.2634
 8834TIP3    H147993   4.760   5.990   5.430 -0.4233  1.2828  2.2651
 8834TIP3    H247994   4.894   6.040   5.379 -0.2386 -1.8579 -0.4415
 8835TIP3   OH247995   0.257   5.859   4.946 -0.5444  0.3460  0.1001
 8835TIP3    H147996   0.217   5.934   4.903 -0.0396  1.3301  1.3146
 8835TIP3    H247997   0.283   5.891   5.033 -1.2835 -1.4962  1.0472
 8836TIP3   OH247998   6.080   5.832   2.837 -0.3469 -0.4218  0.7308
 8836TIP3    H147999   5.998   5.849   2.884 -0.2522  1.3018  0.3011
 8836TIP3    H248000   6.059   5.761   2.777 -0.9690 -1.3951  2.0551
 8837TIP3   OH248001   1.323   5.434   3.859  0.0188 -0.2120 -0.3129
 8837TIP3    H148002   1.377   5.354   3.860 -1.4519 -1.2253  0.7290
 8837TIP3    H248003   1.247   5.411   3.806 -0.4209  0.4939  0.0052
 8838TIP3   OH248004   3.194   5.692  12.022 -0.9423 -0.1047 -0.1410
 8838TIP3    H148005   3.123   5.667  11.963 -0.5434  0.5466 -0.9114
 8838TIP3    H248006   3.150   5.714  12.104 -1.4894 -1.1695 -0.1416
 8839TIP3   OH248007   0.211   6.298   6.511 -0.3890 -0.2165  0.0070
 8839TIP3    H148008   0.245   6.372   6.560  0.1617  0.2955 -1.1364
 8839TIP3    H248009   0.116   6.302   6.523 -0.3270  0.4356  0.2654
 8840TIP3   OH248010   5.760   4.460  14.420  0.3144 -0.2399  0.8075
 8840TIP3    H148011   5.714   4.534  14.381  0.5009  0.2683  1.5348
 8840TIP3    H248012   5.714   4.383  14.389  0.1969  0.1819 -0.0600
 8841TIP3   OH248013   5.327   0.474   0.247  0.3133 -0.0964  0.3339
 8841TIP3    H148014   5.235   0.490   0.227 -0.0074  0.5005  2.1859
 8841TIP3    H248015   5.372   0.552   0.213  0.0196  0.0319  0.2363
 8842TIP3   OH248016   6.243   4.664  13.390  0.9441  0.1404 -0.1846
 8842TIP3    H148017   6.313   4.690  13.331  1.2095 -0.0834  0.0305
 8842TIP3    H248018   6.246   4.728  13.461  1.7314 -0.5968  0.4507
 8843TIP3   OH248019   5.365   6.116  13.026  0.2049  0.0820 -0.0279
 8843TIP3    H148020   5.384   6.189  13.085  2.8394 -2.8581  2.9385
 8843TIP3    H248021   5.446   6.104  12.976 -0.4815 -0.3697 -1.0479
 8844TIP3   OH248022   6.685   1.905  14.128  0.4312  0.1139 -0.1068
 8844TIP3    H148023   6.652   1.993  14.144 -1.1561 -0.6801  1.1436
 8844TIP3    H248024   6.647   1.880  14.043 -0.2395  0.1143  0.1901
 8845TIP3   OH248025   3.445   2.099  13.454  0.0249 -0.2126  0.6834
 8845TIP3    H148026   3.393   2.108  13.534 -1.1632 -1.0352  0.0254
 8845TIP3    H248027   3.404   2.026  13.406  1.1669 -0.2208 -0.3319
 8846TIP3   OH248028   4.693   5.526   3.226 -0.0962  0.2208 -0.6734
 8846TIP3    H148029   4.758   5.508   3.295 -1.0355 -0.4232  0.0531
 8846TIP3    H248030   4.609   5.510   3.268 -0.7627  1.8073 -1.3871
 8847TIP3   OH248031   3.470   3.206  15.221 -0.1663 -0.0280  0.5574
 8847TIP3    H148032   3.544   3.265  15.211  0.4651 -0.3359  3.0625
 8847TIP3    H248033   3.501   3.122  15.186 -0.0334  0.3661 -0.2612
 8848TIP3   OH248034   6.740   1.338  12.745  0.5618  0.1476 -0.1366
 8848TIP3    H148035   6.730   1.255  12.792 -4.1795  1.5112  1.6536
 8848TIP3    H248036   6.755   1.402  12.815 -0.0099  1.3475 -1.1094
 8849TIP3   OH248037   2.078   1.094  14.230 -0.4089 -0.2092 -0.2238
 8849TIP3    H148038   2.050   1.186  14.225  0.9007  0.3087  1.6446
 8849TIP3    H248039   2.085   1.075  14.323  0.5405 -1.8436 -0.5976
 8850TIP3   OH248040   5.180   0.588  13.510  0.3773  0.0115 -0.0999
 8850TIP3    H148041   5.171   0.540  13.592  2.4089  0.1048  0.1907
 8850TIP3    H248042   5.235   0.663  13.532  1.5845 -0.3815 -1.7129
 8851TIP3   OH248043   0.994   2.211   5.792  0.0310  0.1622 -0.0466
 8851TIP3    H148044   0.945   2.142   5.747 -0.9480  1.0115 -0.2692
 8851TIP3    H248045   0.936   2.241   5.862  0.4927  0.7210  0.0995
 8852TIP3   OH248046   4.680   3.312  15.705  0.2183 -0.2697 -0.3612
 8852TIP3    H148047   4.614   3.260  15.751 -0.6101  1.0478 -0.0413
 8852TIP3    H248048   4.751   3.321  15.769  0.2513 -0.7790 -0.3250
 8853TIP3   OH248049   2.442   3.077  16.852 -0.3639 -0.4300  0.4459
 8853TIP3    H148050   2.411   3.092  16.762  1.1132 -1.0139 -0.1824
 8853TIP3    H248051   2.408   2.990  16.874 -1.1876 -0.0531  0.6512
 8854TIP3   OH248052   1.624   4.424   0.589  0.2989 -0.4608 -0.3266
 8854TIP3    H148053   1.591   4.348   0.636 -0.0386 -0.7028 -0.9555
 8854TIP3    H248054   1.703   4.393   0.545 -0.1686 -0.6083 -1.0681
 8855TIP3   OH248055   6.517   5.432  14.171 -0.2633 -0.1392  0.1435
 8855TIP3    H148056   6.445   5.491  14.145 -0.3387 -0.0011  0.6517
 8855TIP3    H248057   6.520   5.440  14.267 -1.6820 -2.6135  0.4153
 8856TIP3   OH248058   3.063   0.299  15.446 -0.1835  0.4484 -0.7730
 8856TIP3    H148059   3.105   0.385  15.441  0.3812  0.1948 -0.5078
 8856TIP3    H248060   3.063   0.277  15.539 -0.1942  0.0987 -0.8547
 8857TIP3   OH248061   4.146   4.972  13.466 -0.0528  0.1099  0.1589
 8857TIP3    H148062   4.213   5.038  13.483  0.4282 -0.1057 -0.8524
 8857TIP3    H248063   4.188   4.910  13.407 -1.3076  0.2916 -0.9597
 8858TIP3   OH248064   4.453   4.255  12.363  0.5571  0.3090 -0.3014
 8858TIP3    H148065   4.359   4.269  12.370  0.3474 -1.1269 -0.1697
 8858TIP3    H248066   4.491   4.323  12.419 -0.4682 -0.0361  0.8505
 8859TIP3   OH248067   5.289   1.650  12.945 -0.8327 -0.0822  0.0934
 8859TIP3    H148068   5.296   1.601  13.027 -1.8987 -0.3631  0.0206
 8859TIP3    H248069   5.234   1.596  12.889 -0.1926  0.1590 -0.7736
 8860TIP3   OH248070   2.382   0.844  12.178  0.3842 -0.2346  0.6402
 8860TIP3    H148071   2.397   0.932  12.144 -1.1192 -0.8990 -1.8069
 8860TIP3    H248072   2.320   0.856  12.250 -0.1927  0.6748  0.0001
 8861TIP3   OH248073   4.897   4.408  11.134  0.3131  0.3911  0.0022
 8861TIP3    H148074   4.843   4.435  11.059 -0.3213 -1.7053 -0.3256
 8861TIP3    H248075   4.922   4.490  11.176 -1.5755  1.5012 -0.9528
 8862TIP3   OH248076   1.177   3.655  12.782  0.1489 -0.1525 -0.1521
 8862TIP3    H148077   1.139   3.738  12.755  1.3556  0.2326 -0.7252
 8862TIP3    H248078   1.103   3.595  12.787 -0.3494  0.1930 -2.6842
 8863TIP3   OH248079   1.553   6.171  17.037  0.7913 -0.2943  0.0032
 8863TIP3    H148080   1.477   6.193  16.983 -0.4627 -1.8068  1.1092
 8863TIP3    H248081   1.606   6.113  16.982 -0.6791 -2.1486  0.4721
 8864TIP3   OH248082   1.298   4.769  12.779  0.1408 -0.2591  0.1381
 8864TIP3    H148083   1.240   4.780  12.855 -0.1055 -1.9739  0.2237
 8864TIP3    H248084   1.237   4.761  12.705  0.2482 -2.0105  0.2206
 8865TIP3   OH248085   4.044   2.217   3.960  0.1571  0.5861  0.1391
 8865TIP3    H148086   4.139   2.228   3.955  0.4299 -0.8827  1.6272
 8865TIP3    H248087   4.030   2.125   3.937 -0.6319  0.0681  2.5665
 8866TIP3   OH248088   1.876   1.630   0.588 -0.0225 -0.0086 -0.1693
 8866TIP3    H148089   1.860   1.704   0.529  0.5095  0.1145 -0.1587
 8866TIP3    H248090   1.918   1.564   0.533 -0.9542 -0.5120 -0.3044
 8867TIP3   OH248091   2.585   2.158   3.369  0.7252  0.4236 -0.0929
 8867TIP3    H148092   2.516   2.121   3.314 -2.0661  0.3370  3.3257
 8867TIP3    H248093   2.646   2.199   3.307 -2.1371  0.1387 -3.2267
 8868TIP3   OH248094   0.938   4.565  14.961 -0.0310  0.1468  0.1194
 8868TIP3    H148095   0.958   4.500  15.029 -0.8852 -0.6273 -0.3641
 8868TIP3    H248096   0.968   4.648  14.998 -1.5282 -0.0939  1.9442
 8869TIP3   OH248097   6.703   3.475  13.358  0.1580 -0.4807  0.2734
 8869TIP3    H148098   6.725   3.456  13.449  1.5074 -0.2810  0.0029
 8869TIP3    H248099   6.786   3.505  13.320 -1.0957  2.6721 -0.1570
 8870TIP3   OH248100   1.834   3.964  16.666  0.1440  0.2401  1.0232
 8870TIP3    H148101   1.855   4.011  16.747 -0.1885  2.0740  0.0814
 8870TIP3    H248102   1.803   4.033  16.607 -2.0717 -1.4169  0.1778
 8871TIP3   OH248103   6.817   4.472   0.934 -0.0886 -0.7453  0.3959
 8871TIP3    H148104   6.839   4.563   0.911 -2.2872 -0.3752 -0.4718
 8871TIP3    H248105   6.861   4.419   0.867  1.7484 -0.3786  1.2981
 8872TIP3   OH248106   2.036   2.166   1.501 -0.2012  0.0442  0.1186
 8872TIP3    H148107   2.099   2.229   1.536 -0.7714  1.3973 -1.2460
 8872TIP3    H248108   2.088   2.111   1.442 -0.0827  0.4940 -0.1986
 8873TIP3   OH248109   3.650   6.130  15.874 -0.4790 -0.2481  0.0279
 8873TIP3    H148110   3.564   6.170  15.889 -0.4126 -0.0846 -0.0255
 8873TIP3    H248111   3.699   6.197  15.827  0.7006  0.8365  2.7171
 8874TIP3   OH248112   3.293   4.834  14.093 -0.4169 -0.0138  1.0174
 8874TIP3    H148113   3.240   4.757  14.072 -1.5152 -0.0397  3.6086
 8874TIP3    H248114   3.230   4.906  14.099  0.3999  0.7830  0.1583
 8875TIP3   OH248115   3.342   5.950  16.547 -0.2588 -0.1732 -0.3320
 8875TIP3    H148116   3.283   5.983  16.479 -0.0812 -0.7985 -0.7796
 8875TIP3    H248117   3.430   5.972  16.516 -0.2356  0.6312  0.2748
 8876TIP3   OH248118   1.744   2.193  11.419  0.4363  0.0935 -0.3300
 8876TIP3    H148119   1.703   2.248  11.485  1.6118 -0.9296  1.2997
 8876TIP3    H248120   1.731   2.103  11.451 -1.8262 -0.6770 -3.1448
 8877TIP3   OH248121   5.059   5.466  15.459 -0.5396  0.2606 -0.3136
 8877TIP3    H148122   5.132   5.482  15.519 -1.3001 -3.5053  1.7422
 8877TIP3    H248123   5.093   5.403  15.396 -2.0155 -1.5797  0.7056
 8878TIP3   OH248124   0.883   5.195  15.379 -1.2853  0.8622 -0.7340
 8878TIP3    H148125   0.868   5.288  15.360  2.2805  1.7354  0.2828
 8878TIP3    H248126   0.940   5.165  15.308 -0.3207  0.1589  0.3150
 8879TIP3   OH248127   4.984   5.169   5.257  0.0223 -0.0229  0.2503
 8879TIP3    H148128   4.979   5.261   5.283  0.7223  0.3436 -0.8957
 8879TIP3    H248129   5.027   5.170   5.172  1.2364 -1.5216  0.8255
 8880TIP3   OH248130   6.244   6.818  12.096 -0.0088  0.5206 -0.6886
 8880TIP3    H148131   6.316   6.789  12.039  1.6621  2.4252  0.3555
 8880TIP3    H248132   6.288   6.843  12.178 -1.9101  1.4676  0.0577
 8881TIP3   OH248133   2.552   6.027  12.318 -0.3798 -0.5176  0.3880
 8881TIP3    H148134   2.523   5.941  12.348  0.1792 -1.3049 -1.2338
 8881TIP3    H248135   2.534   6.027  12.224  0.4913  0.7777  0.2009
 8882TIP3   OH248136   0.559   3.742   0.504 -0.5582  1.0084 -0.5148
 8882TIP3    H148137   0.467   3.767   0.498 -0.9883 -0.4189 -0.2380
 8882TIP3    H248138   0.598   3.806   0.562 -2.0165  0.0188  1.6156
 8883TIP3   OH248139   5.722   6.682   3.723 -0.2288  0.0791  0.4394
 8883TIP3    H148140   5.745   6.619   3.655 -1.5385 -0.2736  0.3138
 8883TIP3    H248141   5.684   6.756   3.675  1.6856  1.1815  0.5455
 8884TIP3   OH248142   6.499   5.428  12.466  0.5348 -0.3947  0.5189
 8884TIP3    H148143   6.581   5.385  12.442  0.8820 -0.0459  1.0468
 8884TIP3    H248144   6.453   5.363  12.520 -0.2327 -1.1649 -1.0505
 8885TIP3   OH248145   2.684   6.752   3.845 -0.7547  0.1111  0.4360
 8885TIP3    H148146   2.660   6.829   3.896  1.8485  1.0578  0.3373
 8885TIP3    H248147   2.747   6.706   3.901 -0.5267 -0.6857 -0.4740
 8886TIP3   OH248148   2.923   2.064   3.490  0.2701 -0.1943  0.5491
 8886TIP3    H148149   3.009   2.082   3.453  0.3173  0.6912  1.0716
 8886TIP3    H248150   2.879   2.011   3.424 -0.0709  2.3259 -1.3404
 8887TIP3   OH248151   0.887   2.828   0.654 -0.4248 -0.2990 -0.4111
 8887TIP3    H148152   0.829   2.760   0.620 -1.2202  0.9123 -1.5255
 8887TIP3    H248153   0.973   2.786   0.660 -1.2052 -1.8320  0.3730
 8888TIP3   OH248154   5.294   6.728  15.264 -0.3364 -0.2029  0.0436
 8888TIP3    H148155   5.322   6.812  15.302 -0.4500  0.4271 -1.2281
 8888TIP3    H248156   5.210   6.710  15.306 -1.1085  1.1607 -0.8318
 8889TIP3   OH248157   0.230   6.129   3.705 -0.4014 -0.3111 -0.4210
 8889TIP3    H148158   0.155   6.184   3.726 -0.4108 -0.1303 -0.9129
 8889TIP3    H248159   0.305   6.188   3.705 -0.3064 -0.4297 -0.2596
 8890TIP3   OH248160   0.241   4.449  10.684 -0.2478 -0.1348 -0.0183
 8890TIP3    H148161   0.261   4.507  10.757  1.4914  1.0120 -1.3726
 8890TIP3    H248162   0.150   4.469  10.662  0.1180  1.5849 -0.0223
 8891TIP3   OH248163   2.854   1.310  13.569  0.0243  0.1869  0.1759
 8891TIP3    H148164   2.897   1.377  13.515  0.4391 -1.5506 -1.6732
 8891TIP3    H248165   2.926   1.261  13.608 -0.2711 -1.0190 -0.7829
 8892TIP3   OH248166   3.737   0.137   4.967  0.1494 -0.7281 -0.1746
 8892TIP3    H148167   3.811   0.077   4.972 -0.6778 -1.7996 -0.5442
 8892TIP3    H248168   3.690   0.111   4.888 -1.0181 -0.5193  0.4396
 8893TIP3   OH248169   2.508   0.682   1.129 -0.2306  0.1501 -0.4184
 8893TIP3    H148170   2.536   0.717   1.044  0.5097  0.8780  0.1175
 8893TIP3    H248171   2.587   0.639   1.164 -0.7671 -0.9121 -0.4761
 8894TIP3   OH248172   4.972   6.408   5.315  0.0887  0.6062 -0.4688
 8894TIP3    H148173   5.046   6.453   5.273  0.8834  0.9010  1.1690
 8894TIP3    H248174   4.957   6.331   5.261 -0.2204  1.9819 -2.3983
 8895TIP3   OH248175   1.875   5.189   6.127 -0.2093  0.5560  0.6759
 8895TIP3    H148176   1.886   5.283   6.112  2.5341  0.3983  1.4239
 8895TIP3    H248177   1.932   5.170   6.202  0.0597 -1.8817 -0.1040
 8896TIP3   OH248178   1.250   2.137   0.210  0.0823 -0.4820  0.1832
 8896TIP3    H148179   1.302   2.183   0.276  0.6824 -0.7604 -0.0893
 8896TIP3    H248180   1.288   2.164   0.126 -2.1930  1.7412 -0.1901
 8897TIP3   OH248181   2.714   0.338   6.636  0.1750  0.2937 -0.2327
 8897TIP3    H148182   2.744   0.318   6.724  0.1128 -0.3507 -0.3576
 8897TIP3    H248183   2.697   0.253   6.596  0.5592  0.5664 -0.9938
 8898TIP3   OH248184   4.752   4.511   4.739  0.0963  0.6444  0.1130
 8898TIP3    H148185   4.714   4.590   4.700 -0.9347 -0.0268 -0.2667
 8898TIP3    H248186   4.681   4.474   4.792  1.3622  1.3400  2.3559
 8899TIP3   OH248187   2.126   2.878   2.159 -0.1629  0.2560 -0.2331
 8899TIP3    H148188   2.111   2.867   2.066 -2.1236  0.3983  0.0523
 8899TIP3    H248189   2.203   2.824   2.178 -1.1398 -1.5977 -1.4908
 8900TIP3   OH248190   5.667   0.138  14.036  0.0223  0.2968  0.2735
 8900TIP3    H148191   5.674   0.052  14.076 -0.0874 -0.0613 -0.4742
 8900TIP3    H248192   5.731   0.137  13.964  0.3039  0.9734  0.5061
 8901TIP3   OH248193   5.938   4.969   0.323  0.5712 -0.3542  0.4219
 8901TIP3    H148194   5.925   5.034   0.392 -1.3795  0.2427 -0.4685
 8901TIP3    H248195   5.855   4.968   0.275  1.1670 -2.2823 -0.6215
 8902TIP3   OH248196   0.356   6.285  13.115  0.2112  0.1447  0.6519
 8902TIP3    H148197   0.434   6.237  13.144  0.3534 -0.7797 -1.1255
 8902TIP3    H248198   0.383   6.376  13.115  1.3951 -0.1818 -0.1061
 8903TIP3   OH248199   6.239   1.513   3.743 -0.3931 -0.3409  0.0523
 8903TIP3    H148200   6.197   1.582   3.692 -1.5717  0.4158  2.0187
 8903TIP3    H248201   6.211   1.431   3.701 -0.0231  0.3192 -1.4991
 8904TIP3   OH248202   0.827   5.469  15.445 -0.4842  0.0575  0.5484
 8904TIP3    H148203   0.777   5.497  15.521 -1.1941 -0.4568  0.2744
 8904TIP3    H248204   0.781   5.506  15.370  0.7250  1.3263  0.4128
 8905TIP3   OH248205   6.030   0.083  12.422  0.2893 -0.4174 -0.1032
 8905TIP3    H148206   6.023   0.083  12.327 -1.9766  3.9141 -0.0357
 8905TIP3    H248207   6.123   0.100  12.439  0.1087  2.4567 -1.6345
 8906TIP3   OH248208   4.979   0.355  15.750  0.0963 -0.0251 -0.5395
 8906TIP3    H148209   5.070   0.383  15.749  0.1376 -0.1939 -1.5239
 8906TIP3    H248210   4.957   0.341  15.658 -0.6511 -0.8702 -0.2372
 8907TIP3   OH248211   0.819   5.995  11.748 -0.5131  0.0899 -0.2882
 8907TIP3    H148212   0.811   6.015  11.841 -0.9031 -1.7092  0.0931
 8907TIP3    H248213   0.908   5.960  11.739  0.0711  1.6907 -0.8890
 8908TIP3   OH248214   1.250   1.668   4.607  0.0249 -0.1250  0.2489
 8908TIP3    H148215   1.191   1.634   4.674 -0.7143  0.2866 -0.1977
 8908TIP3    H248216   1.193   1.712   4.544  0.6677 -1.0076 -0.9686
 8909TIP3   OH248217   5.179   0.743  16.094 -0.3737  0.0460  0.3319
 8909TIP3    H148218   5.136   0.793  16.163 -0.0184 -0.1115  0.6686
 8909TIP3    H248219   5.251   0.800  16.065 -0.5147  0.1072  0.0982
 8910TIP3   OH248220   6.525   0.915   1.236  0.1271 -0.2455  0.0814
 8910TIP3    H148221   6.584   0.972   1.186  1.0767 -0.9148  0.4093
 8910TIP3    H248222   6.584   0.859   1.286 -0.7864 -1.7104 -0.4582
 8911TIP3   OH248223   4.301   1.934  12.353 -0.0987 -0.0348 -0.4477
 8911TIP3    H148224   4.280   2.008  12.410 -1.6675  0.0186 -1.0656
 8911TIP3    H248225   4.222   1.880  12.353  0.4633 -0.8804 -1.2847
 8912TIP3   OH248226   4.293   0.108   1.161  0.1996  0.1424 -0.4757
 8912TIP3    H148227   4.360   0.176   1.148 -0.5496  1.1048  0.5932
 8912TIP3    H248228   4.307   0.077   1.251  0.1763 -0.7307 -0.7666
 8913TIP3   OH248229   0.412   4.579   0.322 -0.1933  0.0557 -0.9292
 8913TIP3    H148230   0.374   4.491   0.327 -1.0878  0.5523  1.9738
 8913TIP3    H248231   0.389   4.610   0.234 -1.5239 -1.8666 -1.2989
 8914TIP3   OH248232   3.589   1.088  16.324 -0.1285 -0.2639 -0.1649
 8914TIP3    H148233   3.563   1.030  16.395 -1.1957  0.3744 -0.0306
 8914TIP3    H248234   3.577   1.035  16.245 -0.7076 -0.3591 -0.0120
 8915TIP3   OH248235   5.588   5.157   5.594  0.1722 -0.3469 -0.1283
 8915TIP3    H148236   5.623   5.068   5.596 -0.0711 -0.4624 -0.7131
 8915TIP3    H248237   5.501   5.150   5.633  0.5027 -0.1983  0.6436
 8916TIP3   OH248238   0.339   6.552  14.252  0.2701 -0.3289 -0.1972
 8916TIP3    H148239   0.248   6.546  14.279  0.1067  1.4014 -0.2959
 8916TIP3    H248240   0.376   6.466  14.271 -0.8135 -0.3541  1.9204
 8917TIP3   OH248241   3.624   5.649   4.348  0.7995  0.9784 -0.3187
 8917TIP3    H148242   3.532   5.643   4.374  0.9877  0.9651  0.3519
 8917TIP3    H248243   3.673   5.613   4.422  1.2934  0.0011 -1.1060
 8918TIP3   OH248244   4.948   3.283  11.844  0.7906 -0.4443 -0.0456
 8918TIP3    H148245   4.949   3.363  11.791 -2.4237  0.2069  0.7825
 8918TIP3    H248246   4.994   3.219  11.790  0.6266  1.1135 -2.1243
 8919TIP3   OH248247   0.026   2.353   5.000 -0.2665 -0.2885 -1.0397
 8919TIP3    H148248  -0.009   2.442   4.995 -0.0493 -0.1319  0.0803
 8919TIP3    H248249  -0.051   2.298   5.015 -0.1206  0.0213  1.0737
 8920TIP3   OH248250   0.548   0.340   0.734  0.1476 -0.0400  0.0603
 8920TIP3    H148251   0.582   0.368   0.819  0.1155 -0.8055  0.3315
 8920TIP3    H248252   0.551   0.418   0.680  2.4564 -0.0934  0.0452
 8921TIP3   OH248253   3.337   1.769  12.053 -0.2887 -0.4180  0.1486
 8921TIP3    H148254   3.245   1.745  12.047  0.0278 -1.7789  0.5601
 8921TIP3    H248255   3.356   1.769  12.147  0.1812 -0.3034  0.0549
 8922TIP3   OH248256   1.472   6.435  15.947 -0.3395  0.1508  0.4375
 8922TIP3    H148257   1.523   6.502  15.993 -1.7455  2.6844 -1.5683
 8922TIP3    H248258   1.381   6.464  15.955 -0.9947 -1.6844 -0.2188
 8923TIP3   OH248259   3.005   5.529   4.536 -0.0079 -0.0538 -0.3953
 8923TIP3    H148260   2.947   5.573   4.473  0.9506  1.3018 -0.3519
 8923TIP3    H248261   2.960   5.447   4.556 -1.2109  0.3184 -1.4649
 8924TIP3   OH248262   1.329   2.283   3.873  0.3213 -0.2055  0.2239
 8924TIP3    H148263   1.242   2.263   3.839  1.2000  0.1980 -2.4066
 8924TIP3    H248264   1.316   2.361   3.926 -1.2943 -1.5031  1.8055
 8925TIP3   OH248265   1.283   0.688   3.224  0.0165 -0.1138  0.3668
 8925TIP3    H148266   1.239   0.765   3.188 -0.7695 -1.0159 -0.6446
 8925TIP3    H248267   1.257   0.616   3.166 -0.7271 -1.4757  2.3109
 8926TIP3   OH248268   0.688   6.167  14.690 -0.3486 -0.3843 -0.2612
 8926TIP3    H148269   0.755   6.105  14.717 -0.6254 -0.3183  0.5965
 8926TIP3    H248270   0.632   6.178  14.767 -1.4582 -0.5874 -1.0216
 8927TIP3   OH248271   6.663   6.061  13.644  0.0114  0.0399 -0.0365
 8927TIP3    H148272   6.581   6.029  13.607 -0.1826  0.9237 -0.4105
 8927TIP3    H248273   6.712   5.982  13.667 -1.8547 -0.4963  2.2901
 8928TIP3   OH248274   4.423   4.880   5.575  0.4208  0.1062 -0.8748
 8928TIP3    H148275   4.440   4.897   5.668  1.1088 -0.5599 -0.8733
 8928TIP3    H248276   4.409   4.785   5.570  2.6792 -0.1943 -1.7983
 8929TIP3   OH248277   3.141   6.185   6.141 -0.2338  0.2460  0.0657
 8929TIP3    H148278   3.107   6.105   6.101 -0.7651  0.2238  0.5602
 8929TIP3    H248279   3.124   6.175   6.234 -0.2023  0.8827  0.1439
 8930TIP3   OH248280   4.358   5.722  16.450  0.2893 -0.2909  0.1710
 8930TIP3    H148281   4.434   5.780  16.452  0.5325 -0.5610 -1.3874
 8930TIP3    H248282   4.389   5.640  16.488  0.3428  0.0955  0.9817
 8931TIP3   OH248283   3.419   0.741  13.815 -0.1144  0.7364  0.0757
 8931TIP3    H148284   3.505   0.705  13.835 -0.1590  0.4290 -0.2785
 8931TIP3    H248285   3.365   0.719  13.891 -0.0269  0.4449  0.0499
 8932TIP3   OH248286   5.300   4.603  15.072 -0.2059 -0.0589  0.1110
 8932TIP3    H148287   5.234   4.550  15.027 -0.2604  0.7071 -0.7221
 8932TIP3    H248288   5.277   4.598  15.164 -1.5836  0.4211 -0.2064
 8933TIP3   OH248289   0.997   1.654   0.345  0.3688  0.3148 -0.2019
 8933TIP3    H148290   0.937   1.672   0.418 -0.2705  2.8311 -1.2827
 8933TIP3    H248291   0.992   1.733   0.291 -0.2558 -2.0643 -3.7452
 8934TIP3   OH248292   6.512   3.603   1.826 -0.5921 -0.7433  0.4882
 8934TIP3    H148293   6.437   3.638   1.779 -1.4376  0.2248  2.5142
 8934TIP3    H248294   6.474   3.557   1.901  0.7880 -1.0654  1.0010
 8935TIP3   OH248295   5.071   0.295   0.359 -0.6035  0.1307  0.5973
 8935TIP3    H148296   5.049   0.317   0.450  0.1249  2.1795  0.3027
 8935TIP3    H248297   4.991   0.256   0.324 -1.2250  0.2752  1.8259
 8936TIP3   OH248298   3.724   6.610  13.700 -0.3971 -0.1243  0.2456
 8936TIP3    H148299   3.710   6.538  13.638 -0.3829  1.4327 -1.6196
 8936TIP3    H248300   3.803   6.653  13.669  0.9649 -0.7034  2.7596
 8937TIP3   OH248301   3.787   6.029   2.956 -0.0823  0.0286 -0.0615
 8937TIP3    H148302   3.854   5.961   2.944  0.3423  0.0572  1.8330
 8937TIP3    H248303   3.724   5.989   3.016  0.3823  1.4246  1.3993
 8938TIP3   OH248304   0.363   0.383   4.165  0.0813  0.1917 -0.2730
 8938TIP3    H148305   0.408   0.378   4.080 -0.1664  0.7303 -0.4369
 8938TIP3    H248306   0.422   0.434   4.220  0.2321 -0.1404 -0.1238
 8939TIP3   OH248307   3.860   1.825   3.728 -0.1251 -0.3775 -0.5293
 8939TIP3    H148308   3.822   1.891   3.671 -0.1551  0.0993  0.0341
 8939TIP3    H248309   3.808   1.747   3.712 -0.2200 -0.2124 -1.0508
 8940TIP3   OH248310   3.975   1.762  11.829 -0.2268 -0.1602 -0.0283
 8940TIP3    H148311   3.901   1.761  11.768 -2.0465  4.1206  1.9502
 8940TIP3    H248312   3.955   1.690  11.890 -2.5202  0.5793  0.1648
 8941TIP3   OH248313   1.371   0.303   5.174  0.6218 -0.1263  0.2150
 8941TIP3    H148314   1.278   0.313   5.194  0.4373 -2.1843  0.5018
 8941TIP3    H248315   1.409   0.271   5.256  1.8279  1.8806  0.4771
 8942TIP3   OH248316   5.525   0.787   5.800  0.3516 -0.5335 -0.2439
 8942TIP3    H148317   5.573   0.751   5.874 -0.5487  0.1460  0.6828
 8942TIP3    H248318   5.466   0.717   5.773  0.3961 -0.6374 -0.0681
 8943TIP3   OH248319   0.611   3.736  16.848 -0.2182 -0.0552  0.0492
 8943TIP3    H148320   0.552   3.807  16.873  2.6083  1.8264  1.7320
 8943TIP3    H248321   0.665   3.773  16.779  0.5011 -0.9665  0.1180
 8944TIP3   OH248322   1.642   1.518  11.228 -0.1490  0.4871 -0.5515
 8944TIP3    H148323   1.709   1.555  11.171 -0.0284  1.2977  0.1118
 8944TIP3    H248324   1.562   1.521  11.175 -0.2262  2.0890 -0.3659
 8945TIP3   OH248325   2.367   2.344  12.191  0.5885 -0.3215 -0.1839
 8945TIP3    H148326   2.339   2.323  12.280  0.8208 -0.0587 -0.0481
 8945TIP3    H248327   2.349   2.438  12.182  0.2785 -0.4092 -0.5229
 8946TIP3   OH248328   3.704   4.458  13.875 -0.4258 -0.4321  0.3516
 8946TIP3    H148329   3.660   4.543  13.867 -0.1932 -0.3308  0.1365
 8946TIP3    H248330   3.796   4.480  13.888 -0.2856 -0.6535 -0.2172
 8947TIP3   OH248331   2.951   6.759  16.433  0.6952  0.8040 -0.4883
 8947TIP3    H148332   2.929   6.666  16.432 -0.8359  1.1595  0.0227
 8947TIP3    H248333   2.938   6.788  16.343 -1.3445  1.1010 -0.1116
 8948TIP3   OH248334   0.425   2.311  15.875  0.1586 -0.1423  0.1249
 8948TIP3    H148335   0.515   2.279  15.879  0.3480  0.6329  2.9149
 8948TIP3    H248336   0.428   2.386  15.816  0.3859 -2.9552 -3.6318
 8949TIP3   OH248337   1.444   2.525  16.438 -0.5759  0.7071 -0.1420
 8949TIP3    H148338   1.395   2.526  16.520  0.3368  0.8542  0.4104
 8949TIP3    H248339   1.531   2.496  16.463 -0.6110 -0.3760 -1.2485
 8950TIP3   OH248340   4.313   2.514  13.913 -0.1448 -0.1758 -0.0467
 8950TIP3    H148341   4.247   2.579  13.936  0.3477 -0.2998  1.7695
 8950TIP3    H248342   4.382   2.564  13.870 -0.0751  0.4204  0.7395
 8951TIP3   OH248343   2.156   1.530  11.693  0.4587 -0.3919 -0.4657
 8951TIP3    H148344   2.080   1.583  11.714  0.1630  0.5861 -3.6813
 8951TIP3    H248345   2.201   1.517  11.776 -2.5640  0.0192  1.2775
 8952TIP3   OH248346   0.182   0.925   2.499 -0.4023 -0.3583  0.4501
 8952TIP3    H148347   0.198   0.988   2.428  0.0720 -0.2321  0.6623
 8952TIP3    H248348   0.087   0.921   2.506 -0.5746 -2.5704 -2.1557
 8953TIP3   OH248349   6.618   4.717  17.171 -0.1280 -0.0088  0.1339
 8953TIP3    H148350   6.672   4.792  17.199  1.8467 -0.2117 -2.8819
 8953TIP3    H248351   6.534   4.731  17.214  1.5270  1.6715  3.0051
 8954TIP3   OH248352   1.873   2.717  10.490 -0.7148 -0.7255  0.3991
 8954TIP3    H148353   1.867   2.719  10.394 -1.6130  0.8946  0.4580
 8954TIP3    H248354   1.876   2.624  10.512 -0.7930 -1.1255 -1.1923
 8955TIP3   OH248355   2.559   2.117  13.907  0.0619 -0.3404 -0.2390
 8955TIP3    H148356   2.615   2.149  13.978 -2.0761  0.9501  0.9303
 8955TIP3    H248357   2.614   2.121  13.829  2.3116 -1.3235  1.2317
 8956TIP3   OH248358   1.904   1.809   0.809 -0.7610 -0.5835 -0.9064
 8956TIP3    H148359   1.814   1.833   0.831 -0.3320  1.4106 -1.2016
 8956TIP3    H248360   1.897   1.764   0.725 -1.4385  0.1470 -1.2540
 8957TIP3   OH248361   0.103   6.490   5.858 -0.0486 -0.0560 -0.0763
 8957TIP3    H148362   0.037   6.541   5.811  0.2182  1.8191  1.5206
 8957TIP3    H248363   0.053   6.430   5.912 -0.4157  0.1306 -0.2069
 8958TIP3   OH248364   0.945   6.722   0.461  0.3762  0.2704  0.0414
 8958TIP3    H148365   0.986   6.643   0.497  0.6035 -0.5971 -2.0789
 8958TIP3    H248366   0.996   6.794   0.498  1.5188 -0.6658  0.3135
 8959TIP3   OH248367   6.655   1.207   5.398 -0.2804  0.2763 -0.5403
 8959TIP3    H148368   6.668   1.293   5.357 -0.6191 -0.4570 -2.2019
 8959TIP3    H248369   6.743   1.169   5.401 -0.5269 -0.5191 -2.5304
 8960TIP3   OH248370   3.566   4.878   1.672 -0.2800  0.0879 -0.3994
 8960TIP3    H148371   3.628   4.843   1.736 -0.0234  1.4403  0.1093
 8960TIP3    H248372   3.619   4.926   1.609 -0.7592  0.9846 -0.1408
 8961TIP3   OH248373   1.327   6.574  17.000 -0.5111  0.0326  0.1371
 8961TIP3    H148374   1.330   6.490  16.956 -1.1144 -0.0404  0.2275
 8961TIP3    H248375   1.317   6.553  17.093  0.6952  0.1863  0.3197
 8962TIP3   OH248376   6.504   5.911   0.227 -0.6731 -0.0663  0.2957
 8962TIP3    H148377   6.578   5.930   0.284  0.8025 -0.1332 -1.5821
 8962TIP3    H248378   6.456   5.994   0.222 -0.1539  0.2568  0.6562
 8963TIP3   OH248379   4.398   2.513   0.525  0.1550 -0.0624  0.3684
 8963TIP3    H148380   4.309   2.479   0.521  0.2894 -0.3765 -0.0763
 8963TIP3    H248381   4.389   2.603   0.555 -0.6163  1.0773 -3.0847
 8964TIP3   OH248382   0.992   6.457   6.144 -0.9400 -0.8534  0.0452
 8964TIP3    H148383   1.045   6.503   6.078 -1.6987  0.0656  0.0729
 8964TIP3    H248384   1.043   6.465   6.225 -0.4015 -1.2693 -0.2516
 8965TIP3   OH248385   0.582   6.164   4.505 -0.1296 -0.3549 -0.2165
 8965TIP3    H148386   0.496   6.199   4.528 -0.9669 -2.2179 -0.4247
 8965TIP3    H248387   0.584   6.168   4.409 -0.7752 -2.0564 -0.3234
 8966TIP3   OH248388   4.215   3.806  11.225  0.9555  0.0431 -0.3438
 8966TIP3    H148389   4.211   3.869  11.297 -1.0719 -0.8768  0.3828
 8966TIP3    H248390   4.307   3.805  11.199  1.2325  2.3654  0.4538
 8967TIP3   OH248391   4.708   3.651  16.681 -0.1724  0.2336 -0.0151
 8967TIP3    H148392   4.787   3.633  16.732  0.3314 -0.4387 -1.0034
 8967TIP3    H248393   4.681   3.738  16.710  0.8328  0.4015  0.4706
 8968TIP3   OH248394   2.170   2.328  15.527 -0.0871 -0.5113  0.4433
 8968TIP3    H148395   2.136   2.388  15.594 -0.6644  0.1029 -0.4004
 8968TIP3    H248396   2.096   2.270  15.507  0.2765 -1.1057  0.7828
 8969TIP3   OH248397   0.034   3.819   6.047  0.2001 -0.2524  0.0812
 8969TIP3    H148398  -0.004   3.868   6.120 -1.5615 -0.8636 -0.3974
 8969TIP3    H248399   0.056   3.885   5.982  2.3565  0.3621  1.3840
 8970TIP3   OH248400   6.165   4.830   4.764 -0.2574  0.5666 -0.5169
 8970TIP3    H148401   6.079   4.872   4.756 -0.4763  0.6657  1.8717
 8970TIP3    H248402   6.228   4.902   4.762 -0.4259  0.7464  0.4998
 8971TIP3   OH248403   6.619   1.314   5.071 -0.2915 -0.0875  0.4048
 8971TIP3    H148404   6.550   1.358   5.120 -0.7540 -0.4635  0.0969
 8971TIP3    H248405   6.596   1.329   4.979  1.1589  1.5563  0.2799
 8972TIP3   OH248406   3.569   2.613   0.292 -0.3073 -0.1698 -0.1620
 8972TIP3    H148407   3.566   2.519   0.275  0.7090 -0.3758  0.7124
 8972TIP3    H248408   3.515   2.625   0.370 -0.8898  0.0556 -0.5981
 8973TIP3   OH248409   5.384   2.298   2.984 -0.3443 -0.1053  0.4592
 8973TIP3    H148410   5.309   2.353   2.964 -1.7639 -2.0431  0.3306
 8973TIP3    H248411   5.392   2.303   3.080  0.6819  1.7699  0.2855
 8974TIP3   OH248412   5.458   6.173  14.269 -0.1972 -0.0589 -0.1014
 8974TIP3    H148413   5.502   6.223  14.200 -0.0083  0.0200  0.0787
 8974TIP3    H248414   5.489   6.083  14.257 -0.2833 -0.0741 -0.2143
 8975TIP3   OH248415   1.142   4.932   5.506  0.2656 -0.2209  0.3218
 8975TIP3    H148416   1.107   4.997   5.567 -0.3971 -1.6391  1.5034
 8975TIP3    H248417   1.141   4.850   5.556 -0.7585 -1.5310 -1.7707
 8976TIP3   OH248418   3.132   6.366   3.284  0.3710  0.5455  0.1812
 8976TIP3    H148419   3.046   6.405   3.271  0.1475  0.2181  0.6529
 8976TIP3    H248420   3.154   6.385   3.375 -0.0363 -0.9719  0.6192
 8977TIP3   OH248421   4.870   2.596   5.245  0.1467 -0.2162 -0.4442
 8977TIP3    H148422   4.787   2.631   5.211  0.3620 -0.3579 -1.1152
 8977TIP3    H248423   4.925   2.673   5.257  0.4635 -0.2726 -1.4933
 8978TIP3   OH248424   4.363   1.299  11.018 -0.7925 -0.3792 -0.1468
 8978TIP3    H148425   4.276   1.336  11.002 -0.8276 -0.6551 -0.6301
 8978TIP3    H248426   4.395   1.276  10.930  0.6468  1.6924 -0.1938
 8979TIP3   OH248427   4.139   0.438  12.360 -0.1185  0.3202 -0.3015
 8979TIP3    H148428   4.211   0.469  12.416 -0.1923 -0.0801  0.0235
 8979TIP3    H248429   4.181   0.419  12.276  0.2387 -0.2774 -0.0016
 8980TIP3   OH248430   4.268   5.878   4.968 -0.1093  0.1735  0.0369
 8980TIP3    H148431   4.199   5.945   4.976 -0.3641  0.0257 -0.8609
 8980TIP3    H248432   4.344   5.917   5.012  0.1247  1.5784 -1.5362
 8981TIP3   OH248433   1.066   2.762  12.898  0.3788  0.0105 -0.0783
 8981TIP3    H148434   1.099   2.672  12.908  1.2018  0.4470  1.2535
 8981TIP3    H248435   0.974   2.757  12.925  0.8567 -0.1252  1.5953
 8982TIP3   OH248436   1.891   6.259   6.514 -0.1619 -0.2066 -0.5228
 8982TIP3    H148437   1.905   6.172   6.475 -0.9946 -0.0259 -1.2604
 8982TIP3    H248438   1.976   6.283   6.551  0.4264 -0.7814 -1.4603
 8983TIP3   OH248439   4.085   1.251   3.052 -0.0303  0.3908 -0.4959
 8983TIP3    H148440   4.007   1.305   3.065 -0.5089 -0.1661 -1.0434
 8983TIP3    H248441   4.053   1.161   3.053 -0.0507  0.2610 -5.0487
 8984TIP3   OH248442   1.893   1.197   1.944 -0.0445 -0.1959  0.4240
 8984TIP3    H148443   1.807   1.239   1.955  0.7898  2.1815 -1.6255
 8984TIP3    H248444   1.913   1.209   1.851  2.2847 -1.1620  0.7810
 8985TIP3   OH248445   6.178   1.253  16.671  0.3655 -0.2954 -0.4296
 8985TIP3    H148446   6.125   1.305  16.732  0.7987 -0.7586  0.3511
 8985TIP3    H248447   6.148   1.280  16.584 -0.5123  0.1080 -0.0068
 8986TIP3   OH248448   0.424   1.621  14.116 -0.1709 -0.3135 -0.1381
 8986TIP3    H148449   0.461   1.608  14.204 -1.2702 -0.8551  0.2601
 8986TIP3    H248450   0.472   1.695  14.081  0.6942 -0.4635  0.7008
 8987TIP3   OH248451   6.437   1.100   0.476 -0.0187  0.2419  0.0337
 8987TIP3    H148452   6.348   1.131   0.464 -1.1542 -2.0363  2.1942
 8987TIP3    H248453   6.465   1.137   0.559  0.1456 -1.0712  0.5696
 8988TIP3   OH248454   3.662   2.710   2.753  0.6159  0.5100  0.3909
 8988TIP3    H148455   3.716   2.789   2.757  1.2716  0.1487 -0.7693
 8988TIP3    H248456   3.706   2.655   2.687 -0.4056 -0.3727  0.4319
 8989TIP3   OH248457   2.220   2.311   5.265  0.4124  0.1332 -0.7902
 8989TIP3    H148458   2.140   2.263   5.243  0.3359 -0.4378  0.6771
 8989TIP3    H248459   2.243   2.280   5.352  2.6087 -0.1932 -1.4524
 8990TIP3   OH248460   2.769   2.163  15.116 -0.5405  0.1294 -0.0317
 8990TIP3    H148461   2.753   2.191  15.026  0.4523  0.3379 -0.1424
 8990TIP3    H248462   2.699   2.204  15.166 -0.2432  1.2075 -0.4916
 8991TIP3   OH248463   5.787   4.094  14.703  0.0352 -0.1055 -0.7558
 8991TIP3    H148464   5.874   4.082  14.741 -0.4838  1.6215  1.0771
 8991TIP3    H248465   5.802   4.142  14.621  0.8816 -0.6274 -0.9042
 8992TIP3   OH248466   0.394   5.655   3.421 -0.3135  0.1397 -0.0126
 8992TIP3    H148467   0.339   5.620   3.351  0.0046 -0.3638 -0.0161
 8992TIP3    H248468   0.355   5.739   3.442  0.5689  1.0819 -1.9796
 8993TIP3   OH248469   0.529   2.110   5.473  0.3223 -0.1662 -0.0413
 8993TIP3    H148470   0.625   2.105   5.471  0.3462  0.0644  0.4200
 8993TIP3    H248471   0.510   2.202   5.491  0.0118 -0.1938 -0.2288
 8994TIP3   OH248472   2.396   4.178  16.578  0.1546 -0.0152 -0.6266
 8994TIP3    H148473   2.418   4.091  16.611  0.8833  0.7119  0.8713
 8994TIP3    H248474   2.475   4.230  16.593 -0.4581  1.0353 -1.0144
 8995TIP3   OH248475   0.812   2.263   3.940  0.3307  0.2275 -0.0261
 8995TIP3    H148476   0.747   2.311   3.888  0.6247 -2.1586 -2.7375
 8995TIP3    H248477   0.811   2.174   3.904  3.7246 -0.3763  1.1504
 8996TIP3   OH248478   5.532   3.507   1.354  0.4280  0.0730 -0.1944
 8996TIP3    H148479   5.487   3.562   1.418 -0.7774 -0.9455 -0.1466
 8996TIP3    H248480   5.480   3.426   1.351  0.8707 -0.1641 -1.9257
 8997TIP3   OH248481   4.219   1.605  16.953 -0.6172 -0.7601  0.0203
 8997TIP3    H148482   4.143   1.653  16.918 -2.3623 -1.1075  3.1383
 8997TIP3    H248483   4.200   1.514  16.934 -1.0670 -0.8529  0.8557
 8998TIP3   OH248484   6.123   5.140  13.177 -0.2019 -0.3671  0.0376
 8998TIP3    H148485   6.126   5.218  13.121 -0.1477 -0.4277 -0.0449
 8998TIP3    H248486   6.146   5.069  13.118 -0.8411 -0.5252 -0.0258
 8999TIP3   OH248487   0.970   0.055   1.045 -0.7476 -0.0070 -0.1788
 8999TIP3    H148488   0.977   0.118   1.117  0.5356 -0.7165  0.3351
 8999TIP3    H248489   0.983   0.107   0.966 -1.2116  0.6217  0.1545
 9000TIP3   OH248490   5.943   5.147   4.426 -0.2168 -0.6598  0.4736
 9000TIP3    H148491   5.858   5.156   4.383  0.2057  3.1075  0.2636
 9000TIP3    H248492   5.922   5.112   4.513 -2.1859  1.5642  0.9450
 9001TIP3   OH248493   1.025   3.641  15.804 -0.2339  0.7370  0.1004
 9001TIP3    H148494   0.992   3.557  15.835 -1.1328  0.4230 -1.6630
 9001TIP3    H248495   0.952   3.701  15.814  0.2132  1.1651  0.7846
 9002TIP3   OH248496   5.448   0.111   6.001 -0.0464 -0.2759 -0.6648
 9002TIP3    H148497   5.415   0.105   6.091  0.1562  0.0740 -0.5664
 9002TIP3    H248498   5.510   0.038   5.993 -0.1888 -0.4084 -0.5757
 9003TIP3   OH248499   5.800   4.455   5.333 -0.1003  0.1796  0.1708
 9003TIP3    H148500   5.871   4.398   5.360  1.4474  1.6322 -0.7423
 9003TIP3    H248501   5.729   4.395   5.309 -0.2830 -1.2225  3.9056
 9004TIP3   OH248502   1.937   5.719  11.793  0.1606  0.5218 -0.2252
 9004TIP3    H148503   1.898   5.668  11.722 -0.4819  0.9766 -0.1989
 9004TIP3    H248504   1.916   5.669  11.873  1.4124 -0.3190 -0.3938
 9005TIP3   OH248505   1.263   1.865   2.215 -0.0178 -0.0552  0.1327
 9005TIP3    H148506   1.270   1.772   2.237  1.6141  0.5337  2.2982
 9005TIP3    H248507   1.172   1.887   2.237 -0.0378 -0.8417  0.8958
 9006TIP3   OH248508   2.752   4.888   3.704  1.0578  0.8002  0.8608
 9006TIP3    H148509   2.774   4.981   3.708 -0.7856  1.2675  0.2630
 9006TIP3    H248510   2.692   4.874   3.777  1.4775  0.0237  1.0637
 9007TIP3   OH248511   0.675   4.783  16.899 -0.4040  0.4661  0.4980
 9007TIP3    H148512   0.755   4.775  16.950  1.1359 -0.7092 -2.0083
 9007TIP3    H248513   0.704   4.787  16.808 -3.2300 -2.0564 -0.6331
 9008TIP3   OH248514   5.899   2.942  12.019  0.3386  0.1442  0.2089
 9008TIP3    H148515   5.861   3.002  11.955  1.6594  0.8776  0.0908
 9008TIP3    H248516   5.868   2.974  12.104  0.4250  0.5513  0.0895
 9009TIP3   OH248517   2.584   5.668  14.975 -0.0436 -0.6473 -0.9097
 9009TIP3    H148518   2.587   5.761  14.994 -1.2077 -0.7194 -0.3106
 9009TIP3    H248519   2.548   5.628  15.055 -0.7807 -1.4499 -1.6315
 9010TIP3   OH248520   0.004   1.138  14.980 -0.0190 -0.0541 -0.4227
 9010TIP3    H148521  -0.038   1.076  15.041 -0.5635  1.5740  0.8895
 9010TIP3    H248522  -0.049   1.217  14.987 -0.1431  0.1201 -3.1441
 9011TIP3   OH248523   5.176   5.458   5.246 -0.1829  0.5807 -0.4274
 9011TIP3    H148524   5.196   5.456   5.340 -1.7761 -2.5840 -0.0780
 9011TIP3    H248525   5.252   5.419   5.204 -0.5161 -0.3549 -0.1857
 9012TIP3   OH248526   1.791   4.376  12.823  0.4713 -0.1329 -0.1593
 9012TIP3    H148527   1.817   4.330  12.903  0.7996 -0.4933 -0.4685
 9012TIP3    H248528   1.715   4.429  12.848  0.9669  0.2493  0.5463
 9013TIP3   OH248529   5.150   4.233   5.358 -0.2277 -0.2254  0.3861
 9013TIP3    H148530   5.210   4.251   5.286 -0.7585 -0.4061 -0.1111
 9013TIP3    H248531   5.098   4.159   5.327 -0.1443 -0.5996  1.1501
 9014TIP3   OH248532   5.250   2.826   2.815  0.0394 -0.3116 -0.5232
 9014TIP3    H148533   5.158   2.824   2.842  0.5696  0.9182  1.5192
 9014TIP3    H248534   5.247   2.841   2.721 -1.8674 -1.3467 -0.6483
 9015TIP3   OH248535   4.490   4.072  13.358  0.5771 -0.0307 -0.3124
 9015TIP3    H148536   4.397   4.090  13.343  0.1230 -0.2856  1.9456
 9015TIP3    H248537   4.526   4.157  13.385  0.4833 -0.3877  1.0027
 9016TIP3   OH248538   0.237   2.561   1.743 -0.2813  0.0507 -0.4207
 9016TIP3    H148539   0.202   2.619   1.811 -1.9247 -0.3582 -0.8955
 9016TIP3    H248540   0.282   2.620   1.682  1.2821  0.4122  1.0590
 9017TIP3   OH248541   1.257   3.648   0.548 -0.0453  0.0278 -0.6875
 9017TIP3    H148542   1.254   3.740   0.521  2.3374  0.0108 -1.0831
 9017TIP3    H248543   1.212   3.602   0.477 -0.8769  0.8284 -0.6965
 9018TIP3   OH248544   1.874   5.383   0.606  0.5346 -0.1282  0.2623
 9018TIP3    H148545   1.889   5.397   0.699 -0.6608 -1.5858  0.6799
 9018TIP3    H248546   1.903   5.293   0.590 -0.4998 -0.3411 -0.4934
 9019TIP3   OH248547   1.452   2.174   5.439 -0.4032 -0.5589 -0.9892
 9019TIP3    H148548   1.514   2.240   5.470 -2.5670  0.1082  2.0945
 9019TIP3    H248549   1.476   2.095   5.487 -0.6352 -0.8369 -1.3336
 9020TIP3   OH248550   5.115   5.723   0.163  0.1275  0.1584  0.4720
 9020TIP3    H148551   5.041   5.668   0.136  0.4884  0.4463 -1.1156
 9020TIP3    H248552   5.079   5.812   0.167  0.3160  0.2524  0.0273
 9021TIP3   OH248553   0.266   1.481  14.571  0.1491  0.0505 -0.0623
 9021TIP3    H148554   0.338   1.436  14.615 -1.0972 -0.8771  1.0916
 9021TIP3    H248555   0.217   1.522  14.642 -1.3113 -0.6054 -0.6649
 9022TIP3   OH248556   3.937   6.697   5.519 -0.1395  0.4800 -0.0109
 9022TIP3    H148557   3.855   6.667   5.559 -0.6234  0.5351 -0.9627
 9022TIP3    H248558   3.956   6.780   5.563  0.0918 -0.1472  1.1203
 9023TIP3   OH248559   3.031   3.842   4.980 -0.6154  0.1570 -0.0358
 9023TIP3    H148560   2.967   3.846   5.051 -0.5884  1.0882 -0.0533
 9023TIP3    H248561   3.075   3.927   4.983  0.7768 -0.5535  0.1141
 9024TIP3   OH248562   3.245   6.660  16.266 -0.1155 -0.2512 -0.6858
 9024TIP3    H148563   3.262   6.566  16.272  0.5594 -0.2085 -1.7582
 9024TIP3    H248564   3.164   6.667  16.215  0.0211 -0.2390 -0.9021
 9025TIP3   OH248565   0.596   0.788  12.234 -0.2104  0.0732 -0.3591
 9025TIP3    H148566   0.565   0.797  12.144  1.1047  0.6732 -0.7694
 9025TIP3    H248567   0.524   0.821  12.288 -0.5375  0.8403 -1.2538
 9026TIP3   OH248568   4.016   3.519   2.636  0.1370 -0.1511  0.1075
 9026TIP3    H148569   4.012   3.454   2.706  0.4238 -0.4866 -0.1862
 9026TIP3    H248570   4.103   3.509   2.599  0.7095  1.3914  1.0046
 9027TIP3   OH248571   1.034   0.795  14.178  0.4667 -0.5226  0.5812
 9027TIP3    H148572   1.056   0.799  14.085 -0.0748 -3.0912  0.3034
 9027TIP3    H248573   0.941   0.773  14.180  0.0014  1.4632  1.7383
 9028TIP3   OH248574   6.610   0.689   2.966  0.3121  0.1453  0.1790
 9028TIP3    H148575   6.700   0.721   2.978  0.1272  0.4494  0.8209
 9028TIP3    H248576   6.557   0.752   3.014 -0.1925 -0.3492  0.2657
 9029TIP3   OH248577   5.948   6.569   3.291 -0.2052 -0.2828  0.0386
 9029TIP3    H148578   5.985   6.633   3.230 -1.5859  1.2328  0.7585
 9029TIP3    H248579   5.855   6.565   3.268 -0.5341 -0.4554  1.3728
 9030TIP3   OH248580   2.834   3.261   2.338  0.2214 -0.5628 -0.1005
 9030TIP3    H148581   2.922   3.254   2.301  0.9051  1.7293  0.9531
 9030TIP3    H248582   2.810   3.353   2.325 -1.8896 -1.0686 -0.0598
 9031TIP3   OH248583   2.242   3.375   2.508  0.1768  0.0771  0.0970
 9031TIP3    H148584   2.303   3.449   2.504 -2.0948  1.9890 -1.0511
 9031TIP3    H248585   2.239   3.342   2.418  0.1879 -0.5707  0.3333
 9032TIP3   OH248586   4.099   5.759  16.473 -0.2994  0.0044  0.1726
 9032TIP3    H148587   4.049   5.693  16.426 -1.5446  0.6521  0.5717
 9032TIP3    H248588   4.189   5.748  16.441 -1.0408  0.1664 -2.0947
 9033TIP3   OH248589   1.320   3.570   6.604 -0.3231  0.1223 -0.2168
 9033TIP3    H148590   1.276   3.622   6.537 -2.1679 -0.9723  0.1185
 9033TIP3    H248591   1.324   3.482   6.567 -0.3542 -0.2482  0.6586
 9034TIP3   OH248592   5.826   3.773   3.103  0.2039 -0.2542 -0.2733
 9034TIP3    H148593   5.882   3.822   3.163 -0.5038  2.9931 -2.1117
 9034TIP3    H248594   5.886   3.738   3.037  0.5399 -0.3860  0.1035
 9035TIP3   OH248595   4.917   3.173  14.358 -0.3065  0.4082  0.4444
 9035TIP3    H148596   4.954   3.137  14.277 -1.1703  1.1365 -0.2974
 9035TIP3    H248597   4.987   3.226  14.395  0.4905 -0.8667  0.8022
 9036TIP3   OH248598   3.398   2.552   5.571 -0.2516 -0.0341  0.2425
 9036TIP3    H148599   3.433   2.463   5.582 -0.4449 -0.1736 -0.2473
 9036TIP3    H248600   3.304   2.543   5.589 -0.8214 -0.5283 -2.6785
 9037TIP3   OH248601   3.245   6.773   1.081  0.0041  1.1687  0.3809
 9037TIP3    H148602   3.206   6.686   1.071 -1.9731  1.9225  1.3043
 9037TIP3    H248603   3.242   6.810   0.993  2.3923 -0.2877 -0.3670
 9038TIP3   OH248604   4.485   4.596   4.884 -0.2442 -1.0694 -0.1261
 9038TIP3    H148605   4.488   4.545   4.965  2.9506 -0.6389  0.1085
 9038TIP3    H248606   4.462   4.684   4.911 -0.8397 -1.2900  0.0931
 9039TIP3   OH248607   0.986   0.517   3.875 -0.1547  0.0192 -0.0627
 9039TIP3    H148608   1.050   0.446   3.886  1.0571  1.2761  1.2017
 9039TIP3    H248609   1.018   0.566   3.799 -0.6064 -0.3836 -0.5130
 9040TIP3   OH248610   2.007   0.553   5.416  0.3298  0.1090 -0.5191
 9040TIP3    H148611   1.916   0.557   5.387  0.3071  0.7618 -0.3688
 9040TIP3    H248612   2.044   0.638   5.390  0.7149  0.1018  0.0062
 9041TIP3   OH248613   2.740   3.268  16.933  0.5180  0.2563 -0.0261
 9041TIP3    H148614   2.822   3.312  16.954  0.6154 -0.2743  0.7256
 9041TIP3    H248615   2.702   3.321  16.863  1.2249  0.8272  0.0103
 9042TIP3   OH248616   6.651   6.655  11.764 -0.6008 -0.8798  0.0597
 9042TIP3    H148617   6.624   6.602  11.688  1.3440 -0.8923 -0.6712
 9042TIP3    H248618   6.594   6.731  11.762 -0.5038 -0.8317 -1.5035
 9043TIP3   OH248619   5.082   4.939   4.437  0.1939 -0.1839  0.4867
 9043TIP3    H148620   5.024   4.865   4.455  1.8350 -1.2112  1.7018
 9043TIP3    H248621   5.156   4.927   4.498  2.2887  0.3803 -1.8753
 9044TIP3   OH248622   0.388   5.617  16.659  0.2638  0.3834 -0.5803
 9044TIP3    H148623   0.380   5.666  16.741  0.9492  1.2639 -1.0337
 9044TIP3    H248624   0.377   5.683  16.590 -0.2679 -0.3430 -1.2099
 9045TIP3   OH248625   5.501   4.204  15.437  0.6395  0.0644 -0.2697
 9045TIP3    H148626   5.460   4.167  15.359 -0.9360  0.1177  0.5200
 9045TIP3    H248627   5.496   4.299  15.424 -2.3567  0.1672  1.2282
 9046TIP3   OH248628   6.765   3.396   2.739  0.1771  0.2776 -0.6383
 9046TIP3    H148629   6.781   3.475   2.790 -0.3979 -0.2931  0.4498
 9046TIP3    H248630   6.850   3.374   2.701  0.8552  0.1589  0.9076
 9047TIP3   OH248631   1.446   6.494   1.089  0.9920 -0.2416  0.6346
 9047TIP3    H148632   1.507   6.561   1.121 -0.0002  0.1736  1.7080
 9047TIP3    H248633   1.499   6.439   1.032  2.0300  0.9669  0.3953
 9048TIP3   OH248634   0.750   1.166  16.985  0.2381  0.1797  0.1817
 9048TIP3    H148635   0.751   1.112  16.906  0.9190 -1.4552  1.2824
 9048TIP3    H248636   0.757   1.104  17.057  2.3604  1.7933  1.4468
 9049TIP3   OH248637   4.558   1.480   4.701 -0.4808  0.4229  0.2499
 9049TIP3    H148638   4.470   1.453   4.675 -0.5768 -0.4732  1.4774
 9049TIP3    H248639   4.591   1.527   4.625 -1.2181 -1.0926 -1.0531
 9050TIP3   OH248640   5.936   3.480  12.495  0.3376 -0.4174 -0.0351
 9050TIP3    H148641   5.993   3.486  12.571 -0.0147  0.2615  0.1808
 9050TIP3    H248642   5.982   3.528  12.426 -0.4264  1.0232  0.4272
 9051TIP3   OH248643   3.410   1.745   2.488 -1.0301  0.0333  0.0281
 9051TIP3    H148644   3.364   1.798   2.423  1.2639  2.1088  0.0333
 9051TIP3    H248645   3.349   1.739   2.562 -1.4774  2.3571 -0.1219
 9052TIP3   OH248646   1.752   1.946  12.563  0.3350 -0.0389 -0.9230
 9052TIP3    H148647   1.704   1.875  12.605  2.9938 -1.1582  0.3737
 9052TIP3    H248648   1.831   1.905  12.529  0.3845  1.7269 -3.0702
 9053TIP3   OH248649   3.257   1.341  13.903  0.1707  0.6408 -1.5659
 9053TIP3    H148650   3.188   1.275  13.910 -0.2323  1.1136 -1.0345
 9053TIP3    H248651   3.300   1.340  13.989  1.6251 -0.5075 -2.2741
 9054TIP3   OH248652   1.150   6.275  14.478  0.0212 -0.0034  0.2203
 9054TIP3    H148653   1.139   6.291  14.385  1.6312 -0.6868 -0.1129
 9054TIP3    H248654   1.087   6.206  14.499 -0.1489 -0.0426 -0.4220
 9055TIP3   OH248655   1.226   1.183  16.555  0.5083 -0.0811 -0.0970
 9055TIP3    H148656   1.157   1.119  16.571 -0.6357  1.3210  0.7794
 9055TIP3    H248657   1.214   1.208  16.464  0.8555 -0.9842 -0.3965
 9056TIP3   OH248658   6.503   5.722   5.148  0.0005 -0.2842 -0.1367
 9056TIP3    H148659   6.477   5.810   5.122 -2.9725 -0.7279  1.0918
 9056TIP3    H248660   6.542   5.733   5.234  0.1812 -0.0826 -0.2454
 9057TIP3   OH248661   1.376   1.488   2.317 -0.4208 -0.0338 -0.4281
 9057TIP3    H148662   1.377   1.464   2.225  1.4573  2.0689 -0.9930
 9057TIP3    H248663   1.283   1.503   2.337 -0.7223  0.5127 -2.2317
 9058TIP3   OH248664   0.150   4.919  13.530 -0.3232 -0.1449  0.2705
 9058TIP3    H148665   0.072   4.884  13.573  1.2020 -1.1138  2.3309
 9058TIP3    H248666   0.199   4.841  13.503  0.7543  0.4507  0.5001
 9059TIP3   OH248667   1.545   3.785  14.783 -0.4272  0.2461  0.5202
 9059TIP3    H148668   1.472   3.730  14.811 -0.0254 -1.2234 -1.2646
 9059TIP3    H248669   1.622   3.742  14.820  0.0464 -1.3411 -2.2178
 9060TIP3   OH248670   5.848   5.181   0.504 -0.5934 -0.1112  0.4748
 9060TIP3    H148671   5.889   5.149   0.585  1.2439  1.9998  0.4060
 9060TIP3    H248672   5.758   5.201   0.530 -0.0565  0.4130  1.9624
 9061TIP3   OH248673   4.688   5.815  11.806  0.1153  0.2201 -0.4210
 9061TIP3    H148674   4.664   5.772  11.724 -1.8732  2.0928 -0.8623
 9061TIP3    H248675   4.633   5.773  11.872  2.6217 -2.1855  0.2496
 9062TIP3   OH248676   2.381   2.147  15.818  0.0018 -0.0697  0.0342
 9062TIP3    H148677   2.437   2.215  15.780  3.5958 -1.6318  2.2424
 9062TIP3    H248678   2.320   2.194  15.874  1.5573  1.4918  0.4803
 9063TIP3   OH248679   1.639   5.968   4.088  0.2213  0.2115  0.3793
 9063TIP3    H148680   1.556   6.015   4.098  0.3293  0.5847 -0.4884
 9063TIP3    H248681   1.690   5.994   4.165  0.5894  2.1492 -0.5014
 9064TIP3   OH248682   2.971   5.610  17.073 -0.0799  0.6844 -0.3696
 9064TIP3    H148683   3.007   5.587  17.159  0.4048  1.5292 -0.3454
 9064TIP3    H248684   3.048   5.626  17.018 -0.3945  0.6646 -0.8190
 9065TIP3   OH248685   5.861   0.061  11.177  0.2186 -0.1580  0.1153
 9065TIP3    H148686   5.874   0.143  11.129  1.0315 -0.6217 -0.4750
 9065TIP3    H248687   5.948   0.039  11.210  0.4717 -2.0108 -1.7286
 9066TIP3   OH248688   5.258   3.799   4.793  0.9192  0.3162 -0.2175
 9066TIP3    H148689   5.189   3.835   4.850 -0.4055  0.2752 -1.7642
 9066TIP3    H248690   5.247   3.846   4.710  3.0823  0.6528 -0.3468
 9067TIP3   OH248691   4.561   2.052  11.325  0.6704 -0.1087  0.6060
 9067TIP3    H148692   4.587   2.112  11.395 -1.2154 -0.8076  1.9409
 9067TIP3    H248693   4.501   1.989  11.367 -0.5541 -0.5102 -1.6274
 9068TIP3   OH248694   0.754   2.310   4.261  0.1649  0.1907  0.2675
 9068TIP3    H148695   0.835   2.292   4.309  0.7767  0.8262 -0.5084
 9068TIP3    H248696   0.758   2.251   4.185 -0.0855  0.2486  0.2100
 9069TIP3   OH248697   1.666   3.659   2.277 -0.2126 -0.0328 -0.2293
 9069TIP3    H148698   1.581   3.643   2.318  1.0176 -0.1983  2.3712
 9069TIP3    H248699   1.730   3.639   2.346  2.0515 -2.0876 -2.8172
 9070TIP3   OH248700   4.989   2.840   5.213  0.7710 -0.0461  0.2574
 9070TIP3    H148701   5.058   2.888   5.260  0.4477 -1.0305  1.7748
 9070TIP3    H248702   4.930   2.908   5.181  1.5172  0.7009  0.4521
 9071TIP3   OH248703   4.760   2.313   0.754 -0.2679 -0.9701  0.1190
 9071TIP3    H148704   4.786   2.228   0.718  1.3701 -0.2928 -0.3100
 9071TIP3    H248705   4.694   2.346   0.693  0.6165 -1.0009 -0.8624
 9072TIP3   OH248706   3.537   5.985   0.569  0.8644 -0.1235 -0.1849
 9072TIP3    H148707   3.603   6.037   0.524  1.8506 -0.4641  0.8549
 9072TIP3    H248708   3.586   5.920   0.618 -0.2258 -0.2063  0.8214
 9073TIP3   OH248709   5.883   6.307   3.767 -0.5889  0.1514  0.2421
 9073TIP3    H148710   5.915   6.380   3.820 -1.3368 -0.8341  2.0639
 9073TIP3    H248711   5.789   6.322   3.760 -0.4522  0.4683 -1.1303
 9074TIP3   OH248712   5.072   4.648  16.865  0.0772  0.4874  0.1304
 9074TIP3    H148713   5.045   4.596  16.941 -0.7188  1.9731  0.8709
 9074TIP3    H248714   5.025   4.609  16.791 -0.4856  0.1369  0.6721
 9075TIP3   OH248715   4.422   6.084   4.333  0.5988  0.4812 -0.2200
 9075TIP3    H148716   4.428   6.156   4.270 -0.0868  1.5546  0.9106
 9075TIP3    H248717   4.513   6.062   4.353  0.8156 -0.0083 -1.7426
 9076TIP3   OH248718   2.853   1.300  11.407 -0.0165 -0.1699 -0.2291
 9076TIP3    H148719   2.853   1.369  11.341 -1.4714  0.4729  0.4104
 9076TIP3    H248720   2.886   1.223  11.362 -2.6889 -0.1916 -2.2392
 9077TIP3   OH248721   2.078   6.123  13.088 -0.6003  0.1038 -0.1892
 9077TIP3    H148722   2.093   6.164  13.174 -1.2616 -0.8759  0.4036
 9077TIP3    H248723   2.150   6.154  13.034  0.6459 -0.4011  1.1329
 9078TIP3   OH248724   1.539   2.607   0.561  0.3742 -0.1622 -0.6509
 9078TIP3    H148725   1.566   2.699   0.560 -1.1748  0.3461  1.1738
 9078TIP3    H248726   1.449   2.608   0.528 -0.7011 -0.5960  2.1017
 9079TIP3   OH248727   2.206   1.039  12.827  0.0507 -0.5966 -0.0439
 9079TIP3    H148728   2.242   1.061  12.741 -1.7688 -0.0918 -0.7111
 9079TIP3    H248729   2.282   1.034  12.885  1.3252 -1.1995 -1.7317
 9080TIP3   OH248730   3.203   1.801  14.059 -0.1252 -0.0565 -0.0951
 9080TIP3    H148731   3.289   1.762  14.069  0.9551  1.8409 -1.5949
 9080TIP3    H248732   3.157   1.743  13.997 -0.0868 -1.2696  0.9928
 9081TIP3   OH248733   1.871   1.996  10.889 -0.1297  0.8576 -0.4288
 9081TIP3    H148734   1.921   2.007  10.970 -0.2070 -0.0165 -0.2558
 9081TIP3    H248735   1.792   1.949  10.916  0.5036 -0.7256 -1.2266
 9082TIP3   OH248736   3.541   3.600   0.331  0.0664 -0.0140 -0.2824
 9082TIP3    H148737   3.541   3.598   0.426  0.2557  2.2356 -0.2037
 9082TIP3    H248738   3.460   3.555   0.306 -0.3513  0.0362  0.9518
 9083TIP3   OH248739   1.199   2.905   0.408 -0.3146 -0.5013 -0.6494
 9083TIP3    H148740   1.213   2.880   0.499 -1.4180 -0.5844 -0.4930
 9083TIP3    H248741   1.213   2.824   0.358  1.3550 -0.2179 -0.6728
 9084TIP3   OH248742   2.023   1.091   2.789  0.4420 -1.0630 -0.2713
 9084TIP3    H148743   2.045   1.001   2.764 -0.3263 -1.0637 -0.9236
 9084TIP3    H248744   2.087   1.145   2.743 -0.3168 -1.1357 -1.4064
 9085TIP3   OH248745   1.874   0.345   4.548  0.3462 -0.1947 -0.0131
 9085TIP3    H148746   1.876   0.419   4.608  1.3007  0.3969 -0.7528
 9085TIP3    H248747   1.793   0.299   4.569 -1.0842  1.9723 -0.6223
 9086TIP3   OH248748   2.106   0.273   4.981  0.0535 -0.3994  0.2559
 9086TIP3    H148749   2.149   0.342   5.032 -1.1495 -0.3637  1.2282
 9086TIP3    H248750   2.179   0.222   4.945  0.9370  0.4065  0.8485
 9087TIP3   OH248751   1.081   5.347  15.861  0.2704  0.4584 -0.4952
 9087TIP3    H148752   1.107   5.436  15.839  3.3792 -0.6844 -1.7501
 9087TIP3    H248753   1.007   5.329  15.802  1.5780  1.1822 -2.4294
 9088TIP3   OH248754   0.511   6.209  16.788  0.2269 -0.2628 -0.1132
 9088TIP3    H148755   0.436   6.263  16.813 -0.7267 -1.5846 -0.0139
 9088TIP3    H248756   0.583   6.241  16.841  0.4537  2.8909 -2.2373
 9089TIP3   OH248757   3.450   1.644   5.433 -0.3279 -0.2712  0.0007
 9089TIP3    H148758   3.535   1.684   5.451 -0.3337 -0.4112  0.3407
 9089TIP3    H248759   3.465   1.591   5.355 -0.0458 -0.4662  0.1840
 9090TIP3   OH248760   1.508   5.162  15.500  0.2917 -0.6844 -0.3486
 9090TIP3    H148761   1.558   5.145  15.420  1.2338 -0.1122  0.1136
 9090TIP3    H248762   1.460   5.243  15.482  1.9302  0.4763  0.3047
 9091TIP3   OH248763   2.253   4.363   6.257 -0.6121  0.6098 -0.3221
 9091TIP3    H148764   2.328   4.347   6.315 -0.3630  0.9936 -0.5321
 9091TIP3    H248765   2.189   4.296   6.281  1.1464 -1.9315 -2.4601
 9092TIP3   OH248766   4.850   5.377   0.303  0.7152  0.4339 -0.2151
 9092TIP3    H148767   4.904   5.434   0.359  1.5916 -0.2838 -0.3175
 9092TIP3    H248768   4.808   5.437   0.242 -0.2166  1.2275  1.1667
 9093TIP3   OH248769   2.935   1.624   3.922  0.2945 -0.8455 -0.2193
 9093TIP3    H148770   2.896   1.688   3.862  1.5421 -0.6718 -0.8675
 9093TIP3    H248771   2.899   1.540   3.895 -0.1370 -0.6096 -0.3828
 9094TIP3   OH248772   6.679   1.072   5.651 -0.1641  0.1313 -0.1753
 9094TIP3    H148773   6.721   0.997   5.610 -1.8150 -1.6928  1.3350
 9094TIP3    H248774   6.608   1.096   5.591 -0.5472 -0.4718  0.0287
 9095TIP3   OH248775   2.699   5.479  17.026  0.4513  0.2855  0.2138
 9095TIP3    H148776   2.765   5.548  17.013  1.6871 -0.6081  1.5086
 9095TIP3    H248777   2.686   5.441  16.940  0.4309  1.5503 -0.3470
 9096TIP3   OH248778   2.138   2.678  13.807 -0.2776  0.0143  0.7321
 9096TIP3    H148779   2.085   2.758  13.804  1.7557  1.3758  0.1078
 9096TIP3    H248780   2.176   2.678  13.894 -0.8489 -0.6781  0.9881
 9097TIP3   OH248781   1.338   3.159  12.586 -0.1910 -0.3801  0.5167
 9097TIP3    H148782   1.370   3.249  12.597 -1.8906  0.4920 -1.2208
 9097TIP3    H248783   1.397   3.120  12.522 -1.2974  0.5376 -1.0950
 9098TIP3   OH248784   2.335   0.040  13.366  0.0148  0.1971  0.1387
 9098TIP3    H148785   2.390   0.061  13.441 -0.4785 -2.2900  1.2598
 9098TIP3    H248786   2.387  -0.021  13.314 -0.9059 -0.6823  0.2196
 9099TIP3   OH248787   0.850   4.133  14.152 -1.0303 -0.6075  0.0611
 9099TIP3    H148788   0.864   4.045  14.184  0.1457 -1.1273 -1.8188
 9099TIP3    H248789   0.789   4.123  14.078  1.3677 -0.2264 -2.0259
 9100TIP3   OH248790   6.572   0.477  11.526  0.2434  0.6504  0.1739
 9100TIP3    H148791   6.547   0.424  11.602  0.2512 -3.1412 -2.3213
 9100TIP3    H248792   6.493   0.528  11.506  0.6345  2.6594  3.3671
 9101TIP3   OH248793   1.209   2.000  12.509 -0.1772 -0.6562 -0.2224
 9101TIP3    H148794   1.294   1.995  12.466 -0.2644 -1.3312 -0.3327
 9101TIP3    H248795   1.206   1.921  12.564 -1.9243 -2.2350 -2.4520
 9102TIP3   OH248796   0.616   3.706   1.185  0.1908  0.2247  0.1663
 9102TIP3    H148797   0.640   3.626   1.232 -0.5972  1.6034  3.0455
 9102TIP3    H248798   0.565   3.675   1.110  2.8852 -2.1571 -0.7616
 9103TIP3   OH248799   6.503   3.197  13.995 -0.5303 -0.2419 -0.0912
 9103TIP3    H148800   6.534   3.175  13.907 -0.1336  0.0366 -0.0234
 9103TIP3    H248801   6.526   3.289  14.007 -0.4853 -0.3066  0.3447
 9104TIP3   OH248802   2.983   0.902   4.750 -0.5359  0.3881  0.4923
 9104TIP3    H148803   2.892   0.903   4.719 -0.1576  1.1197 -0.6310
 9104TIP3    H248804   3.012   0.993   4.742  0.2618  0.1765  0.9623
 9105TIP3   OH248805   0.361   3.084  14.074  0.5064  0.1004 -0.0878
 9105TIP3    H148806   0.272   3.050  14.070 -0.1845  2.0593 -1.4861
 9105TIP3    H248807   0.353   3.169  14.116  1.8171  0.0404  0.3252
 9106TIP3   OH248808   1.706   3.154   5.214 -0.1618  0.2863 -0.2480
 9106TIP3    H148809   1.768   3.081   5.218  1.0022  1.2752 -0.2844
 9106TIP3    H248810   1.737   3.216   5.280 -1.7878  0.2682  0.5740
 9107TIP3   OH248811   4.243   3.026   2.671 -0.4451 -0.3902 -0.6566
 9107TIP3    H148812   4.305   2.958   2.697 -0.2516  0.0724  0.0798
 9107TIP3    H248813   4.205   3.057   2.753 -0.3758  0.5508 -0.9841
 9108TIP3   OH248814   6.369   6.208   1.070  0.5469 -0.3836  0.2504
 9108TIP3    H148815   6.461   6.224   1.048  0.7345 -0.3826  1.0087
 9108TIP3    H248816   6.339   6.145   1.004  0.9137  0.0902 -0.3729
 9109TIP3   OH248817   2.172   2.475  11.844 -0.6586 -0.8266  0.2946
 9109TIP3    H148818   2.243   2.442  11.899 -1.5579 -3.8324 -0.2517
 9109TIP3    H248819   2.092   2.444  11.886 -1.3935 -2.3967 -2.1237
 9110TIP3   OH248820   3.081   1.838   4.180 -0.2272 -0.0070 -0.2522
 9110TIP3    H148821   3.035   1.824   4.262 -0.0219 -0.0400 -0.1437
 9110TIP3    H248822   3.163   1.789   4.189  0.6152  1.4652  0.2425
 9111TIP3   OH248823   5.946   6.545  10.562  0.8507  0.4523  0.2399
 9111TIP3    H148824   6.028   6.500  10.581  1.0005  0.1996 -0.9706
 9111TIP3    H248825   5.894   6.480  10.515  0.1763  0.7992  0.5087
 9112TIP3   OH248826   3.562   1.483  13.246 -0.5361  0.3029 -0.0388
 9112TIP3    H148827   3.626   1.515  13.309  0.4160 -1.0256 -0.3005
 9112TIP3    H248828   3.501   1.431  13.299  0.3653 -0.9618 -0.1993
 9113TIP3   OH248829   1.618   2.513   2.015  0.0382 -0.5088  0.5148
 9113TIP3    H148830   1.663   2.441   1.970 -0.7781 -1.0069  0.4888
 9113TIP3    H248831   1.549   2.470   2.066  0.1850  0.1654  1.2938
 9114TIP3   OH248832   6.787   2.966  13.438 -0.0027 -0.2345  0.0452
 9114TIP3    H148833   6.706   2.919  13.420  0.5915 -2.1867  2.2215
 9114TIP3    H248834   6.791   3.034  13.370 -4.0773  0.7595  0.6584
 9115TIP3   OH248835   1.182   3.150   2.471 -0.6981  0.0677 -0.0145
 9115TIP3    H148836   1.103   3.114   2.432  0.4924 -0.6474 -1.8685
 9115TIP3    H248837   1.182   3.242   2.445 -1.4200  0.3049  0.8290
 9116TIP3   OH248838   3.062   4.481  15.819 -0.1784  0.5593  0.8707
 9116TIP3    H148839   3.072   4.417  15.889  0.7477  1.6086  1.7127
 9116TIP3    H248840   3.144   4.476  15.770 -1.0075 -0.5153 -0.4602
 9117TIP3   OH248841   6.251   0.011   3.316 -0.2509  0.0305  0.8538
 9117TIP3    H148842   6.258  -0.079   3.347  1.0012 -1.0291 -2.2137
 9117TIP3    H248843   6.337   0.050   3.336  0.6605 -0.7402 -1.3667
 9118TIP3   OH248844   5.877   1.377  13.407 -0.4246  0.7091 -0.1249
 9118TIP3    H148845   5.912   1.288  13.418  0.6034  1.1300 -0.0379
 9118TIP3    H248846   5.844   1.379  13.317  1.7221  1.0037 -0.9253
 9119TIP3   OH248847   6.501   1.577   4.590  0.2593  0.2702  0.8641
 9119TIP3    H148848   6.550   1.660   4.592  0.6111  0.0776  0.2679
 9119TIP3    H248849   6.409   1.603   4.587  0.4161  0.6570 -0.9376
 9120TIP3   OH248850   1.718   0.534   0.593 -0.9339  0.2109  0.5858
 9120TIP3    H148851   1.811   0.555   0.601 -0.6354 -0.4754 -0.9170
 9120TIP3    H248852   1.716   0.438   0.590 -1.5338  0.2781 -1.1962
 9121TIP3   OH248853   5.586   5.776  12.023 -0.1609  0.3952 -0.0022
 9121TIP3    H148854   5.523   5.824  12.078 -0.9536  0.1991 -0.7217
 9121TIP3    H248855   5.540   5.695  12.000  0.1455  0.4840 -0.9615
 9122TIP3   OH248856   4.296   3.790  13.833 -0.0052 -0.1144  0.4662
 9122TIP3    H148857   4.261   3.866  13.788  2.1615 -0.0617 -1.2067
 9122TIP3    H248858   4.342   3.825  13.909  0.2154  0.1713  0.1985
 9123TIP3   OH248859   4.700   2.467   0.097 -0.2476  0.5694  0.3263
 9123TIP3    H148860   4.774   2.482   0.155  1.1315 -0.6735 -1.0578
 9123TIP3    H248861   4.724   2.511   0.015 -0.6536 -0.5810 -0.4171
 9124TIP3   OH248862   0.955   3.415  10.265 -0.1220  0.0560 -0.3470
 9124TIP3    H148863   1.035   3.422  10.211  0.5982  0.3985  0.7492
 9124TIP3    H248864   0.980   3.356  10.336 -0.1412  1.9509  1.2639
 9125TIP3   OH248865   0.582   5.012  15.180  0.2922 -0.0499  0.2204
 9125TIP3    H148866   0.498   5.036  15.142  0.5350  0.0453 -0.2575
 9125TIP3    H248867   0.595   4.920  15.156  0.1081 -0.2046  0.6949
 9126TIP3   OH248868   2.797   4.207   1.937 -0.3987  0.4730 -0.4026
 9126TIP3    H148869   2.794   4.289   1.888  0.2191  1.3552  1.0146
 9126TIP3    H248870   2.887   4.203   1.971 -1.0202  0.2127  1.2315
 9127TIP3   OH248871   1.097   6.217   3.313  0.2799 -0.3926 -0.1611
 9127TIP3    H148872   1.126   6.174   3.233 -0.5702  0.7278 -1.0973
 9127TIP3    H248873   1.132   6.306   3.306  1.1540 -0.6206  1.2556
 9128TIP3   OH248874   3.568   6.255  13.636  0.5022  0.0506  0.1713
 9128TIP3    H148875   3.583   6.275  13.729 -2.4469  2.9662  0.1167
 9128TIP3    H248876   3.583   6.337  13.591 -0.1499 -0.8342 -1.6878
 9129TIP3   OH248877   6.726   1.716   4.778  0.2392  0.8498  0.0705
 9129TIP3    H148878   6.765   1.768   4.708  1.4492  0.1772  0.2345
 9129TIP3    H248879   6.656   1.771   4.813  1.4431  2.3375  0.1857
 9130TIP3   OH248880   4.976   0.179   1.526  0.4351  0.1619  0.1006
 9130TIP3    H148881   4.950   0.268   1.552  0.5438  0.5514 -1.0869
 9130TIP3    H248882   5.072   0.182   1.524  0.4125  0.3780 -1.1279
 9131TIP3   OH248883   1.076   4.610  15.688 -0.2487  0.1610 -0.1407
 9131TIP3    H148884   1.078   4.528  15.639  0.7040 -0.8538  1.5316
 9131TIP3    H248885   1.068   4.678  15.621  0.1927 -1.2193 -1.6304
 9132TIP3   OH248886   2.745   2.230  11.633 -0.2564 -0.0992 -0.0141
 9132TIP3    H148887   2.778   2.270  11.713  0.0378  0.3121 -0.3392
 9132TIP3    H248888   2.696   2.154  11.662  1.3497 -0.9741  0.4546
 9133TIP3   OH248889   1.107   0.767   1.747 -0.4029  0.6697 -0.3248
 9133TIP3    H148890   1.053   0.846   1.742 -0.1302  0.7343 -2.7568
 9133TIP3    H248891   1.074   0.711   1.676  0.1743 -0.9325  0.6289
 9134TIP3   OH248892   5.407   0.121   6.277  0.7295  0.1650  0.3946
 9134TIP3    H148893   5.467   0.047   6.278  1.4114  0.7254  1.2012
 9134TIP3    H248894   5.384   0.135   6.369 -0.4479  0.1134  0.1178
 9135TIP3   OH248895   1.777   6.202   0.163 -0.2656 -0.2932  0.3798
 9135TIP3    H148896   1.778   6.294   0.140  2.0192 -0.4808 -0.3487
 9135TIP3    H248897   1.721   6.161   0.097 -0.3312  0.3848  0.0127
 9136TIP3   OH248898   3.331   3.244  16.692  0.2230  0.2128  0.9242
 9136TIP3    H148899   3.398   3.230  16.759  2.0783  0.5638 -0.8074
 9136TIP3    H248900   3.375   3.298  16.626 -0.9237 -1.8568 -1.5800
 9137TIP3   OH248901   0.838   0.421   2.857 -0.0909  0.1021 -0.7864
 9137TIP3    H148902   0.828   0.327   2.842 -0.1390  0.2872 -1.9850
 9137TIP3    H248903   0.756   0.447   2.898  0.3235 -0.5557  0.4683
 9138TIP3   OH248904   1.451   1.746   4.896 -0.0467 -0.1854  0.5630
 9138TIP3    H148905   1.487   1.657   4.897  0.0510 -0.1631 -0.4737
 9138TIP3    H248906   1.387   1.747   4.967  1.2413 -0.5415  1.7533
 9139TIP3   OH248907   6.237   1.616  15.490 -0.2683  0.8831 -0.1939
 9139TIP3    H148908   6.166   1.662  15.534  0.3836  1.2936  0.4321
 9139TIP3    H248909   6.198   1.534  15.461 -1.1362  1.3388 -0.3176
 9140TIP3   OH248910   3.859   4.413   2.596 -0.2137  0.9460  0.1111
 9140TIP3    H148911   3.934   4.453   2.638  0.7686 -0.3172 -0.4118
 9140TIP3    H248912   3.808   4.376   2.669  2.1438 -2.3692  0.2039
 9141TIP3   OH248913   4.891   0.365  16.141 -0.5204 -0.0700  0.0023
 9141TIP3    H148914   4.951   0.434  16.169  0.3627 -0.6185 -0.5163
 9141TIP3    H248915   4.809   0.384  16.188 -0.6858  2.0441 -1.0581
 9142TIP3   OH248916   4.148   1.350   0.126  0.0177 -0.6017 -0.2875
 9142TIP3    H148917   4.066   1.388   0.157 -0.8195 -1.4347 -1.4843
 9142TIP3    H248918   4.205   1.353   0.203 -1.3874 -0.7668  0.7828
 9143TIP3   OH248919   6.154   5.940   4.209 -0.0539  0.1725 -0.4867
 9143TIP3    H148920   6.150   6.024   4.256 -0.6013 -0.2537  0.2341
 9143TIP3    H248921   6.115   5.877   4.269  3.2764 -1.2456  0.3292
 9144TIP3   OH248922   2.390   2.841  16.975 -0.0376  0.5251 -0.3958
 9144TIP3    H148923   2.403   2.840  17.070  1.5062  0.4603 -0.5998
 9144TIP3    H248924   2.304   2.799  16.962  0.5699 -1.1423  0.8462
 9145TIP3   OH248925   2.852   1.012  11.856  0.4488  0.0869  0.0627
 9145TIP3    H148926   2.869   1.001  11.762 -0.8964  0.6923 -0.2690
 9145TIP3    H248927   2.761   0.984  11.867  1.0711 -1.4101  1.4661
 9146TIP3   OH248928   0.751   4.095  16.495  0.1911 -0.3616 -0.1216
 9146TIP3    H148929   0.844   4.084  16.478  0.2729 -0.7099  0.5356
 9146TIP3    H248930   0.736   4.050  16.578 -0.6715 -0.7917 -0.5016
 9147TIP3   OH248931   2.322   2.952   3.876 -0.0668 -0.4157 -0.1560
 9147TIP3    H148932   2.271   3.003   3.938 -0.9360 -2.3037  0.6980
 9147TIP3    H248933   2.412   2.984   3.887 -0.7549  1.6813 -0.4307
 9148TIP3   OH248934   4.172   2.104   2.097 -0.5620 -0.0446 -0.8341
 9148TIP3    H148935   4.242   2.125   2.035  0.0154  0.1049 -0.1304
 9148TIP3    H248936   4.155   2.186   2.144 -0.4459 -0.3591 -0.2388
 9149TIP3   OH248937   5.302   3.703   5.828 -0.4261  0.0620  0.3090
 9149TIP3    H148938   5.344   3.651   5.897  0.0346  0.0208  0.0028
 9149TIP3    H248939   5.276   3.784   5.871  0.0849  0.1395  0.4760
 9150TIP3   OH248940   2.072   3.088  12.483  0.1851  0.5070 -0.0880
 9150TIP3    H148941   2.070   3.037  12.402 -0.5850 -0.3967  0.4914
 9150TIP3    H248942   2.049   3.177  12.456 -0.3039  0.1609 -0.8330
 9151TIP3   OH248943   6.298   6.440   2.444  0.4196  0.2846  0.6881
 9151TIP3    H148944   6.272   6.528   2.470  1.8366  1.0477 -0.4707
 9151TIP3    H248945   6.286   6.388   2.524  0.2607  1.6548  1.5799
 9152TIP3   OH248946   3.469   1.826  13.527  0.5327 -0.2066  0.0832
 9152TIP3    H148947   3.432   1.769  13.593 -3.5248  0.6936 -1.2393
 9152TIP3    H248948   3.399   1.837  13.462  3.1464  1.6732 -2.6074
 9153TIP3   OH248949   2.963   4.799   0.819 -0.0949  0.2670 -0.3346
 9153TIP3    H148950   2.961   4.737   0.746 -0.5973  1.2307 -1.1527
 9153TIP3    H248951   3.032   4.861   0.797 -0.2272  0.5452  0.0102
 9154TIP3   OH248952   1.192   2.921  13.364 -0.0942 -0.4063 -0.3893
 9154TIP3    H148953   1.121   2.905  13.426  0.7485 -0.7382  0.5057
 9154TIP3    H248954   1.254   2.849  13.379  0.9185  0.4441 -0.4506
 9155TIP3   OH248955   2.754   1.594   1.384  0.4758 -0.0031 -0.1975
 9155TIP3    H148956   2.697   1.595   1.308  2.2825 -1.8942 -1.6189
 9155TIP3    H248957   2.827   1.538   1.359  2.2185  1.1337  2.1199
 9156TIP3   OH248958   2.722   2.565  11.603 -0.2565  0.2336 -0.8462
 9156TIP3    H148959   2.767   2.566  11.519 -0.7093 -0.5576 -1.1067
 9156TIP3    H248960   2.786   2.528  11.664 -0.1835  0.1085 -0.9977
 9157TIP3   OH248961   3.118   5.115   3.727 -0.2379 -0.0182  0.1742
 9157TIP3    H148962   3.046   5.146   3.673 -1.3466 -1.8040  0.5813
 9157TIP3    H248963   3.110   5.164   3.809  0.3266  1.3376 -0.5658
 9158TIP3   OH248964   6.782   5.527   1.221  0.0384  0.2215  0.0889
 9158TIP3    H148965   6.753   5.436   1.227 -0.1150  0.2046 -0.9356
 9158TIP3    H248966   6.796   5.553   1.312 -1.5096 -0.3206  0.5063
 9159TIP3   OH248967   4.072   4.295   0.729  0.2792  0.3175 -0.4705
 9159TIP3    H148968   4.127   4.299   0.651  1.9264 -1.8222  0.5029
 9159TIP3    H248969   3.994   4.246   0.701 -0.0340  1.2259 -1.2266
 9160TIP3   OH248970   0.941   5.028   6.435  0.0917  0.4643 -0.2699
 9160TIP3    H148971   1.006   5.078   6.485 -0.5998  0.1256  1.0005
 9160TIP3    H248972   0.975   4.939   6.434 -0.3376  0.2922  0.3729
 9161TIP3   OH248973   6.471   4.012  14.847 -0.2751 -0.4238 -0.4251
 9161TIP3    H148974   6.388   3.966  14.832 -0.7621  0.4786 -0.5258
 9161TIP3    H248975   6.508   3.970  14.925 -0.8124 -0.8374 -0.3855
 9162TIP3   OH248976   5.654   0.525   0.396 -0.7012  0.0479  0.0993
 9162TIP3    H148977   5.718   0.509   0.466 -0.8450  0.0268  0.2266
 9162TIP3    H248978   5.600   0.447   0.395  0.5728 -0.8352 -1.4147
 9163TIP3   OH248979   2.594   0.518   2.842  0.4828  0.1663  0.9530
 9163TIP3    H148980   2.542   0.484   2.769 -1.1079  1.0832  1.6320
 9163TIP3    H248981   2.578   0.456   2.914  1.8772 -0.6188  0.6000
 9164TIP3   OH248982   4.951   6.468  10.561  0.4745 -0.0417  0.2646
 9164TIP3    H148983   4.856   6.464  10.551  0.3754  2.3705  0.0163
 9164TIP3    H248984   4.981   6.383  10.529 -1.5528 -0.6745 -0.0750
 9165TIP3   OH248985   3.664   0.608   4.378 -0.1103 -1.1155  0.4957
 9165TIP3    H148986   3.733   0.645   4.323  0.0867  1.3367  2.3136
 9165TIP3    H248987   3.707   0.589   4.461 -1.7418  1.1246  1.8976
 9166TIP3   OH248988   6.800   6.116   4.318  1.0473  0.6026 -0.3919
 9166TIP3    H148989   6.717   6.164   4.315 -1.1697 -3.1234 -1.2011
 9166TIP3    H248990   6.798   6.060   4.240  3.6603 -0.6253  0.3712
 9167TIP3   OH248991   3.569   0.908  16.123  0.5920 -0.0684 -0.0315
 9167TIP3    H148992   3.517   0.951  16.054  0.6585 -0.2870 -0.2194
 9167TIP3    H248993   3.525   0.825  16.139  0.0204  0.4028  0.8845
 9168TIP3   OH248994   0.300   0.617  13.020  0.2025  0.0354 -0.0139
 9168TIP3    H148995   0.280   0.676  12.947  2.7964 -0.3946 -1.1308
 9168TIP3    H248996   0.362   0.665  13.074  0.2278 -0.6100  0.5426
 9169TIP3   OH248997   1.331   3.238   3.239 -0.8194 -0.3323  0.1034
 9169TIP3    H148998   1.418   3.218   3.205 -1.2922  0.8877 -1.8806
 9169TIP3    H248999   1.314   3.169   3.303  1.8519 -0.2257  0.9854
 9170TIP3   OH249000   0.067   3.535  17.040  0.5162  0.1306  0.2162
 9170TIP3    H149001   0.150   3.500  17.006  0.2848 -1.7098  1.5060
 9170TIP3    H249002   0.000   3.499  16.982  0.4059 -0.3642  0.6492
 9171TIP3   OH249003   1.604   6.526   2.777 -0.4475 -0.0140 -0.2212
 9171TIP3    H149004   1.530   6.528   2.838 -0.1458 -1.0723  0.1848
 9171TIP3    H249005   1.569   6.484   2.698 -0.6184  0.6224 -0.4850
 9172TIP3   OH249006   1.705   2.033   3.707 -0.2269 -0.1650 -0.1547
 9172TIP3    H149007   1.610   2.034   3.719 -0.1606 -1.8483  0.6504
 9172TIP3    H249008   1.722   2.102   3.643 -1.7096  1.8739  1.5859
 9173TIP3   OH249009   3.402   3.427   1.325 -0.2048  0.3145 -0.5221
 9173TIP3    H149010   3.456   3.436   1.403 -1.5030 -3.5226  0.9186
 9173TIP3    H249011   3.319   3.469   1.347  0.4431  1.8556 -0.9565
 9174TIP3   OH249012   3.977   1.898  12.331  0.2493  0.4838 -0.2032
 9174TIP3    H149013   4.026   1.874  12.410  0.5126  0.4495 -0.3747
 9174TIP3    H249014   3.999   1.829  12.268 -0.6189  0.0515 -0.0391
 9175TIP3   OH249015   0.710   5.751  13.513 -0.1787  0.0023 -0.4717
 9175TIP3    H149016   0.631   5.764  13.566  1.1518 -0.7700  1.7750
 9175TIP3    H249017   0.695   5.668  13.467 -1.2557  0.5686 -1.1624
 9176TIP3   OH249018   5.678   2.030  13.047 -0.1084  0.4506  0.0596
 9176TIP3    H149019   5.632   1.946  13.051 -0.2625  0.4606 -1.2600
 9176TIP3    H249020   5.610   2.095  13.032  0.0678  0.7579  0.5722
 9177TIP3   OH249021   3.451   1.379  15.396  0.3221 -0.3657  0.5594
 9177TIP3    H149022   3.399   1.423  15.329 -0.9880 -0.7533  1.3091
 9177TIP3    H249023   3.473   1.294  15.359 -0.1755 -0.4736  0.5202
 9178TIP3   OH249024   4.712   0.242   0.513  0.2770  0.7074 -0.1292
 9178TIP3    H149025   4.754   0.182   0.452 -0.1840 -0.0086  0.2506
 9178TIP3    H249026   4.698   0.322   0.462  2.3629  1.0853 -0.1786
 9179TIP3   OH249027   1.869   5.028   1.913  0.4277  0.4780  0.8103
 9179TIP3    H149028   1.925   4.999   1.842  0.9643  1.4042  0.8495
 9179TIP3    H249029   1.850   5.119   1.893 -0.0837  0.5103  1.4301
 9180TIP3   OH249030   6.076   6.513  13.221  0.1587 -0.7502 -0.6300
 9180TIP3    H149031   6.113   6.501  13.134  1.0857 -1.1168 -0.1899
 9180TIP3    H249032   6.127   6.454  13.277 -0.0892 -0.1409  0.2425
 9181TIP3   OH249033   4.690   5.034   1.876  0.2909 -0.0513  0.1755
 9181TIP3    H149034   4.678   4.988   1.793 -0.4190 -0.1240  0.3159
 9181TIP3    H249035   4.737   4.971   1.932 -0.6736 -0.6014  0.3664
 9182TIP3   OH249036   6.103   5.108   4.215 -0.0347 -0.2559  0.4309
 9182TIP3    H149037   6.177   5.048   4.227  2.2346  2.5333  0.9505
 9182TIP3    H249038   6.067   5.119   4.303  0.7888  0.6363  0.6675
 9183TIP3   OH249039   4.233   0.267  15.751 -0.1145 -0.5201 -0.5115
 9183TIP3    H149040   4.184   0.344  15.722 -0.7875 -0.5509  0.5287
 9183TIP3    H249041   4.256   0.221  15.670 -0.1447  0.5050 -1.1005
 9184TIP3   OH249042   3.324   6.450  14.510 -0.5872  0.9735  0.6108
 9184TIP3    H149043   3.397   6.443  14.448 -0.9604  2.6614 -0.0656
 9184TIP3    H249044   3.275   6.527  14.480 -3.2361 -0.7245  0.4118
 9185TIP3   OH249045   5.778   1.041  13.148 -0.0838  0.0898  0.2566
 9185TIP3    H149046   5.704   1.067  13.092 -0.4148  1.0297  1.1257
 9185TIP3    H249047   5.772   0.945  13.152  0.7381 -0.1112 -2.3977
 9186TIP3   OH249048   2.790   5.802  13.821  0.0594  0.6575  0.0779
 9186TIP3    H149049   2.828   5.829  13.737  0.2757 -1.1542 -0.4139
 9186TIP3    H249050   2.765   5.711  13.809 -3.8183  1.5425  0.6374
 9187TIP3   OH249051   2.402   0.988   3.036 -0.5074 -0.2084  0.5709
 9187TIP3    H149052   2.346   0.912   3.045 -1.2154 -0.0600 -1.9906
 9187TIP3    H249053   2.463   0.965   2.966 -0.3473  1.3236  0.1735
 9188TIP3   OH249054   2.916   5.643   3.378 -0.0156 -0.6733  0.0669
 9188TIP3    H149055   2.831   5.685   3.389 -0.4885 -1.9461  1.4888
 9188TIP3    H249056   2.971   5.710   3.338 -1.9167 -0.1102 -1.6936
 9189TIP3   OH249057   1.530   5.735  12.128  0.1667 -0.1958 -0.4292
 9189TIP3    H149058   1.585   5.791  12.073  0.3326  0.0880  0.0279
 9189TIP3    H249059   1.561   5.749  12.217 -1.3439  0.7800 -0.0329
 9190TIP3   OH249060   1.499   6.179   3.411 -0.0634  0.0366  0.1568
 9190TIP3    H149061   1.564   6.108   3.410 -0.4458 -0.3153 -0.0441
 9190TIP3    H249062   1.416   6.134   3.426 -0.5974  0.2090 -2.2138
 9191TIP3   OH249063   0.393   5.526   1.372  0.6389  0.2868  0.5729
 9191TIP3    H149064   0.359   5.569   1.294  1.1895  0.2121  0.2917
 9191TIP3    H249065   0.349   5.570   1.445 -1.4117 -1.0318  0.1504
 9192TIP3   OH249066   2.733   3.137   2.840  0.3096 -0.2268 -0.1167
 9192TIP3    H149067   2.654   3.124   2.892  0.6309  0.8309  0.6319
 9192TIP3    H249068   2.737   3.060   2.783 -1.6643  0.0700 -0.6914
 9193TIP3   OH249069   0.911   1.223   3.740  0.0860 -0.0817  0.0089
 9193TIP3    H149070   0.872   1.267   3.664 -1.3860  1.0006  1.3510
 9193TIP3    H249071   0.872   1.136   3.740  0.0424 -0.0645 -0.4191
 9194TIP3   OH249072   0.727   2.151   1.087 -0.5644 -0.6420 -0.3654
 9194TIP3    H149073   0.672   2.124   1.161  0.1223  0.3680  0.5333
 9194TIP3    H249074   0.779   2.223   1.122  0.7904 -1.0988 -1.4272
 9195TIP3   OH249075   1.992   1.782   6.108  0.5266 -0.0971 -0.2823
 9195TIP3    H149076   1.941   1.702   6.125 -0.6922  0.7928  0.3714
 9195TIP3    H249077   1.979   1.835   6.187  0.1482  1.3535 -1.3014
 9196TIP3   OH249078   1.255   6.306   5.935  0.0070 -0.2259  0.1514
 9196TIP3    H149079   1.254   6.357   5.854 -1.0199  0.8936  0.8593
 9196TIP3    H249080   1.167   6.269   5.941  0.1330 -0.4472  0.6805
 9197TIP3   OH249081   3.312   4.430  15.732  0.1391  0.0592 -0.3402
 9197TIP3    H149082   3.389   4.422  15.789 -0.0309  1.5349  0.1055
 9197TIP3    H249083   3.327   4.364  15.664  3.1796  2.1696 -1.8305
 9198TIP3   OH249084   5.822   0.190   3.176 -0.3170 -0.1041 -0.3107
 9198TIP3    H149085   5.790   0.214   3.089 -0.2187  1.4414  0.0538
 9198TIP3    H249086   5.792   0.100   3.189  0.4723 -0.6979 -2.3159
 9199TIP3   OH249087   3.323   3.384   6.456 -0.0044 -0.5525 -0.5052
 9199TIP3    H149088   3.230   3.371   6.475  0.3010 -1.6384  0.3422
 9199TIP3    H249089   3.335   3.348   6.369  0.0870 -2.6492  0.3510
 9200TIP3   OH249090   1.716   3.006  14.513  0.0128 -0.1306  0.4908
 9200TIP3    H149091   1.728   2.915  14.537  0.6318  0.0715  0.9698
 9200TIP3    H249092   1.633   3.008  14.466 -0.1270 -0.8959  0.7009
 9201TIP3   OH249093   0.591   4.065  15.459  0.4623 -0.1528  0.2043
 9201TIP3    H149094   0.626   4.052  15.371  0.7316 -0.1660  0.3105
 9201TIP3    H249095   0.501   4.033  15.455  0.4792 -0.1654 -0.0622
 9202TIP3   OH249096   5.372   4.613   1.706 -0.3164 -0.2535  0.0674
 9202TIP3    H149097   5.294   4.592   1.757 -1.2630  0.4708 -1.0369
 9202TIP3    H249098   5.400   4.530   1.668 -1.0522 -0.3824 -0.2031
 9203TIP3   OH249099   4.053   6.060  13.043  0.1055  0.0711  0.7597
 9203TIP3    H149100   4.149   6.057  13.044  0.0992  0.0599  1.4497
 9203TIP3    H249101   4.033   6.145  13.004  0.3929 -0.1691  0.0812
 9204TIP3   OH249102   0.766   0.694  15.519  0.6882  0.3151 -0.8375
 9204TIP3    H149103   0.804   0.617  15.475 -0.5331 -1.8749  1.7887
 9204TIP3    H249104   0.808   0.694  15.605 -1.2021  1.0891  0.1012
 9205TIP3   OH249105   3.318   6.469   5.726 -0.0200 -0.0749  0.1218
 9205TIP3    H149106   3.357   6.511   5.649  0.3821  1.0560  0.9263
 9205TIP3    H249107   3.297   6.380   5.697 -1.3194  0.8067 -1.7660
 9206TIP3   OH249108   5.617   0.706   2.960  0.0887 -0.2156  0.0866
 9206TIP3    H149109   5.607   0.641   2.889  0.5579  0.7766 -0.9104
 9206TIP3    H249110   5.566   0.781   2.930  2.3653  1.1817 -0.4264
 9207TIP3   OH249111   2.248   1.269   4.709  0.5240  0.0773  0.1994
 9207TIP3    H149112   2.317   1.333   4.729  2.4116 -1.6402 -0.6332
 9207TIP3    H249113   2.257   1.255   4.614 -0.7520 -0.4264  0.1515
 9208TIP3   OH249114   1.186   1.778  13.941  0.2501 -0.0206 -0.0191
 9208TIP3    H149115   1.162   1.854  13.888  2.0739  0.7375  0.2095
 9208TIP3    H249116   1.250   1.730  13.888 -0.9951 -1.5084 -0.2329
 9209TIP3   OH249117   0.849   0.527   5.712 -0.3889 -0.4760 -0.5633
 9209TIP3    H149118   0.870   0.539   5.619  0.3803  0.1314 -0.3176
 9209TIP3    H249119   0.771   0.580   5.726 -0.5694 -0.6546 -0.8874
 9210TIP3   OH249120   2.997   5.050  16.769  0.2528  0.5725  0.2702
 9210TIP3    H149121   2.948   5.102  16.832 -0.4254  1.8647 -1.2938
 9210TIP3    H249122   2.932   5.021  16.705  0.2547 -3.7856  2.0386
 9211TIP3   OH249123   1.357   4.728  11.709  0.1842 -0.3198  0.2735
 9211TIP3    H149124   1.394   4.812  11.684  3.4624 -1.6003  0.5385
 9211TIP3    H249125   1.270   4.727  11.671  0.7935  2.4287 -1.2858
 9212TIP3   OH249126   2.120   6.080  11.733  0.2140 -0.4032  0.3409
 9212TIP3    H149127   2.029   6.057  11.746 -0.2170 -0.3270 -2.2455
 9212TIP3    H249128   2.168   5.998  11.746 -0.3599 -0.7518  0.2468
 9213TIP3   OH249129   4.826   1.413  15.786  0.1151  0.2091  0.2149
 9213TIP3    H149130   4.897   1.351  15.770  0.6972  1.1051 -0.7322
 9213TIP3    H249131   4.798   1.440  15.699 -1.2442  0.0334  0.5898
 9214TIP3   OH249132   1.475   4.652  11.391 -0.2706  0.9643 -0.0602
 9214TIP3    H149133   1.427   4.583  11.438  1.2019 -0.6897 -0.9410
 9214TIP3    H249134   1.446   4.733  11.433 -0.5058 -0.3295  2.3721
 9215TIP3   OH249135   2.261   6.029   0.101  0.5421 -0.3304  0.2744
 9215TIP3    H149136   2.183   6.077   0.128  0.6033 -0.4830  0.7425
 9215TIP3    H249137   2.229   5.967   0.035  0.5751  0.7633 -0.7818
 9216TIP3   OH249138   4.743   3.906  14.129  0.7647  0.0376 -0.5743
 9216TIP3    H149139   4.726   3.999  14.147  0.4905  0.0367 -0.8290
 9216TIP3    H249140   4.752   3.867  14.216  0.1852  0.1772 -0.4498
 9217TIP3   OH249141   1.352   3.389   0.330  0.0569 -0.0388 -0.5777
 9217TIP3    H149142   1.336   3.477   0.298  1.7778  0.4151 -0.2627
 9217TIP3    H249143   1.443   3.391   0.362  0.2632 -2.0123 -0.9425
 9218TIP3   OH249144   5.827   6.365  17.222  0.3863  0.5106  0.9026
 9218TIP3    H149145   5.791   6.288  17.267  0.6044 -0.0963  0.0561
 9218TIP3    H249146   5.828   6.340  17.129  0.6667  1.4540  0.6502
 9219TIP3   OH249147   4.299   0.920   3.166 -0.0282 -0.1782  0.0885
 9219TIP3    H149148   4.289   1.000   3.217 -0.2969  0.1016 -0.3983
 9219TIP3    H249149   4.389   0.892   3.183  1.8454  2.9913 -3.6689
 9220TIP3   OH249150   6.189   5.382   3.492  0.1503 -0.3298  0.0837
 9220TIP3    H149151   6.197   5.420   3.580 -2.0131 -0.5085  0.3727
 9220TIP3    H249152   6.112   5.326   3.497 -0.9680  0.9173 -2.3818
 9221TIP3   OH249153   5.841   0.391  11.915  0.3009  0.1899  0.3917
 9221TIP3    H149154   5.822   0.417  12.005 -0.2289  2.3183 -0.3142
 9221TIP3    H249155   5.929   0.355  11.918  0.4673  0.7008  1.6721
 9222TIP3   OH249156   5.284   1.776  15.546 -0.1637  0.2024  0.0350
 9222TIP3    H149157   5.197   1.779  15.585 -0.7564  2.3728 -1.3789
 9222TIP3    H249158   5.326   1.858  15.572  0.0854  0.8786 -2.3250
 9223TIP3   OH249159   1.031   0.168  11.916 -0.4416  0.2352 -0.5563
 9223TIP3    H149160   0.958   0.203  11.968  0.6349  0.3135  0.9326
 9223TIP3    H249161   1.038   0.227  11.841 -0.9218  1.1317  0.0910
 9224TIP3   OH249162   2.013   0.381  16.139  0.1949 -0.5427 -0.2884
 9224TIP3    H149163   1.970   0.298  16.116 -1.6685  0.8376 -1.9601
 9224TIP3    H249164   2.103   0.371  16.107  0.0418 -1.9792 -0.3060
 9225TIP3   OH249165   4.153   0.374  10.966 -0.3932 -0.3555  0.5952
 9225TIP3    H149166   4.217   0.436  10.932  0.1091  0.2476  2.5984
 9225TIP3    H249167   4.070   0.400  10.925  0.2457  0.2060 -0.3357
 9226TIP3   OH249168   4.338   4.428  14.308 -0.1871  0.3441  0.1135
 9226TIP3    H149169   4.274   4.484  14.263  1.2328  0.2067 -2.1703
 9226TIP3    H249170   4.422   4.473  14.296  0.4003 -0.3504  1.5632
 9227TIP3   OH249171   0.292   4.701  11.557 -0.1209  0.2516  0.0901
 9227TIP3    H149172   0.329   4.678  11.472 -0.5030  1.1110 -0.3172
 9227TIP3    H249173   0.223   4.763  11.537  0.9993  1.8776  1.1794
 9228TIP3   OH249174   0.792   5.867   4.154  0.2406 -0.2345  0.2689
 9228TIP3    H149175   0.861   5.879   4.089 -0.7151  1.9330 -0.3994
 9228TIP3    H249176   0.729   5.937   4.135 -0.1347  0.3551  3.4107
 9229TIP3   OH249177   0.055   3.454   0.463  0.3657 -0.1379  0.0371
 9229TIP3    H149178   0.085   3.365   0.482  0.6012 -0.2357 -0.7782
 9229TIP3    H249179   0.133   3.499   0.431  0.0083  0.0741 -0.5353
 9230TIP3   OH249180   5.109   0.763  16.364  0.6127 -0.2269  0.0487
 9230TIP3    H149181   5.123   0.722  16.450  0.0692  0.6715  0.5731
 9230TIP3    H249182   5.142   0.852  16.374  0.2384 -0.0160 -0.5653
 9231TIP3   OH249183   0.946   0.386   0.208  0.0189 -0.0157  0.1258
 9231TIP3    H149184   0.873   0.429   0.252 -0.4090 -1.4605  0.8649
 9231TIP3    H249185   0.924   0.393   0.115  0.1948  1.7401  0.1955
 9232TIP3   OH249186   5.967   4.320   2.801  0.0967 -0.1606 -0.3206
 9232TIP3    H149187   6.054   4.323   2.841  0.4566  0.5208 -1.1351
 9232TIP3    H249188   5.931   4.408   2.813 -0.7054 -0.5967  0.5036
 9233TIP3   OH249189   1.412   3.417   1.235 -0.7087  0.0782 -0.4186
 9233TIP3    H149190   1.470   3.481   1.277 -0.7332  0.2097 -0.5822
 9233TIP3    H249191   1.342   3.470   1.197 -0.4451  0.0029 -1.0128
 9234TIP3   OH249192   5.806   4.514  14.129  0.0181 -0.1319  0.1680
 9234TIP3    H149193   5.712   4.500  14.136 -0.0001  0.3716  1.0441
 9234TIP3    H249194   5.820   4.602  14.163  0.9748 -0.7570  1.4702
 9235TIP3   OH249195   6.458   3.396   5.263 -0.1597 -0.4371  0.4661
 9235TIP3    H149196   6.459   3.480   5.217  0.4528  0.5746  2.3204
 9235TIP3    H249197   6.441   3.418   5.354 -2.6236 -2.5280  0.5743
 9236TIP3   OH249198   2.209   6.807   2.333 -0.6657  0.0140  0.4626
 9236TIP3    H149199   2.266   6.730   2.335  1.0830  1.1325 -3.1839
 9236TIP3    H249200   2.121   6.772   2.316 -0.0545 -1.2515 -0.1368
 9237TIP3   OH249201   6.316   6.705   0.967  0.5069 -0.7580 -0.1815
 9237TIP3    H149202   6.276   6.649   1.034 -1.0880 -1.7000 -1.8894
 9237TIP3    H249203   6.367   6.645   0.913  0.6152 -0.2122 -0.6839
 9238TIP3   OH249204   3.595   5.316  15.116 -0.0738  0.1058  0.3338
 9238TIP3    H149205   3.611   5.340  15.025  0.0319 -2.5426 -0.4095
 9238TIP3    H249206   3.640   5.232  15.127 -0.0279  0.4015  2.8535
 9239TIP3   OH249207   1.774   2.587  11.983 -0.1730 -0.2371 -0.3512
 9239TIP3    H149208   1.805   2.517  11.926  1.8344 -0.6191  1.1635
 9239TIP3    H249209   1.684   2.563  12.004 -0.8455 -0.2554 -3.0461
 9240TIP3   OH249210   4.372   5.164  13.515 -0.1632 -0.2911 -0.4058
 9240TIP3    H149211   4.435   5.196  13.450  0.1421 -0.6523 -0.2890
 9240TIP3    H249212   4.398   5.208  13.596  0.0871 -0.6240 -0.3052
 9241TIP3   OH249213   6.668   0.810  14.296 -0.1890 -0.1150  0.0633
 9241TIP3    H149214   6.757   0.810  14.331 -0.0812 -2.2920 -0.1270
 9241TIP3    H249215   6.615   0.851  14.364  0.7851  0.1471  0.6748
 9242TIP3   OH249216   4.393   2.183   1.966 -0.2524 -0.5922 -0.3419
 9242TIP3    H149217   4.459   2.114   1.965  1.3441  0.8693  1.3443
 9242TIP3    H249218   4.364   2.189   1.875  2.0176 -1.1889 -1.1379
 9243TIP3   OH249219   2.855   1.058   2.261  0.1220 -0.4526  0.2187
 9243TIP3    H149220   2.844   0.964   2.273  1.2788 -0.5286  0.7500
 9243TIP3    H249221   2.903   1.087   2.338  1.9489  0.1312 -1.0887
 9244TIP3   OH249222   4.151   0.775  11.501  0.1898  0.4265  0.2882
 9244TIP3    H149223   4.062   0.740  11.495 -0.0873  1.0034  0.8931
 9244TIP3    H249224   4.139   0.867  11.525  0.8333  1.6171 -3.6748
 9245TIP3   OH249225   6.397   3.657  16.791 -0.5787 -0.2955 -0.1246
 9245TIP3    H149226   6.350   3.581  16.825  0.3858  0.4691  3.1260
 9245TIP3    H249227   6.369   3.729  16.848  0.7227  1.1665 -1.3043
 9246TIP3   OH249228   2.949   6.093   5.706 -0.3418  0.2037  0.0305
 9246TIP3    H149229   2.942   6.188   5.715  0.6707  0.2118  0.7338
 9246TIP3    H249230   3.031   6.079   5.659  0.2956 -0.3961  1.3214
 9247TIP3   OH249231   3.078   4.626  11.160  0.3987  0.4110  0.4494
 9247TIP3    H149232   3.025   4.705  11.169  0.3293  0.1891  2.1525
 9247TIP3    H249233   3.118   4.614  11.246  0.7626 -1.1707  0.0788
 9248TIP3   OH249234   4.934   3.681  15.705  0.1790  0.7097  0.1925
 9248TIP3    H149235   5.006   3.736  15.675  0.0084  0.2614 -1.0615
 9248TIP3    H249236   4.953   3.595  15.669 -0.3855  0.3100  0.8275
 9249TIP3   OH249237   2.543   2.957   5.575 -0.0532  0.0576 -0.3187
 9249TIP3    H149238   2.515   2.973   5.666  1.2629  0.9631 -0.0626
 9249TIP3    H249239   2.546   3.045   5.536 -0.9563 -0.3633 -1.3528
 9250TIP3   OH249240   1.999   5.665  16.038 -1.0434  0.1280  0.0550
 9250TIP3    H149241   1.951   5.691  16.117 -0.5387  0.8130  0.1483
 9250TIP3    H249242   1.983   5.736  15.976 -1.4372 -0.4102 -0.4593
 9251TIP3   OH249243   5.119   3.758  15.431  0.9264  0.5630 -0.3007
 9251TIP3    H149244   5.028   3.750  15.403  0.7292  1.7413 -0.0020
 9251TIP3    H249245   5.163   3.682  15.391 -0.9699 -2.3445  2.8460
 9252TIP3   OH249246   5.330   1.378  16.287  0.2719  0.0122 -0.3390
 9252TIP3    H149247   5.345   1.442  16.357 -0.0342 -1.2999  0.9413
 9252TIP3    H249248   5.246   1.338  16.308  1.2552 -2.0233 -0.1575
 9253TIP3   OH249249   4.111   2.023  11.026 -0.7301 -0.7580 -0.2692
 9253TIP3    H149250   4.042   2.085  11.051 -0.5568 -0.8541  0.4634
 9253TIP3    H249251   4.191   2.075  11.026 -0.5599 -1.0099  0.5062
 9254TIP3   OH249252   0.489   4.407  17.255  0.4432 -0.0768 -0.4958
 9254TIP3    H149253   0.579   4.420  17.226  0.8779 -1.9537 -0.0652
 9254TIP3    H249254   0.494   4.335  17.318 -1.4602 -0.6985 -1.0095
 9255TIP3   OH249255   4.594   5.575  15.522 -0.2365  0.1437 -0.0277
 9255TIP3    H149256   4.680   5.573  15.563 -0.5423 -0.1641  0.6182
 9255TIP3    H249257   4.604   5.526  15.440  0.2103  0.1392  0.0324
 9256TIP3   OH249258   0.916   3.838  11.277  0.2135 -0.0573  0.3321
 9256TIP3    H149259   0.901   3.774  11.346  0.9452  0.1796  0.7155
 9256TIP3    H249260   0.954   3.788  11.205  0.6246 -0.0853  0.5680
 9257TIP3   OH249261   3.095   5.017  14.092 -0.5084  0.0027 -0.0370
 9257TIP3    H149262   3.037   4.998  14.166  2.9726 -0.3935  2.7180
 9257TIP3    H249263   3.096   5.112  14.086  0.1219  0.0978  1.2787
 9258TIP3   OH249264   2.528   6.751  13.958  0.2811  0.5278 -0.0221
 9258TIP3    H149265   2.455   6.733  13.899  0.8442 -1.7780 -0.0757
 9258TIP3    H249266   2.488   6.755  14.045  0.0667 -0.8126 -0.0419
 9259TIP3   OH249267   2.467   4.510   6.487 -0.4556  0.1269  0.6039
 9259TIP3    H149268   2.484   4.532   6.395  0.9695 -1.7112  0.4050
 9259TIP3    H249269   2.545   4.539   6.533 -0.5577 -0.2691  1.0263
 9260TIP3   OH249270   1.715   2.709   1.756 -0.3175  0.2730  0.3523
 9260TIP3    H149271   1.674   2.627   1.783  0.1247 -0.1957 -0.3883
 9260TIP3    H249272   1.807   2.687   1.744  0.3458  1.4867  2.7346
 9261TIP3   OH249273   0.408   5.519   3.660 -0.0468 -0.0050 -0.1213
 9261TIP3    H149274   0.417   5.581   3.588  0.8215 -0.4651 -0.4096
 9261TIP3    H249275   0.407   5.433   3.618 -1.1123 -0.1990  0.2873
 9262TIP3   OH249276   2.996   1.851   1.197  0.2252  0.1455 -0.3560
 9262TIP3    H149277   2.980   1.830   1.289  0.2949 -0.6845 -0.5318
 9262TIP3    H249278   3.044   1.933   1.199  0.3122  0.0760  0.3562
 9263TIP3   OH249279   1.612   5.826   5.627 -0.1899 -0.1171  0.6080
 9263TIP3    H149280   1.678   5.879   5.671  0.8639 -0.1049 -0.9571
 9263TIP3    H249281   1.530   5.871   5.643 -0.1266 -1.0570  4.0809
 9264TIP3   OH249282   6.280   5.984  14.978 -0.6855 -0.3527  0.0840
 9264TIP3    H149283   6.371   5.980  14.948 -1.0221 -1.7141 -0.8047
 9264TIP3    H249284   6.230   6.012  14.902 -0.9731  0.8219  0.6900
 9265TIP3   OH249285   0.928   3.564   2.268  0.3876 -0.2602  0.1500
 9265TIP3    H149286   0.846   3.600   2.302 -0.5137 -1.0389 -1.1787
 9265TIP3    H249287   0.991   3.635   2.278 -0.5475  0.4956  0.7677
 9266TIP3   OH249288   1.529   5.707  14.216 -0.2573 -0.1070  0.4226
 9266TIP3    H149289   1.583   5.645  14.167 -0.0565 -0.6955  1.3785
 9266TIP3    H249290   1.454   5.725  14.159  1.4131  1.4960 -1.3587
 9267TIP3   OH249291   3.646   0.873  13.190 -0.9072  0.1262 -0.1187
 9267TIP3    H149292   3.683   0.897  13.275  1.2610 -1.4128 -0.6002
 9267TIP3    H249293   3.699   0.798  13.161 -3.0671 -0.7995 -1.7931
 9268TIP3   OH249294   1.408   2.384   2.123 -0.5207  0.4579  0.0363
 9268TIP3    H149295   1.416   2.449   2.193  1.7947  0.5636 -0.2882
 9268TIP3    H249296   1.405   2.300   2.167  2.1581  0.4406  0.2551
 9269TIP3   OH249297   3.670   6.242  11.950  0.1728  0.7156  0.0806
 9269TIP3    H149298   3.727   6.317  11.968  0.0090  0.6100  1.0405
 9269TIP3    H249299   3.581   6.276  11.957  0.1042  0.7493 -0.8676
 9270TIP3   OH249300   5.885   2.393  13.867  0.0448  0.4906  0.1112
 9270TIP3    H149301   5.936   2.471  13.887 -0.9811  1.2614 -0.2341
 9270TIP3    H249302   5.812   2.425  13.813 -1.1671 -0.4801  1.1390
 9271TIP3   OH249303   6.101   1.443   5.680 -0.0353 -0.1377  0.4791
 9271TIP3    H149304   6.017   1.410   5.713  0.2391 -0.9954  0.3431
 9271TIP3    H249305   6.160   1.368   5.687  0.5198  0.2352 -0.1462
 9272TIP3   OH249306   3.749   4.326   5.185  0.6855  0.0472 -0.0454
 9272TIP3    H149307   3.743   4.418   5.213  1.1635  0.3881 -1.0369
 9272TIP3    H249308   3.745   4.330   5.089 -1.5513 -1.1430 -0.0342
 9273TIP3   OH249309   5.801   5.984  11.124  0.1823  0.1004  0.1359
 9273TIP3    H149310   5.817   6.026  11.040  1.1106 -0.8252 -0.1670
 9273TIP3    H249311   5.788   5.891  11.103 -0.4700  0.0063  0.9177
 9274TIP3   OH249312   5.267   6.226   2.023  0.2410 -0.2173 -0.1126
 9274TIP3    H149313   5.228   6.142   2.047  0.6991 -0.1420  0.9184
 9274TIP3    H249314   5.333   6.241   2.090  0.1735  0.9589 -0.3090
 9275TIP3   OH249315   0.931   4.511  14.556  0.2356  0.7024 -0.0006
 9275TIP3    H149316   0.871   4.550  14.620 -0.1012  1.3658 -0.7068
 9275TIP3    H249317   0.873   4.473  14.490  0.5364 -1.9331  1.2001
 9276TIP3   OH249318   0.039   2.061   4.999  0.1856  0.1895 -0.0396
 9276TIP3    H149319  -0.053   2.041   5.013 -0.6177  1.3939 -3.2764
 9276TIP3    H249320   0.039   2.136   4.940  3.2487 -0.9982 -1.6577
 9277TIP3   OH249321   2.810   2.085   4.057  0.4814  1.1546  0.6849
 9277TIP3    H149322   2.723   2.123   4.071 -1.0016 -1.9598  0.4819
 9277TIP3    H249323   2.816   2.074   3.962  0.3337 -0.2238  0.8166
 9278TIP3   OH249324   1.880   5.610   5.671  0.6279  0.4648 -0.2772
 9278TIP3    H149325   1.878   5.679   5.605  2.0691  2.5799  1.8178
 9278TIP3    H249326   1.820   5.641   5.740 -0.7601 -1.6410 -0.4735
 9279TIP3   OH249327   4.048   5.737   5.978 -0.1835  0.2429  0.5428
 9279TIP3    H149328   3.968   5.788   5.991  0.8806  2.5119 -1.2537
 9279TIP3    H249329   4.023   5.667   5.917 -0.6472  1.4516 -0.6881
 9280TIP3   OH249330   6.016   1.670  15.641  0.2908  0.1886 -0.1531
 9280TIP3    H149331   6.004   1.582  15.677  0.0379  1.3002  2.6455
 9280TIP3    H249332   5.940   1.684  15.585 -0.4532 -0.8179  0.5839
 9281TIP3   OH249333   0.989   1.812  17.111  0.1218  0.5507 -0.1804
 9281TIP3    H149334   1.047   1.736  17.111  0.3596  0.7212 -1.0105
 9281TIP3    H249335   0.987   1.840  17.019  1.0072  2.2841  0.3178
 9282TIP3   OH249336   1.774   4.078   4.715  0.1927 -0.6756  0.0567
 9282TIP3    H149337   1.834   4.064   4.788 -1.3991  0.2942  1.5955
 9282TIP3    H249338   1.790   4.004   4.656  2.0769 -1.0337  0.9638
 9283TIP3   OH249339   4.212   1.919   1.250 -0.0931  0.3662  0.2158
 9283TIP3    H149340   4.267   1.849   1.285  0.7947  1.3580  0.8217
 9283TIP3    H249341   4.123   1.889   1.265  0.2733  0.2667  2.3278
 9284TIP3   OH249342   2.952   2.032  13.102 -0.2741  0.2728 -0.5040
 9284TIP3    H149343   2.870   2.065  13.064 -0.1163  0.7216 -0.4554
 9284TIP3    H249344   3.006   2.110  13.113 -0.2034  0.0998  0.3555
 9285TIP3   OH249345   3.178   5.011  15.256 -0.0213 -0.7080 -0.3406
 9285TIP3    H149346   3.135   4.982  15.176 -1.1897  2.9306 -1.0926
 9285TIP3    H249347   3.255   5.059  15.226  0.6879 -1.1016  0.8013
 9286TIP3   OH249348   3.814   4.048  13.959 -0.4363 -0.8384 -0.5889
 9286TIP3    H149349   3.756   4.029  14.033 -1.1741 -0.6520 -1.1122
 9286TIP3    H249350   3.776   4.127  13.918 -1.0477 -1.9363 -2.1977
 9287TIP3   OH249351   5.742   4.762   5.123  0.0554  0.0380 -0.2459
 9287TIP3    H149352   5.804   4.695   5.094  0.0572 -0.9292  1.8859
 9287TIP3    H249353   5.786   4.845   5.106  1.9588 -0.6254  1.2368
 9288TIP3   OH249354   5.597   6.112   2.312  0.2268  0.2444  0.5369
 9288TIP3    H149355   5.689   6.105   2.285  0.4785 -0.2681  1.5153
 9288TIP3    H249356   5.600   6.155   2.397 -0.6911  3.4343 -0.9844
 9289TIP3   OH249357   3.666   3.337  14.979  0.3837  0.3842 -0.1830
 9289TIP3    H149358   3.626   3.253  14.955 -1.3135  1.0865  0.1219
 9289TIP3    H249359   3.749   3.338  14.931 -0.3638 -0.7211 -1.5493
 9290TIP3   OH249360   2.129   5.334   6.490 -0.1348  0.3352  1.1761
 9290TIP3    H149361   2.124   5.398   6.561 -0.7432  1.9624 -0.2743
 9290TIP3    H249362   2.052   5.353   6.436 -0.1578 -1.4451  0.5633
 9291TIP3   OH249363   5.499   4.451  13.571  0.3043  0.6586 -0.5289
 9291TIP3    H149364   5.508   4.358  13.551 -0.2581  0.6706 -0.8540
 9291TIP3    H249365   5.552   4.495  13.504  1.1287  0.5499  0.0356
 9292TIP3   OH249366   5.046   2.632   3.314 -0.2534  0.3859 -0.4420
 9292TIP3    H149367   4.992   2.688   3.259 -1.4812  0.9858  1.3339
 9292TIP3    H249368   4.997   2.550   3.322  0.2447  0.0464 -0.7706
 9293TIP3   OH249369   0.866   0.801  10.791  0.4624 -0.1030 -0.6485
 9293TIP3    H149370   0.839   0.716  10.827 -0.7374  0.7394  0.5146
 9293TIP3    H249371   0.799   0.862  10.823  1.8161  1.4350 -0.7067
 9294TIP3   OH249372   3.608   1.900  15.418  0.0545  0.2554 -0.5630
 9294TIP3    H149373   3.583   1.985  15.454 -0.1470  0.6097 -1.5186
 9294TIP3    H249374   3.661   1.860  15.486  1.1096  1.6387 -0.5457
 9295TIP3   OH249375   0.351   3.880   4.048 -0.3617  0.7256 -0.9646
 9295TIP3    H149376   0.335   3.862   3.955  0.5035  1.1890 -1.2072
 9295TIP3    H249377   0.442   3.856   4.061 -0.3127  1.2409 -0.3757
 9296TIP3   OH249378   4.734   3.809   5.074  0.4363 -0.3941 -0.0537
 9296TIP3    H149379   4.671   3.747   5.037  0.3839  0.8028 -2.0272
 9296TIP3    H249380   4.781   3.758   5.140 -0.4719 -2.1723 -0.7347
 9297TIP3   OH249381   2.387   6.353   2.979  0.5953  0.4828 -0.0780
 9297TIP3    H149382   2.400   6.402   2.898 -2.2736 -2.4336 -2.4061
 9297TIP3    H249383   2.451   6.282   2.975 -0.9449 -0.8706 -0.7900
 9298TIP3   OH249384   2.568   4.673  13.702  0.3218 -0.2899 -0.1327
 9298TIP3    H149385   2.654   4.713  13.696  0.5010 -0.8209 -1.2183
 9298TIP3    H249386   2.582   4.593  13.753  0.2993  0.0706  0.4481
 9299TIP3   OH249387   5.639   3.665  11.263  0.3323 -0.0217 -0.1732
 9299TIP3    H149388   5.663   3.651  11.171 -0.5260 -0.8349 -0.2865
 9299TIP3    H249389   5.574   3.735  11.260 -0.3720 -0.6688 -0.2890
 9300TIP3   OH249390   3.212   3.176   3.077  0.6351 -0.0676  0.7164
 9300TIP3    H149391   3.235   3.197   2.986  1.5181 -0.7796  0.7655
 9300TIP3    H249392   3.122   3.145   3.072  1.0958 -1.3235 -0.1115
 9301TIP3   OH249393   0.321   4.856   5.792  0.2834 -0.0958 -0.2272
 9301TIP3    H149394   0.255   4.787   5.784  3.4906 -3.0486 -2.9580
 9301TIP3    H249395   0.341   4.880   5.701  2.2243  1.4741  0.5848
 9302TIP3   OH249396   2.588   0.425  13.684 -0.8453 -0.8353  0.3420
 9302TIP3    H149397   2.616   0.506  13.643 -2.0961 -0.1989  0.7109
 9302TIP3    H249398   2.667   0.390  13.726 -0.7160  1.2061  1.8753
 9303TIP3   OH249399   2.070   0.654  14.216  0.5124 -0.1836  0.3535
 9303TIP3    H149400   2.142   0.591  14.225  1.8997  1.5116  1.3305
 9303TIP3    H249401   2.052   0.656  14.122  0.5978 -1.8602  0.2783
 9304TIP3   OH249402   3.192   6.741  13.529  0.3818  0.2648  0.4425
 9304TIP3    H149403   3.111   6.792  13.528 -0.5445 -1.1692  0.5814
 9304TIP3    H249404   3.233   6.763  13.613 -2.1814 -2.5018  2.5232
 9305TIP3   OH249405   3.841   4.753   4.756 -0.2643 -0.2051  0.1008
 9305TIP3    H149406   3.852   4.718   4.668 -1.5197 -0.0687 -0.1129
 9305TIP3    H249407   3.931   4.763   4.789  0.3984  2.7521 -2.3495
 9306TIP3   OH249408   5.330   1.275  11.162  0.1039 -0.0736  0.1296
 9306TIP3    H149409   5.265   1.218  11.120  0.8778 -0.5186 -0.4841
 9306TIP3    H249410   5.342   1.238  11.249  0.5728 -0.8386 -0.2517
 9307TIP3   OH249411   6.182   4.021   2.428 -0.0729  0.2289  0.1866
 9307TIP3    H149412   6.133   4.030   2.346 -0.4932 -0.6607  0.3307
 9307TIP3    H249413   6.138   4.079   2.489  0.3825  1.0711 -0.2840
 9308TIP3   OH249414   1.432   2.188  12.733  0.5229  0.6905 -0.0330
 9308TIP3    H149415   1.356   2.227  12.690  0.1804 -1.1821 -1.1915
 9308TIP3    H249416   1.489   2.162  12.661  0.5558 -1.2965  0.6952
 9309TIP3   OH249417   3.666   1.383  12.234 -0.3249 -0.2508 -0.0006
 9309TIP3    H149418   3.572   1.368  12.222 -0.5628  0.1260  1.3236
 9309TIP3    H249419   3.683   1.353  12.323  0.3620  1.8226  0.5741
 9310TIP3   OH249420   4.543   0.882   5.082  0.4872  0.0184  0.0807
 9310TIP3    H149421   4.463   0.836   5.106  0.0195  1.7812  2.0175
 9310TIP3    H249422   4.556   0.947   5.151  2.5789  1.0096 -1.1723
 9311TIP3   OH249423   1.340   0.584  12.320  0.2232  0.5975  0.1252
 9311TIP3    H149424   1.378   0.600  12.234 -0.1025 -0.5628 -0.2528
 9311TIP3    H249425   1.303   0.496  12.313 -0.8073  0.9452  1.0950
 9312TIP3   OH249426   4.285   6.389  15.698 -0.0730  0.8183  0.0766
 9312TIP3    H149427   4.276   6.432  15.783 -1.1507  0.3560  0.2025
 9312TIP3    H249428   4.198   6.394  15.660  0.0069 -0.4960 -0.2756
 9313TIP3   OH249429   0.100   0.264   2.903 -0.4266 -0.4093 -0.0879
 9313TIP3    H149430   0.167   0.314   2.855  1.3164 -1.7916  0.8716
 9313TIP3    H249431   0.045   0.226   2.835 -0.0600  0.5006 -0.9006
 9314TIP3   OH249432   1.285   4.171   2.838 -0.2500  0.5404  0.0837
 9314TIP3    H149433   1.331   4.087   2.829 -1.4811 -0.1827  0.5351
 9314TIP3    H249434   1.304   4.199   2.928 -1.3258 -0.1383  0.5276
 9315TIP3   OH249435   4.960   5.315   5.661 -0.5515  0.3540  0.9786
 9315TIP3    H149436   4.956   5.368   5.741  1.5979 -0.8775  1.9515
 9315TIP3    H249437   4.911   5.235   5.683 -0.3408  0.2028  0.8934
 9316TIP3   OH249438   4.853   5.157   6.389  0.6658 -0.0100 -0.1558
 9316TIP3    H149439   4.945   5.178   6.406  1.3116 -1.6206 -1.5100
 9316TIP3    H249440   4.855   5.104   6.309 -1.2307 -1.8859  0.9931
 9317TIP3   OH249441   1.014   6.328  15.693 -0.4836 -0.0777 -0.2390
 9317TIP3    H149442   0.964   6.298  15.769 -1.3420  1.2285 -0.2849
 9317TIP3    H249443   0.991   6.266  15.624 -0.0496 -1.0035  0.4228
 9318TIP3   OH249444   0.567   6.718  16.536  0.0201 -0.0565 -0.3134
 9318TIP3    H149445   0.548   6.721  16.443  0.7609 -1.5033 -0.5165
 9318TIP3    H249446   0.511   6.786  16.574  1.0821  1.8606 -2.0410
 9319TIP3   OH249447   4.553   0.512   5.774  0.1391 -0.6661  0.0150
 9319TIP3    H149448   4.512   0.540   5.692  3.2159  0.6571 -1.1533
 9319TIP3    H249449   4.496   0.443   5.807 -1.5650 -0.7249 -2.8754
 9320TIP3   OH249450   0.221   3.304   4.712  0.0647 -0.1245 -0.3679
 9320TIP3    H149451   0.200   3.224   4.664  0.0715 -1.4456  1.7248
 9320TIP3    H249452   0.138   3.331   4.751 -0.1150  1.4022 -1.7485
 9321TIP3   OH249453   4.138   0.521   2.452  0.1261  0.4593 -0.3282
 9321TIP3    H149454   4.168   0.430   2.445 -0.0470  0.4556 -1.0471
 9321TIP3    H249455   4.178   0.553   2.532  1.1389  0.1062 -0.6872
 9322TIP3   OH249456   0.704   5.616   1.327  0.2912  0.8074  0.5300
 9322TIP3    H149457   0.780   5.562   1.309  0.6701  0.7272  2.2728
 9322TIP3    H249458   0.634   5.554   1.346  0.0751  0.8941  0.0151
 9323TIP3   OH249459   4.834   4.354  11.887 -0.1711  0.2380  0.4729
 9323TIP3    H149460   4.766   4.372  11.952  0.1228 -1.4809  1.2796
 9323TIP3    H249461   4.831   4.430  11.829 -1.0651  1.3775  1.9466
 9324TIP3   OH249462   6.448   6.580   5.426  0.0719 -0.1428 -0.7213
 9324TIP3    H149463   6.362   6.622   5.424  0.3341  0.4388 -0.1142
 9324TIP3    H249464   6.434   6.493   5.389 -0.3843  0.6588 -2.4592
 9325TIP3   OH249465   2.883   2.318   3.852 -0.1394 -0.0963  0.3936
 9325TIP3    H149466   2.798   2.359   3.834 -0.2595  0.3109  1.8630
 9325TIP3    H249467   2.945   2.368   3.798 -0.8485 -0.5168 -0.8246
 9326TIP3   OH249468   6.334   4.363  15.103 -0.5043  0.3229  0.4911
 9326TIP3    H149469   6.406   4.378  15.043 -0.5883  3.6419  1.0858
 9326TIP3    H249470   6.375   4.326  15.182 -0.3195 -3.4079 -1.2502
 9327TIP3   OH249471   2.853   6.321   2.406 -0.1175 -0.6266 -0.2810
 9327TIP3    H149472   2.823   6.273   2.483 -1.3002 -2.0168 -1.5892
 9327TIP3    H249473   2.850   6.258   2.335 -0.0291  0.9224 -1.6999
 9328TIP3   OH249474   6.610   6.418  17.154  0.1291 -0.2637  0.0453
 9328TIP3    H149475   6.655   6.354  17.099 -2.0128  0.6682 -2.9126
 9328TIP3    H249476   6.526   6.377  17.175  0.3549 -0.0232  1.4453
 9329TIP3   OH249477   5.871   1.220   3.359  0.3855 -0.2331 -0.3806
 9329TIP3    H149478   5.814   1.268   3.419  0.6890 -0.7312  0.3107
 9329TIP3    H249479   5.822   1.218   3.277 -1.6410 -2.6070  0.8127
 9330TIP3   OH249480   0.440   3.242  13.177  1.5683  0.5583  0.2319
 9330TIP3    H149481   0.530   3.264  13.153  2.1523  0.1351  1.9683
 9330TIP3    H249482   0.407   3.320  13.221  1.0524  0.7349 -0.4553
 9331TIP3   OH249483   5.326   0.525   2.498 -0.2291  0.1144 -0.0543
 9331TIP3    H149484   5.310   0.557   2.409  1.0041  0.9097 -0.0060
 9331TIP3    H249485   5.372   0.442   2.486  1.2782  0.9442 -0.1749
 9332TIP3   OH249486   5.360   3.536   6.044 -0.6006 -0.5241  1.0119
 9332TIP3    H149487   5.334   3.619   6.085 -2.4811 -1.4283  1.7182
 9332TIP3    H249488   5.454   3.530   6.059 -0.6571  0.8884  2.0369
 9333TIP3   OH249489   5.045   5.598  16.703  0.5091 -0.2275  0.1902
 9333TIP3    H149490   5.097   5.518  16.713  0.5916 -0.2429 -0.3490
 9333TIP3    H249491   5.018   5.597  16.611  0.3751  0.2829  0.2278
 9334TIP3   OH249492   0.374   4.836   1.670 -0.5807 -0.2978 -0.9016
 9334TIP3    H149493   0.303   4.772   1.676  0.4693 -1.3961 -0.0499
 9334TIP3    H249494   0.419   4.814   1.589  0.2602 -1.1501 -0.2098
 9335TIP3   OH249495   4.322   1.074  11.426  0.0775 -0.4359  0.3334
 9335TIP3    H149496   4.325   1.066  11.331  0.2827 -4.1997  0.6114
 9335TIP3    H249497   4.235   1.043  11.450 -0.0842  0.7814  1.4042
 9336TIP3   OH249498   5.644   5.421  15.684 -0.3565 -0.2424 -0.0699
 9336TIP3    H149499   5.692   5.495  15.722  0.2024 -1.0793  0.8920
 9336TIP3    H249500   5.555   5.454  15.670  0.2559  1.0315 -0.9711
 9337TIP3   OH249501   6.017   0.814  16.218  0.4070  0.3008 -0.0676
 9337TIP3    H149502   5.928   0.785  16.198  0.4803  1.0318 -1.5530
 9337TIP3    H249503   6.071   0.772  16.150  1.3562 -1.0454  1.4903
 9338TIP3   OH249504   6.050   5.563   0.061 -0.1269  0.4083  0.0463
 9338TIP3    H149505   6.142   5.537   0.067 -0.5991 -1.3850 -0.1493
 9338TIP3    H249506   6.031   5.565  -0.033 -0.1529  1.2373  0.0723
 9339TIP3   OH249507   3.609   0.348   2.633 -0.6430  0.6601  0.1393
 9339TIP3    H149508   3.613   0.285   2.561 -1.3039  2.6998 -1.7582
 9339TIP3    H249509   3.693   0.394   2.629 -0.7103  0.8229  0.6016
 9340TIP3   OH249510   6.581   6.699  13.169  0.2533 -1.0289 -0.2386
 9340TIP3    H149511   6.580   6.785  13.212  0.5671 -0.8244 -0.6351
 9340TIP3    H249512   6.592   6.637  13.241  2.5579 -0.5794 -0.1532
 9341TIP3   OH249513   5.880   3.361  11.426  0.1311  0.2047  0.5047
 9341TIP3    H149514   5.786   3.342  11.435 -0.1739  0.8709 -1.1692
 9341TIP3    H249515   5.887   3.454  11.446  0.4006  0.2311  0.2810
 9342TIP3   OH249516   4.407   1.780   5.378  0.5403  0.5732  0.1247
 9342TIP3    H149517   4.367   1.854   5.333 -1.9569 -1.0015 -0.3629
 9342TIP3    H249518   4.350   1.706   5.357  1.1831 -0.8641  3.1650
 9343TIP3   OH249519   0.869   5.673  13.084  0.0728  0.0643  0.1522
 9343TIP3    H149520   0.796   5.735  13.094  0.4314  0.2056  2.1339
 9343TIP3    H249521   0.862   5.616  13.160  0.3055 -1.7685 -1.1832
 9344TIP3   OH249522   6.730   0.154   2.724 -0.3191 -0.2311 -0.1096
 9344TIP3    H149523   6.774   0.139   2.640  0.0378 -1.1985  0.2378
 9344TIP3    H249524   6.668   0.081   2.731 -1.6532  0.8610 -0.3773
 9345TIP3   OH249525   4.077   2.272   4.419  0.1367 -0.0671  0.3945
 9345TIP3    H149526   3.987   2.254   4.447  0.6584 -2.5583  0.5140
 9345TIP3    H249527   4.123   2.189   4.430  1.4935  0.0856 -3.5750
 9346TIP3   OH249528   2.372   0.166  16.148  0.1928 -0.2968 -0.3512
 9346TIP3    H149529   2.446   0.173  16.088  0.4886 -1.0373 -0.0760
 9346TIP3    H249530   2.337   0.255  16.154  0.9735  0.0289 -0.5902
 9347TIP3   OH249531   5.573   1.091   0.598  0.5016 -0.0330  0.5278
 9347TIP3    H149532   5.527   1.144   0.663  0.1952 -0.8312  0.9759
 9347TIP3    H249533   5.535   1.117   0.514 -0.3417 -0.2374  0.8399
 9348TIP3   OH249534   5.491   3.778  14.234 -0.2116  0.2833 -0.0805
 9348TIP3    H149535   5.461   3.842  14.299 -0.3951 -1.0135  1.1305
 9348TIP3    H249536   5.423   3.779  14.167 -2.1144 -1.2899  1.7479
 9349TIP3   OH249537   2.873   4.620  16.333 -0.1326 -0.1359  0.0472
 9349TIP3    H149538   2.965   4.621  16.306 -0.1999  0.5393 -0.1520
 9349TIP3    H249539   2.826   4.588  16.256 -0.4910  3.2011 -1.1741
 9350TIP3   OH249540   0.969   2.456  15.105  0.7031 -0.1452  0.1452
 9350TIP3    H149541   0.930   2.518  15.167 -0.0007  0.6874 -1.1089
 9350TIP3    H249542   0.901   2.389  15.092  0.8177 -0.2716  0.1952
 9351TIP3   OH249543   0.572   2.938   3.345  0.5374  0.0633 -0.1171
 9351TIP3    H149544   0.620   3.019   3.362  0.6341 -0.0280  0.0534
 9351TIP3    H249545   0.596   2.881   3.418 -0.2988  0.2231  0.2864
 9352TIP3   OH249546   4.952   6.402   3.008 -0.0364 -0.1259 -0.5396
 9352TIP3    H149547   4.861   6.374   3.020 -0.1842 -0.8854 -3.2369
 9352TIP3    H249548   4.946   6.489   2.970  0.3642 -0.4928 -1.4398
 9353TIP3   OH249549   1.092   5.285  11.581  0.1805  0.1909 -0.0457
 9353TIP3    H149550   1.145   5.242  11.514 -0.4727 -0.1832 -0.3235
 9353TIP3    H249551   1.021   5.328  11.532  0.8048  1.5615  0.2232
 9354TIP3   OH249552   2.769   0.751  16.357  0.0873  0.5180  0.3682
 9354TIP3    H149553   2.717   0.677  16.388 -0.2578  0.0588 -1.2454
 9354TIP3    H249554   2.710   0.798  16.299  0.0263  2.5579  2.0341
 9355TIP3   OH249555   6.068   3.147  16.940  0.1761 -0.2756 -0.6084
 9355TIP3    H149556   6.040   3.128  17.030  2.8106  1.3499  0.5934
 9355TIP3    H249557   6.160   3.121  16.937  0.9128  2.3016 -2.0152
 9356TIP3   OH249558   1.181   4.317  12.229  0.2004 -0.0959  0.5285
 9356TIP3    H149559   1.098   4.303  12.184  0.4897 -0.8499  0.2286
 9356TIP3    H249560   1.232   4.238  12.211  0.3103 -0.4175  2.2018
 9357TIP3   OH249561   6.475   5.473   5.820  0.1818  0.6726  0.5132
 9357TIP3    H149562   6.381   5.490   5.826  0.4870  1.6698  2.8600
 9357TIP3    H249563   6.504   5.525   5.744 -1.2344 -0.1623 -0.6379
 9358TIP3   OH249564   4.909   5.147   4.348 -0.0321 -0.1614  0.0780
 9358TIP3    H149565   4.897   5.208   4.421 -0.7318 -0.7924  0.4978
 9358TIP3    H249566   4.983   5.091   4.376  0.0678 -0.0413  0.0551
 9359TIP3   OH249567   3.478   2.143   1.211  0.2606  0.9744 -0.6616
 9359TIP3    H149568   3.384   2.126   1.213  0.4121  0.2158  0.2904
 9359TIP3    H249569   3.486   2.237   1.228 -0.3109  0.9551 -0.2717
 9360TIP3   OH249570   3.640   3.247   4.633 -0.1032  0.0121 -0.2059
 9360TIP3    H149571   3.723   3.218   4.595 -1.0568  1.5950 -3.7018
 9360TIP3    H249572   3.664   3.315   4.695  1.4092 -1.5699  0.9794
 9361TIP3   OH249573   3.292   0.805   6.018 -0.1792 -0.1635 -0.2713
 9361TIP3    H149574   3.236   0.829   5.944 -0.9413 -0.0613  0.3296
 9361TIP3    H249575   3.251   0.847   6.094 -0.3157 -1.5731  0.4543
 9362TIP3   OH249576   5.712   0.371  15.284 -0.5716 -0.6014 -0.9167
 9362TIP3    H149577   5.725   0.386  15.190 -0.2831  1.0459 -0.6341
 9362TIP3    H249578   5.801   0.367  15.320 -0.6879 -0.8563 -0.6588
 9363TIP3   OH249579   3.177   1.072  17.234  0.6406  0.3773 -0.0848
 9363TIP3    H149580   3.208   1.009  17.170 -0.3450  1.5331 -1.7353
 9363TIP3    H249581   3.153   1.149  17.183 -1.5125  0.8146  1.4778
 9364TIP3   OH249582   6.031   6.424  13.539  0.0696  0.4084 -0.1544
 9364TIP3    H149583   6.058   6.415  13.631 -0.1648  1.1888  0.0001
 9364TIP3    H249584   6.048   6.516  13.519  0.7896  0.0675 -1.1189
 9365TIP3   OH249585   4.849   4.216   1.923  0.0772 -0.3035  0.4424
 9365TIP3    H149586   4.790   4.192   1.994 -1.6493  1.7311 -0.2814
 9365TIP3    H249587   4.865   4.309   1.934  1.5670 -0.4155 -0.5621
 9366TIP3   OH249588   6.524   1.604   1.432 -0.1003  0.1331 -0.5511
 9366TIP3    H149589   6.445   1.556   1.454  1.1603 -0.4941  2.9466
 9366TIP3    H249590   6.588   1.537   1.410  0.4439  0.4217  0.1138
 9367TIP3   OH249591   2.519   2.670  14.324 -0.0722 -0.3183  0.6273
 9367TIP3    H149592   2.485   2.581  14.324  0.8770 -0.6938  1.3074
 9367TIP3    H249593   2.463   2.716  14.388 -1.4788 -0.0446 -0.7728
 9368TIP3   OH249594   6.645   2.681  16.579 -0.1962  0.7388  0.3854
 9368TIP3    H149595   6.612   2.608  16.527 -1.4432  0.7743  1.1203
 9368TIP3    H249596   6.661   2.643  16.665  1.5668  0.7546  0.0889
 9369TIP3   OH249597   0.659   1.927  13.406  0.1893  0.0289  0.1671
 9369TIP3    H149598   0.725   1.990  13.434 -0.1476  1.1417 -1.4561
 9369TIP3    H249599   0.577   1.977  13.405  0.0286 -0.2257 -1.7701
 9370TIP3   OH249600   5.922   6.769   3.521 -0.0207  0.4307 -0.0109
 9370TIP3    H149601   5.969   6.705   3.469  1.9761  0.3188  1.8994
 9370TIP3    H249602   5.831   6.764   3.489  1.1733  0.5855 -3.6490
 9371TIP3   OH249603   3.682   6.780  14.102  0.2901  0.0323  0.3369
 9371TIP3    H149604   3.734   6.708  14.138 -0.5738 -0.8667 -0.1896
 9371TIP3    H249605   3.729   6.804  14.022  1.1984  0.8089  1.0980
 9372TIP3   OH249606   2.507   4.299  13.486 -0.0343 -0.1853 -0.4763
 9372TIP3    H149607   2.564   4.284  13.411  0.7952 -1.3317  0.3621
 9372TIP3    H249608   2.443   4.228  13.483  1.0453 -1.2309  0.8601
 9373TIP3   OH249609   1.418   5.166  16.815 -0.4967 -0.7631 -0.2821
 9373TIP3    H149610   1.389   5.109  16.886 -0.1120 -2.8849 -1.7687
 9373TIP3    H249611   1.507   5.191  16.839 -0.4996 -1.1700  0.1667
 9374TIP3   OH249612   3.300   0.282   3.262 -0.1416  0.5457  0.0030
 9374TIP3    H149613   3.366   0.338   3.221 -0.2066  0.2694 -0.4861
 9374TIP3    H249614   3.257   0.238   3.188 -0.0529 -0.1842  0.3880
 9375TIP3   OH249615   3.667   4.468   4.080 -0.1211 -0.1565 -0.0630
 9375TIP3    H149616   3.684   4.520   4.001  4.0781 -0.2201  0.6913
 9375TIP3    H249617   3.621   4.527   4.139  0.2946  1.1501 -1.0362
 9376TIP3   OH249618   4.348   5.358  16.300 -0.0760  0.0125 -0.5224
 9376TIP3    H149619   4.404   5.388  16.372  2.1433 -1.5358 -1.5498
 9376TIP3    H249620   4.260   5.358  16.337  0.5575  2.5244  1.1276
 9377TIP3   OH249621   1.106   0.819  14.432 -0.3206 -0.2817 -0.1496
 9377TIP3    H149622   1.094   0.808  14.338 -0.4887  1.2090 -0.3077
 9377TIP3    H249623   1.200   0.804  14.445 -0.7719 -3.4278 -0.1086
 9378TIP3   OH249624   3.033   1.636  13.925  0.5799  0.2544 -0.2862
 9378TIP3    H149625   2.950   1.655  13.882  0.7102 -0.7880 -1.0001
 9378TIP3    H249626   3.008   1.606  14.013  0.2759  1.4169  0.0318
 9379TIP3   OH249627   4.304   2.778  15.917 -0.4184  0.0441  0.3362
 9379TIP3    H149628   4.350   2.754  15.836 -0.9347  1.1067 -0.2699
 9379TIP3    H249629   4.338   2.716  15.982  0.3890 -0.4796 -0.5647
 9380TIP3   OH249630   1.328   3.741   6.368  0.6181  0.3757  0.5762
 9380TIP3    H149631   1.283   3.673   6.319 -0.0006 -0.2384  1.9615
 9380TIP3    H249632   1.286   3.823   6.340 -1.5611 -0.2099  2.0136
 9381TIP3   OH249633   0.591   5.153  15.859 -0.7594 -0.0603 -0.1320
 9381TIP3    H149634   0.588   5.131  15.766 -1.3377  1.1739 -0.4201
 9381TIP3    H249635   0.683   5.170  15.877 -0.8512  1.2513 -0.8603
 9382TIP3   OH249636   2.514   6.567  11.001 -0.2165  0.2370  0.5257
 9382TIP3    H149637   2.527   6.557  10.907  0.1311  0.0137  0.5978
 9382TIP3    H249638   2.593   6.612  11.032  0.9402 -2.1256  1.1455
 9383TIP3   OH249639   1.785   1.871  14.323 -0.1981 -0.0155  0.2512
 9383TIP3    H149640   1.788   1.962  14.296 -0.5242 -0.4531 -1.3379
 9383TIP3    H249641   1.693   1.846  14.312 -0.0010 -0.6974  0.1301
 9384TIP3   OH249642   1.772   2.889   4.844 -0.5407 -0.3650  0.5525
 9384TIP3    H149643   1.711   2.939   4.898 -0.1034 -0.0510  0.7635
 9384TIP3    H249644   1.750   2.797   4.860  0.0409 -0.2900  1.8037
 9385TIP3   OH249645   3.233   1.822   2.310  0.2097 -0.6889  0.1469
 9385TIP3    H149646   3.186   1.905   2.316 -1.0110 -1.3541 -0.1312
 9385TIP3    H249647   3.167   1.755   2.328  1.1795 -1.6022  0.3479
 9386TIP3   OH249648   1.884   0.490   5.659 -0.7897  0.0627  0.0318
 9386TIP3    H149649   1.897   0.552   5.588 -0.1153  0.3875  0.4343
 9386TIP3    H249650   1.854   0.410   5.616 -0.5628  0.3159 -0.5981
 9387TIP3   OH249651   3.097   3.924  12.902 -0.1806  0.0995 -1.1113
 9387TIP3    H149652   3.132   3.990  12.962  1.1953 -0.5613 -1.1596
 9387TIP3    H249653   3.003   3.919  12.923  0.1790  0.2939  0.5919
 9388TIP3   OH249654   0.674   3.233  15.270 -0.2318  0.7975 -0.1369
 9388TIP3    H149655   0.755   3.277  15.245  0.7557 -0.7675  0.2384
 9388TIP3    H249656   0.643   3.281  15.347 -0.4419  2.2919 -1.1369
 9389TIP3   OH249657   4.586   3.159  14.241  0.2668 -0.0270 -0.7725
 9389TIP3    H149658   4.662   3.213  14.260  1.3042 -1.8974  0.5363
 9389TIP3    H249659   4.532   3.166  14.320  1.4787 -2.6517  0.3274
 9390TIP3   OH249660   0.511   2.989   0.961  0.3888  0.0264  0.3335
 9390TIP3    H149661   0.480   3.052   0.896 -0.5749 -0.8134 -0.0261
 9390TIP3    H249662   0.595   2.959   0.926 -0.2703 -0.6588 -0.6949
 9391TIP3   OH249663   3.885   0.363  10.894  0.1441 -0.1572 -0.4069
 9391TIP3    H149664   3.867   0.441  10.946  0.8103  1.9697 -3.2462
 9391TIP3    H249665   3.801   0.342  10.852 -0.0464 -1.0071  0.3916
 9392TIP3   OH249666   2.590   5.070  12.920 -0.3654 -0.0801  0.0577
 9392TIP3    H149667   2.629   5.021  12.848 -1.0977  0.4807 -0.7314
 9392TIP3    H249668   2.626   5.158  12.911  0.0355 -0.1612  0.7744
 9393TIP3   OH249669   4.429   5.041   4.023 -0.0910  0.4146  0.6890
 9393TIP3    H149670   4.512   4.993   4.027  0.1601  0.9168  1.6306
 9393TIP3    H249671   4.363   4.973   4.010  0.4698  0.0139 -0.1074
 9394TIP3   OH249672   4.216   4.975   5.895  0.4322 -0.4389  0.3759
 9394TIP3    H149673   4.162   4.945   5.968  2.0083 -0.5901  1.5159
 9394TIP3    H249674   4.245   4.895   5.852  1.9762 -0.4848  1.4470
 9395TIP3   OH249675   5.565   4.630  12.681  0.1140  0.8420 -0.0816
 9395TIP3    H149676   5.485   4.676  12.706  1.7697  3.4633  0.5853
 9395TIP3    H249677   5.599   4.679  12.606  1.4966  0.2300  0.1159
 9396TIP3   OH249678   0.510   5.067  13.830  0.1985 -0.1181 -0.3740
 9396TIP3    H149679   0.593   5.018  13.831  0.1456 -0.2032  0.7444
 9396TIP3    H249680   0.535   5.157  13.848  0.1898  0.1206 -1.4853
 9397TIP3   OH249681   5.106   0.008   6.070 -0.1667 -0.3096  0.2356
 9397TIP3    H149682   5.082   0.017   6.162  1.0125 -1.9420  0.7166
 9397TIP3    H249683   5.078  -0.080   6.046 -0.0357 -0.0659 -0.8413
 9398TIP3   OH249684   2.351   2.807  14.504 -0.2665 -0.3962  0.0140
 9398TIP3    H149685   2.357   2.803  14.600  1.7508 -1.0324 -0.1133
 9398TIP3    H249686   2.283   2.871  14.487  1.1827  1.7052  1.8629
 9399TIP3   OH249687   6.180   5.612  14.720 -0.4172 -0.4851  0.2763
 9399TIP3    H149688   6.212   5.561  14.795  0.4862 -0.4091 -0.0478
 9399TIP3    H249689   6.235   5.691  14.720 -2.0021  0.6504  0.9614
 9400TIP3   OH249690   5.999   4.324   5.175 -0.0061 -0.2190 -0.2109
 9400TIP3    H149691   6.090   4.341   5.150 -0.0219 -0.7065 -0.6090
 9400TIP3    H249692   5.991   4.228   5.170 -0.1509 -0.2882  1.1436
 9401TIP3   OH249693   5.855   3.561  16.038  0.3368  0.2433  0.3114
 9401TIP3    H149694   5.943   3.598  16.046  1.2874 -1.0946 -2.9990
 9401TIP3    H249695   5.807   3.627  15.988 -0.1433  0.3323  0.8921
 9402TIP3   OH249696   2.614   6.522   0.455  0.9636 -0.2277  0.8323
 9402TIP3    H149697   2.646   6.608   0.483  0.8279  0.7897 -1.9329
 9402TIP3    H249698   2.673   6.497   0.384 -0.5340 -1.2596 -0.0637
 9403TIP3   OH249699   1.344   5.223   3.259 -0.2435  0.4709 -0.2063
 9403TIP3    H149700   1.347   5.201   3.352 -0.9687  1.1334 -0.0320
 9403TIP3    H249701   1.425   5.271   3.243  0.5829 -0.9013 -0.2392
 9404TIP3   OH249702   4.580   4.327  13.431 -0.5731  0.5404  0.3665
 9404TIP3    H149703   4.540   4.386  13.368 -0.4429  0.7115  0.4461
 9404TIP3    H249704   4.623   4.384  13.494 -0.7882  0.3732  0.6686
 9405TIP3   OH249705   0.292   4.615  14.757 -0.3231 -0.1256 -0.2203
 9405TIP3    H149706   0.199   4.597  14.746 -0.6430  1.0605  0.3682
 9405TIP3    H249707   0.310   4.685  14.695  0.2706 -0.6306 -0.6169
 9406TIP3   OH249708   5.304   5.471  10.696  0.0397 -0.0108 -0.7408
 9406TIP3    H149709   5.210   5.458  10.703  0.1707 -0.4052  0.3201
 9406TIP3    H249710   5.317   5.501  10.606 -1.1923  0.9081 -0.6201
 9407TIP3   OH249711   2.921   5.016  15.803  0.2121 -0.4133 -0.4133
 9407TIP3    H149712   2.940   5.032  15.896  3.0677  1.7112 -1.2683
 9407TIP3    H249713   2.931   4.921  15.792  0.3876 -0.6090  1.3489
 9408TIP3   OH249714   1.233   2.959   6.134 -0.2016 -0.4905 -0.4415
 9408TIP3    H149715   1.207   2.868   6.152  0.7142 -0.9109 -1.1863
 9408TIP3    H249716   1.162   3.012   6.171  0.3870 -1.4134  2.1230
 9409TIP3   OH249717   1.094   2.539   4.961 -0.6230 -0.0212 -0.0077
 9409TIP3    H149718   1.065   2.448   4.966 -0.8557  0.0261 -0.4263
 9409TIP3    H249719   1.035   2.579   4.897  0.1504  0.1560 -0.6178
 9410TIP3   OH249720   6.758   0.124  15.115  0.7244 -0.2211 -0.3075
 9410TIP3    H149721   6.727   0.199  15.064  1.5961 -0.0256 -0.5618
 9410TIP3    H249722   6.769   0.054  15.051 -0.7491 -0.7954  0.0313
 9411TIP3   OH249723   4.678   0.059  14.146 -0.7507  0.4855 -0.2835
 9411TIP3    H149724   4.742   0.052  14.216 -0.8330 -0.5282 -0.3071
 9411TIP3    H249725   4.593   0.054  14.190 -0.8165  1.3999 -0.2967
 9412TIP3   OH249726   3.807   3.597  11.901  0.6638 -0.4824 -0.3422
 9412TIP3    H149727   3.839   3.673  11.852  1.3452 -0.2978  0.3799
 9412TIP3    H249728   3.725   3.627  11.941  0.2854 -0.5252 -1.0743
 9413TIP3   OH249729   1.613   0.926  13.891 -0.2858  0.3613 -0.1740
 9413TIP3    H149730   1.602   0.877  13.810  0.5752 -2.1902  1.1965
 9413TIP3    H249731   1.704   0.911  13.916  0.3485  3.6270 -0.2830
 9414TIP3   OH249732   4.011   0.031   2.310  0.1442 -0.1057 -0.2646
 9414TIP3    H149733   4.097   0.009   2.346 -0.5365 -0.9184  0.9091
 9414TIP3    H249734   3.976   0.097   2.370  0.5999  1.4244 -1.6448
 9415TIP3   OH249735   1.132   1.553  17.108  0.7019 -0.3276  0.2715
 9415TIP3    H149736   1.056   1.500  17.084  2.1190 -1.3140 -2.1397
 9415TIP3    H249737   1.158   1.519  17.194 -0.8970 -0.7258  0.6152
 9416TIP3   OH249738   6.195   5.882  16.481  0.2258 -0.0528 -0.3993
 9416TIP3    H149739   6.143   5.807  16.508 -1.1175  0.3968 -1.6568
 9416TIP3    H249740   6.223   5.862  16.392  1.7417 -0.0275  0.0448
 9417TIP3   OH249741   4.453   3.104  16.092 -0.2536  0.1209  0.5881
 9417TIP3    H149742   4.486   3.104  16.002  0.9122 -0.7268  1.0143
 9417TIP3    H249743   4.402   3.186  16.098  1.2240  1.1339 -0.2605
 9418TIP3   OH249744   3.441   3.304  13.995  0.3629 -0.2260  0.0047
 9418TIP3    H149745   3.480   3.391  13.983  1.5110 -0.4868  1.6320
 9418TIP3    H249746   3.354   3.323  14.031  1.9513  0.2338  3.8410
 9419TIP3   OH249747   0.754   1.852  13.660 -0.7578 -0.4588 -0.3268
 9419TIP3    H149748   0.774   1.884  13.572 -2.0922 -4.4531 -2.1864
 9419TIP3    H249749   0.764   1.757  13.654 -3.4853 -1.0546  3.1380
 9420TIP3   OH249750   3.777   0.603  15.497 -0.1599 -0.0419  0.3227
 9420TIP3    H149751   3.698   0.555  15.524  0.0511  0.3593  1.7005
 9420TIP3    H249752   3.826   0.615  15.578 -0.3841  2.8426  0.0797
 9421TIP3   OH249753   2.013   2.618   5.234  0.8253  0.6012  0.4964
 9421TIP3    H149754   2.066   2.569   5.297  1.8561 -0.4503 -1.1577
 9421TIP3    H249755   2.074   2.678   5.192  0.3425  0.6371 -0.1652
 9422TIP3   OH249756   0.584   1.437  15.801  0.0288  0.0796  0.4735
 9422TIP3    H149757   0.554   1.525  15.778 -1.1985 -0.3211  0.5272
 9422TIP3    H249758   0.679   1.443  15.799 -0.0363  1.5882  1.1198
 9423TIP3   OH249759   6.792   5.050  16.567  0.4450 -0.1352 -0.6927
 9423TIP3    H149760   6.860   5.082  16.508  0.2526 -0.0900 -0.8897
 9423TIP3    H249761   6.834   4.979  16.616  0.8899  0.4530 -0.2107
 9424TIP3   OH249762   3.679   1.474   2.686  0.2842 -0.7353 -0.6659
 9424TIP3    H149763   3.707   1.531   2.614 -2.6175  1.2022 -0.3467
 9424TIP3    H249764   3.644   1.396   2.643 -0.6084  0.0256 -1.3305
 9425TIP3   OH249765   0.037   5.184   0.152  1.1673 -0.2610 -0.1692
 9425TIP3    H149766   0.126   5.170   0.119  1.6744 -0.4817  1.2643
 9425TIP3    H249767   0.029   5.121   0.224 -0.1051 -0.1385 -0.2018
 9426TIP3   OH249768   3.386   6.719  17.156 -0.0611 -0.4707  0.1224
 9426TIP3    H149769   3.429   6.802  17.142 -1.3520  0.4183  1.2899
 9426TIP3    H249770   3.455   6.660  17.188  0.4549  0.6668  1.1098
 9427TIP3   OH249771   3.720   0.608  16.882 -0.3176  0.2734 -0.4049
 9427TIP3    H149772   3.755   0.520  16.864  0.8561  0.4407  0.9076
 9427TIP3    H249773   3.792   0.653  16.928 -1.3290  1.5220 -0.0126
 9428TIP3   OH249774   5.955   0.112  13.879 -0.2260  0.3831  0.2430
 9428TIP3    H149775   5.890   0.049  13.848 -0.3529  0.7540 -0.2706
 9428TIP3    H249776   6.037   0.084  13.839 -0.2874  0.5525 -0.0060
 9429TIP3   OH249777   6.790   6.738   4.800 -0.1729  0.3161 -0.4054
 9429TIP3    H149778   6.747   6.821   4.821 -1.0811 -0.0803 -0.6596
 9429TIP3    H249779   6.828   6.752   4.713 -0.0804  0.5599 -0.3261
 9430TIP3   OH249780   4.074   1.754  11.036  0.3388 -0.6773 -0.1340
 9430TIP3    H149781   4.060   1.756  10.941  0.9247 -0.7435 -0.2210
 9430TIP3    H249782   4.090   1.846  11.059  1.7243 -0.8535 -0.3315
 9431TIP3   OH249783   2.988   0.826  17.245  0.2663  0.0192  0.1258
 9431TIP3    H149784   2.921   0.758  17.246  0.5913 -0.3104 -0.4943
 9431TIP3    H249785   3.057   0.792  17.302  0.5102 -0.2522 -0.3329
 9432TIP3   OH249786   0.385   2.028   4.938  0.8793  0.3624 -0.1780
 9432TIP3    H149787   0.478   2.050   4.948  0.8623  0.3913 -0.0806
 9432TIP3    H249788   0.373   2.018   4.843  0.6191  1.9485 -0.3243
 9433TIP3   OH249789   0.515   2.531   0.076 -0.4127  0.0416  0.0721
 9433TIP3    H149790   0.502   2.570   0.163  1.0492 -0.4765  0.5339
 9433TIP3    H249791   0.454   2.457   0.073  1.1334 -1.3312  1.5555
 9434TIP3   OH249792   4.032   1.958   3.864  0.0210 -0.3183  0.3818
 9434TIP3    H149793   3.951   1.914   3.836 -0.0034  0.4836 -0.8117
 9434TIP3    H249794   4.094   1.887   3.879 -0.0487 -0.7794 -1.4576
 9435TIP3   OH249795   5.997   2.364   2.108 -0.1092  0.0500 -0.2330
 9435TIP3    H149796   5.938   2.365   2.183  0.5698 -1.3434  0.3583
 9435TIP3    H249797   6.074   2.412   2.138 -0.0553 -0.0465 -0.2147
 9436TIP3   OH249798   0.483   3.328  17.122  0.0262 -0.5885  0.1024
 9436TIP3    H149799   0.495   3.235  17.100  1.5981 -0.3045 -0.2481
 9436TIP3    H249800   0.524   3.338  17.208 -0.2493 -0.2282  0.1957
 9437TIP3   OH249801   3.781   2.347  15.343 -0.2454 -0.0684 -0.2723
 9437TIP3    H149802   3.761   2.417  15.405 -1.4493 -0.2777 -0.4145
 9437TIP3    H249803   3.698   2.329  15.298  0.0137 -1.6423 -0.1738
 9438TIP3   OH249804   0.398   3.149  11.780 -0.1415 -0.2220 -0.0716
 9438TIP3    H149805   0.364   3.070  11.824  0.1925  1.1916  2.8664
 9438TIP3    H249806   0.320   3.195  11.749 -0.6456  0.3982  2.0211
 9439TIP3   OH249807   6.215   0.903  17.255  0.4105 -0.7063 -0.2660
 9439TIP3    H149808   6.273   0.890  17.330 -0.2084 -0.0116  0.3511
 9439TIP3    H249809   6.195   0.815  17.225 -0.2524 -1.0497  1.1204
 9440TIP3   OH249810   3.418   6.176  15.542 -0.2935 -0.2361  0.0763
 9440TIP3    H149811   3.393   6.138  15.458 -2.0947  0.9632  0.0560
 9440TIP3    H249812   3.468   6.254  15.520 -0.8879  0.1558  0.1321
 9441TIP3   OH249813   1.740   2.897   1.396 -0.5826  0.3193 -0.2237
 9441TIP3    H149814   1.782   2.811   1.407 -1.3045 -0.1555 -1.0982
 9441TIP3    H249815   1.706   2.917   1.483 -0.8452 -0.5300 -0.1164
 9442TIP3   OH249816   4.715   3.382   0.264  0.1520  0.3396  0.2732
 9442TIP3    H149817   4.627   3.386   0.301 -0.2099  0.1999 -0.5773
 9442TIP3    H249818   4.703   3.393   0.170  0.8709 -1.3285 -0.0450
 9443TIP3   OH249819   6.466   6.321   1.744  0.1127 -0.0904  0.1662
 9443TIP3    H149820   6.489   6.374   1.669 -3.1349  0.4430 -0.5351
 9443TIP3    H249821   6.497   6.233   1.722  1.5016  0.6013 -0.6400
 9444TIP3   OH249822   1.885   5.920   0.074 -0.3557  0.5175  0.6609
 9444TIP3    H149823   1.954   5.903   0.010 -0.1606  0.1725  0.9593
 9444TIP3    H249824   1.832   5.989   0.034  0.7073  1.4549  0.8138
 9445TIP3   OH249825   2.667   3.796  14.044  0.3087  0.3068 -0.2370
 9445TIP3    H149826   2.743   3.838  14.085  0.6151  0.3961 -0.8940
 9445TIP3    H249827   2.698   3.768  13.958 -0.8146  1.7336 -1.1328
 9446TIP3   OH249828   3.782   5.016   4.758  0.2719 -0.5994  0.0836
 9446TIP3    H149829   3.755   5.019   4.667  0.2890  0.5041  0.1039
 9446TIP3    H249830   3.806   4.924   4.774 -0.8926 -1.0347 -0.6679
 9447TIP3   OH249831   6.631   3.808   1.644 -0.0050  0.4582 -0.2646
 9447TIP3    H149832   6.620   3.778   1.734  0.1447 -2.2666 -1.0955
 9447TIP3    H249833   6.717   3.775   1.618  1.8935  4.8993 -0.0944
 9448TIP3   OH249834   5.906   0.013  17.287  0.2245 -0.4909  0.3090
 9448TIP3    H149835   5.840   0.083  17.281  0.1812 -0.4750  1.0195
 9448TIP3    H249836   5.984   0.057  17.320 -0.6510 -1.3349  3.6370
 9449TIP3   OH249837   4.675   6.685  16.534  0.4159 -0.3495 -0.6843
 9449TIP3    H149838   4.658   6.736  16.613  1.1454  1.1303 -1.4682
 9449TIP3    H249839   4.683   6.595  16.565  0.5866  0.2024  0.9103
 9450TIP3   OH249840   4.719   4.582  11.720 -0.3793  0.2266  0.0997
 9450TIP3    H149841   4.709   4.668  11.761 -0.1290  1.1551 -1.7315
 9450TIP3    H249842   4.630   4.547  11.717 -0.4412  0.2882  1.1431
 9451TIP3   OH249843   5.994   5.935   1.512 -0.5624  0.2093 -0.2535
 9451TIP3    H149844   6.054   5.986   1.566 -0.6027  1.2590 -1.1998
 9451TIP3    H249845   6.037   5.850   1.503 -0.4150  0.1167  1.1753
 9452TIP3   OH249846   2.109   5.883  17.181 -0.1313 -0.3307 -0.4421
 9452TIP3    H149847   2.098   5.971  17.146 -0.1573 -0.5005 -0.8636
 9452TIP3    H249848   2.100   5.826  17.105 -2.0457 -0.8229  0.1420
 9453TIP3   OH249849   5.783   0.000   0.758 -0.0742 -0.0016  0.0434
 9453TIP3    H149850   5.766   0.003   0.852  0.4846  0.9193  0.1271
 9453TIP3    H249851   5.698  -0.020   0.719 -0.4852  0.4448  0.6987
 9454TIP3   OH249852   1.361   4.779   2.868 -0.3303 -0.0140 -0.5754
 9454TIP3    H149853   1.370   4.686   2.847  1.5190 -0.1888  0.8430
 9454TIP3    H249854   1.451   4.812   2.870 -0.9365  1.7018 -0.5387
 9455TIP3   OH249855   1.368   2.112  14.860 -0.6362 -0.1018 -0.3144
 9455TIP3    H149856   1.289   2.159  14.886  0.5869  2.4596 -1.0827
 9455TIP3    H249857   1.434   2.138  14.924  0.0010 -0.9345 -0.6293
 9456TIP3   OH249858   5.177   2.817  10.847 -0.0123  0.2127  0.0349
 9456TIP3    H149859   5.149   2.895  10.799  0.7766  1.1568  1.0723
 9456TIP3    H249860   5.272   2.816  10.836  0.1945  0.5685  1.7544
 9457TIP3   OH249861   2.484   4.999   5.526 -0.4697  0.0315  0.3078
 9457TIP3    H149862   2.506   5.070   5.586 -0.3261  0.0639  0.2153
 9457TIP3    H249863   2.420   4.946   5.575  0.3767 -0.4860  0.8603
 9458TIP3   OH249864   1.894   0.523  13.397 -0.7944 -0.0204  0.4307
 9458TIP3    H149865   1.893   0.428  13.408  0.0011  0.0416  1.1522
 9458TIP3    H249866   1.802   0.548  13.389 -0.9214 -1.0575 -1.6676
 9459TIP3   OH249867   2.892   3.011  10.940  0.1129  0.4757  0.1757
 9459TIP3    H149868   2.811   2.960  10.941  0.9840 -0.9485 -0.0755
 9459TIP3    H249869   2.945   2.971  10.870  0.0610  2.9597 -1.3371
 9460TIP3   OH249870   2.123   1.118   7.079  0.0378  0.3201  0.3086
 9460TIP3    H149871   2.202   1.071   7.052  0.2464 -0.0564  1.5502
 9460TIP3    H249872   2.058   1.097   7.012  0.7209 -0.1023 -0.2253
 9461TIP3   OH249873   0.088   3.143   3.541  0.0140  0.0369  0.3490
 9461TIP3    H149874   0.117   3.167   3.453  1.3189 -0.5727  0.6042
 9461TIP3    H249875   0.118   3.215   3.597  1.9986 -1.0827  0.7737
 9462TIP3   OH249876   0.837   5.327  16.679 -0.1597  0.4434  0.0155
 9462TIP3    H149877   0.830   5.286  16.592  0.1295 -1.1831  0.7514
 9462TIP3    H249878   0.748   5.329  16.712  0.0824 -1.4770  0.8260
 9463TIP3   OH249879   4.027   6.510   2.759  0.2786  0.0011 -0.3043
 9463TIP3    H149880   3.987   6.459   2.688 -0.9066 -0.8126  0.9139
 9463TIP3    H249881   4.073   6.445   2.812 -0.4247  0.3163  0.7082
 9464TIP3   OH249882   4.794   5.182   3.564 -0.0765  0.0820  0.2665
 9464TIP3    H149883   4.757   5.112   3.511  0.1229  0.1698  0.0111
 9464TIP3    H249884   4.888   5.166   3.564 -0.2176 -0.7716  1.8297
 9465TIP3   OH249885   2.121   6.339   3.588 -0.3461  0.3869 -0.0000
 9465TIP3    H149886   2.133   6.325   3.682  1.2301 -0.4301 -0.2909
 9465TIP3    H249887   2.073   6.421   3.581 -0.5510  0.4031  1.5215
 9466TIP3   OH249888   1.016   3.559  17.046 -0.5197  0.1322 -0.5339
 9466TIP3    H149889   1.067   3.516  16.977 -0.5849  0.9905 -1.1275
 9466TIP3    H249890   0.972   3.631  17.002  2.8631  3.4321  1.1434
 9467TIP3   OH249891   4.563   1.088   5.295  0.6576  0.4813 -0.6490
 9467TIP3    H149892   4.491   1.062   5.353  0.7905  2.3965  0.4095
 9467TIP3    H249893   4.642   1.058   5.340  0.7576  1.9250  0.1728
 9468TIP3   OH249894   4.080   6.440   0.259 -0.2988  0.1034 -0.2643
 9468TIP3    H149895   4.022   6.385   0.207 -1.5296  1.8810 -0.8045
 9468TIP3    H249896   4.148   6.469   0.197 -0.8885  0.9550 -0.5239
 9469TIP3   OH249897   0.874   6.451  13.173  0.6101 -0.2113 -0.7552
 9469TIP3    H149898   0.884   6.357  13.162  0.2067 -0.3813  0.2812
 9469TIP3    H249899   0.827   6.461  13.255  1.5811  0.9294 -0.3151
 9470TIP3   OH249900   4.435   6.544   3.237 -0.6750 -0.0125 -0.3199
 9470TIP3    H149901   4.504   6.538   3.302 -0.4554  0.8522 -0.4637
 9470TIP3    H249902   4.398   6.456   3.232 -0.1126 -0.2852  0.3327
 9471TIP3   OH249903   3.611   1.527   2.228  0.6914  0.0703  0.1846
 9471TIP3    H149904   3.621   1.473   2.149 -3.7228 -1.1456  0.3446
 9471TIP3    H249905   3.677   1.493   2.289  1.7227 -1.3927 -1.6981
 9472TIP3   OH249906   5.925   2.378   0.505  0.5598 -0.3939 -0.1067
 9472TIP3    H149907   6.005   2.363   0.555  0.3714  2.2174  1.0627
 9472TIP3    H249908   5.931   2.469   0.476  0.2718 -1.5768 -4.2179
 9473TIP3   OH249909   4.845   5.868  10.971  0.6929  0.3227  0.5734
 9473TIP3    H149910   4.862   5.785  10.926 -0.5618  0.2732  0.1527
 9473TIP3    H249911   4.779   5.911  10.916 -0.6141  0.4186  2.1704
 9474TIP3   OH249912   1.748   5.972   1.253 -0.3514  0.2037 -0.2951
 9474TIP3    H149913   1.828   5.948   1.206 -0.4370  0.2535 -0.4687
 9474TIP3    H249914   1.767   5.954   1.345 -0.2866 -0.1739 -0.3826
 9475TIP3   OH249915   6.215   3.753   1.085 -0.3720  0.1738  0.1153
 9475TIP3    H149916   6.182   3.663   1.084 -0.4050  0.1911 -0.3302
 9475TIP3    H249917   6.239   3.768   1.177 -3.0620  0.6992  0.7678
 9476TIP3   OH249918   2.885   1.949   5.459  0.0786 -0.2897 -0.1138
 9476TIP3    H149919   2.816   1.952   5.392 -0.0394  0.9611  0.0648
 9476TIP3    H249920   2.966   1.937   5.409 -0.1673 -0.8578 -0.3822
 9477TIP3   OH249921   2.459   5.857   2.968 -0.1602  0.3223 -0.2833
 9477TIP3    H149922   2.417   5.824   2.888  3.2637 -1.1792 -1.5825
 9477TIP3    H249923   2.488   5.778   3.014  2.1278  1.2817 -0.0119
 9478TIP3   OH249924   2.052   5.582  16.438 -0.0402 -0.1081  0.2396
 9478TIP3    H149925   1.996   5.619  16.370 -1.6168 -1.0198  1.0114
 9478TIP3    H249926   2.121   5.535  16.390 -1.7673 -1.6770 -0.7498
 9479TIP3   OH249927   4.429   2.083  12.785  0.0168 -0.0231 -0.3767
 9479TIP3    H149928   4.335   2.100  12.775 -0.0515  0.8840  1.5435
 9479TIP3    H249929   4.468   2.170  12.794  0.6910 -0.5027  1.5068
 9480TIP3   OH249930   5.412   1.099   1.656  0.2606 -0.2126  0.0998
 9480TIP3    H149931   5.459   1.063   1.580  2.1965  0.9767  0.6970
 9480TIP3    H249932   5.407   1.193   1.639 -1.0897 -0.1973  0.5146
 9481TIP3   OH249933   4.114   4.644  12.805 -0.1586 -0.3403  0.2228
 9481TIP3    H149934   4.110   4.732  12.843  0.3428 -1.5102  3.0739
 9481TIP3    H249935   4.188   4.649  12.744  0.0045  1.1512  0.5097
 9482TIP3   OH249936   0.459   4.748  15.678  0.1763  0.1108  0.2101
 9482TIP3    H149937   0.496   4.661  15.666  2.1023  0.9191  0.0696
 9482TIP3    H249938   0.505   4.783  15.754 -1.5215  0.5269  1.0798
 9483TIP3   OH249939   6.258   3.547   5.412  0.7681 -0.2590 -0.1569
 9483TIP3    H149940   6.237   3.454   5.399  0.2411 -0.0932 -0.5416
 9483TIP3    H249941   6.244   3.586   5.326 -2.0468  0.7402  0.6885
 9484TIP3   OH249942   0.264   2.688  16.325 -0.6329  0.2586  0.5756
 9484TIP3    H149943   0.258   2.778  16.292 -1.4756  0.1192  0.3560
 9484TIP3    H249944   0.174   2.663  16.344 -0.3815 -0.4896  0.7929
 9485TIP3   OH249945   0.056   5.462   2.293  0.0656 -0.1203  0.3225
 9485TIP3    H149946   0.092   5.482   2.379  0.6608  0.9009 -0.1466
 9485TIP3    H249947  -0.039   5.467   2.304  0.1688  1.4980  0.5906
 9486TIP3   OH249948   3.126   6.036  13.359  0.5580 -0.6253 -0.5835
 9486TIP3    H149949   3.068   5.990  13.420  0.9981 -0.6480 -0.1806
 9486TIP3    H249950   3.208   6.047  13.407  1.2784 -1.6293 -1.5591
 9487TIP3   OH249951   2.499   2.297   1.590 -0.3734  0.0947  0.0986
 9487TIP3    H149952   2.534   2.227   1.536  0.2178 -0.3764  1.0907
 9487TIP3    H249953   2.552   2.296   1.669 -1.9864  0.0172  1.2064
 9488TIP3   OH249954   2.513   1.179  13.268 -0.1221  0.3426  0.2254
 9488TIP3    H149955   2.540   1.264  13.303 -1.0214  1.5216 -1.8570
 9488TIP3    H249956   2.576   1.116  13.306  1.9453  2.2268  0.0139
 9489TIP3   OH249957   2.638   3.607  11.819 -0.7452  0.3874 -0.4600
 9489TIP3    H149958   2.546   3.632  11.828 -0.5804  0.5936  0.7617
 9489TIP3    H249959   2.650   3.538  11.884  0.1756  0.9850  0.0252
 9490TIP3   OH249960   2.644   5.638  10.684  0.5786  0.5748  0.3115
 9490TIP3    H149961   2.552   5.613  10.673  0.7498 -1.5426  2.9816
 9490TIP3    H249962   2.641   5.731  10.705 -0.6705  1.2913 -2.8004
 9491TIP3   OH249963   5.426   2.078   4.990  0.2262  0.0856  0.3629
 9491TIP3    H149964   5.390   1.996   5.023  2.6571 -0.0853  2.7567
 9491TIP3    H249965   5.377   2.146   5.035  0.1098 -0.0686  0.4700
 9492TIP3   OH249966   5.293   0.693  12.737 -0.2509  0.2188  0.3166
 9492TIP3    H149967   5.249   0.735  12.663  0.7951  2.2801  0.8443
 9492TIP3    H249968   5.229   0.698  12.809 -0.3474  0.3608  0.2215
 9493TIP3   OH249969   3.940   2.499  14.992  0.2250 -0.1058  0.4070
 9493TIP3    H149970   3.937   2.447  15.073 -1.6286 -1.1264 -0.2689
 9493TIP3    H249971   4.021   2.472  14.949  0.0931 -1.2487  0.8490
 9494TIP3   OH249972   2.784   6.126  12.662  0.0631 -0.1488  0.1969
 9494TIP3    H149973   2.743   6.210  12.642 -0.2474 -0.3128  0.1520
 9494TIP3    H249974   2.854   6.118  12.597 -0.3448 -0.2416 -0.2318
 9495TIP3   OH249975   2.395   0.145  14.985 -0.2326 -0.1049  0.1798
 9495TIP3    H149976   2.406   0.231  15.024 -0.3567 -0.4440  0.9579
 9495TIP3    H249977   2.433   0.153  14.897 -1.7323  1.2105 -0.3808
 9496TIP3   OH249978   1.476   2.782   2.033 -0.0559 -0.2640 -0.0114
 9496TIP3    H149979   1.526   2.707   2.001 -0.1422 -0.9059  1.3124
 9496TIP3    H249980   1.541   2.839   2.074 -0.2809 -0.6566  0.8964
 9497TIP3   OH249981   0.708   6.498  15.715  0.3970  0.3617 -0.3193
 9497TIP3    H149982   0.723   6.431  15.781 -0.4125 -0.1526 -0.6617
 9497TIP3    H249983   0.739   6.579  15.756 -2.6499  0.5345  1.7355
 9498TIP3   OH249984   2.150   4.089   2.988 -0.0608  0.2321 -0.3395
 9498TIP3    H149985   2.139   4.161   2.926  0.9250  0.6155 -0.0870
 9498TIP3    H249986   2.183   4.131   3.068 -1.9001 -0.1697  0.6444
 9499TIP3   OH249987   6.092   0.196   5.599  0.0334 -0.5231 -0.3124
 9499TIP3    H149988   6.041   0.215   5.679 -0.8012 -0.0300 -0.9501
 9499TIP3    H249989   6.161   0.262   5.599  1.0947 -1.6121  0.9110
 9500TIP3   OH249990   0.603   4.149   4.794 -0.6014 -0.2378 -0.2027
 9500TIP3    H149991   0.615   4.109   4.708 -0.5632 -1.3847  0.3220
 9500TIP3    H249992   0.650   4.232   4.789  2.3555 -1.8488 -0.1871
 9501TIP3   OH249993   4.965   5.637  12.792  0.0215  0.4440  0.5295
 9501TIP3    H149994   4.977   5.732  12.789 -0.4027  0.4828 -0.1578
 9501TIP3    H249995   4.928   5.620  12.878 -2.2858  1.1948 -0.2913
 9502TIP3   OH249996   0.576   3.595   2.757  0.9462  0.0150 -1.3516
 9502TIP3    H149997   0.534   3.627   2.837  2.3177 -1.7763  0.1515
 9502TIP3    H249998   0.618   3.673   2.720  1.1997  0.6815  0.2631
 9503TIP3   OH249999   6.348   6.057  12.890  0.2196 -0.6743 -0.0250
 9503TIP3    H150000   6.300   6.034  12.969 -2.6448 -0.7318 -1.7039
 9503TIP3    H250001   6.340   5.979  12.834  0.4081  0.1191 -1.1684
 9504TIP3   OH250002   0.825   5.284  11.337 -0.2779 -0.1412 -0.1588
 9504TIP3    H150003   0.874   5.202  11.339  2.3532  1.3838  0.1112
 9504TIP3    H250004   0.793   5.296  11.427 -0.1808 -0.5852 -0.0675
 9505TIP3   OH250005   6.302   1.965   0.780  0.6216  0.3012 -0.0073
 9505TIP3    H150006   6.336   1.875   0.779 -1.1805 -0.4157  1.0252
 9505TIP3    H250007   6.344   2.005   0.856 -0.9076 -0.6283  1.3554
 9506TIP3   OH250008   0.248   5.844   0.875  0.0673 -0.0619 -0.2340
 9506TIP3    H150009   0.156   5.841   0.849  0.0216  0.4164 -0.1308
 9506TIP3    H250010   0.279   5.755   0.863 -1.2118 -0.9728  2.5772
 9507TIP3   OH250011   4.135   2.391  14.847 -0.0419 -0.3187  0.3237
 9507TIP3    H150012   4.218   2.367  14.887 -0.2270 -3.0934 -0.8244
 9507TIP3    H250013   4.158   2.457  14.782  1.4174 -1.6480 -0.5445
 9508TIP3   OH250014   5.550   0.252   4.508  0.0314  0.2457  0.3926
 9508TIP3    H150015   5.512   0.244   4.596 -2.5009 -0.5075 -0.7490
 9508TIP3    H250016   5.528   0.170   4.465  3.5768 -0.5142 -0.1081
 9509TIP3   OH250017   0.854   1.482  15.341  0.0562 -0.7957  0.3736
 9509TIP3    H150018   0.929   1.425  15.359  0.1055  0.0134  2.8854
 9509TIP3    H250019   0.850   1.485  15.246  2.0893 -2.3246  0.1809
 9510TIP3   OH250020   2.758   0.903  16.602 -0.1561 -0.8113 -0.0725
 9510TIP3    H150021   2.684   0.942  16.648  1.2672  1.4026  0.4474
 9510TIP3    H250022   2.723   0.878  16.517 -1.3380  1.0194 -0.1581
 9511TIP3   OH250023   2.002   6.525  17.009  0.1870  0.3262  0.3225
 9511TIP3    H150024   2.042   6.551  16.926  0.3829  1.0947  0.6462
 9511TIP3    H250025   1.977   6.608  17.050 -0.0896 -0.0584  0.9393
 9512TIP3   OH250026   2.645   0.928  13.619  0.4207  0.3182 -0.0402
 9512TIP3    H150027   2.689   0.976  13.549  1.5662 -0.4159  0.1598
 9512TIP3    H250028   2.638   0.992  13.690 -0.7726  1.0708 -0.8198
 9513TIP3   OH250029   0.882   0.036  15.127  0.0579 -0.5217 -0.0822
 9513TIP3    H150030   0.808   0.016  15.070  0.0641 -1.6744  0.3070
 9513TIP3    H250031   0.920   0.116  15.089 -0.2933 -0.9404 -1.3532
 9514TIP3   OH250032   2.836   2.709   3.266 -0.1730 -0.8909 -0.1606
 9514TIP3    H150033   2.857   2.682   3.176 -0.6640  1.8223 -1.1436
 9514TIP3    H250034   2.921   2.712   3.310  0.3912  0.4717 -1.3307
 9515TIP3   OH250035   4.786   3.338  15.019  0.0601 -0.4440  0.2695
 9515TIP3    H150036   4.759   3.247  15.009 -0.9049 -0.5147  3.0787
 9515TIP3    H250037   4.739   3.369  15.097  1.0741  2.1879 -0.1008
 9516TIP3   OH250038   6.499   4.070  11.497  0.1237  0.6899 -0.3458
 9516TIP3    H150039   6.412   4.081  11.537 -0.1325 -1.5486 -0.2099
 9516TIP3    H250040   6.529   3.985  11.528  2.5029  1.5591 -0.1987
 9517TIP3   OH250041   6.318   1.035   2.510  0.2316  0.0757 -0.0614
 9517TIP3    H150042   6.413   1.038   2.500  0.0264  0.6130 -1.9462
 9517TIP3    H250043   6.303   1.075   2.596  1.7131 -0.1479  0.3249
 9518TIP3   OH250044   0.220   6.144  11.096 -0.1043  0.2693 -0.3248
 9518TIP3    H150045   0.315   6.145  11.088 -0.2665  2.0136 -2.6729
 9518TIP3    H250046   0.190   6.079  11.033 -0.5548  1.6151 -1.5490
 9519TIP3   OH250047   5.811   3.540   0.537  0.1093  0.1535  0.1948
 9519TIP3    H150048   5.892   3.488   0.535  1.5348  2.3301 -1.2428
 9519TIP3    H250049   5.748   3.488   0.488  0.6802 -1.4786  1.1431
 9520TIP3   OH250050   0.771   5.274   4.500  0.0859  0.1530 -0.3308
 9520TIP3    H150051   0.844   5.287   4.440  1.3578  2.1101  1.5253
 9520TIP3    H250052   0.769   5.180   4.517  1.2721 -0.0944 -1.4936
 9521TIP3   OH250053   6.227   4.762   0.512  0.1644  0.5989  0.1384
 9521TIP3    H150054   6.288   4.690   0.495  1.1747  1.4210  0.2382
 9521TIP3    H250055   6.152   4.744   0.455  0.8780  0.0548 -0.6382
 9522TIP3   OH250056   4.342   3.976   0.283  0.8416  0.0690 -0.1361
 9522TIP3    H150057   4.411   3.911   0.294  1.4661  0.7652  0.0782
 9522TIP3    H250058   4.338   3.990   0.188  1.8338  0.9273 -0.0568
 9523TIP3   OH250059   5.025   3.156  11.602  0.2543 -0.1545  0.2420
 9523TIP3    H150060   5.067   3.076  11.571  0.4503  0.0988 -0.1408
 9523TIP3    H250061   4.987   3.195  11.524  2.8402  1.7603 -0.1154
 9524TIP3   OH250062   2.661   3.830  13.538 -0.6846  0.7278  0.5531
 9524TIP3    H150063   2.573   3.845  13.502 -0.9099 -2.8150 -0.6694
 9524TIP3    H250064   2.717   3.823  13.461 -0.0660 -0.8551  1.1137
 9525TIP3   OH250065   3.705   2.163   4.821  0.4585  0.2392 -0.3585
 9525TIP3    H150066   3.785   2.122   4.853 -0.2935  1.4588  3.4072
 9525TIP3    H250067   3.636   2.100   4.839 -0.0528  1.1697  1.0735
 9526TIP3   OH250068   1.399   3.862   1.595  0.4658 -0.0036  0.8881
 9526TIP3    H150069   1.455   3.890   1.667  0.9828 -1.3035  1.0197
 9526TIP3    H250070   1.455   3.867   1.518  0.3684 -0.0401  0.8151
 9527TIP3   OH250071   4.045   5.488  15.096  0.7767 -0.2558  0.2037
 9527TIP3    H150072   4.008   5.424  15.035  1.5412 -1.1705  0.6862
 9527TIP3    H250073   3.994   5.478  15.176  0.1925  0.4966 -0.0710
 9528TIP3   OH250074   1.739   2.358   4.423 -0.2686 -0.0548  0.1096
 9528TIP3    H150075   1.712   2.444   4.457  1.8351  0.5054  0.3969
 9528TIP3    H250076   1.826   2.373   4.386  1.0138 -2.5410  2.0183
 9529TIP3   OH250077   3.292   4.604   1.462  0.1299 -0.3667 -0.0004
 9529TIP3    H150078   3.246   4.521   1.476 -0.9606  0.0949 -0.7331
 9529TIP3    H250079   3.380   4.578   1.435  0.3833 -1.2610  1.6426
 9530TIP3   OH250080   5.763   1.367   1.037  0.1399  0.5732  0.1726
 9530TIP3    H150081   5.701   1.340   0.971  0.5768  0.8264 -0.3465
 9530TIP3    H250082   5.723   1.443   1.079 -0.2110  0.3089  0.3203
 9531TIP3   OH250083   1.116   2.603  15.438 -0.2538  0.6845 -0.2189
 9531TIP3    H150084   1.070   2.558  15.367  2.1156 -0.7654 -0.9102
 9531TIP3    H250085   1.064   2.586  15.516 -0.3153 -1.8565 -0.7797
 9532TIP3   OH250086   4.836   3.077   2.775  0.8007  0.5392 -0.4757
 9532TIP3    H150087   4.792   3.145   2.723 -1.7785  0.0739  1.0045
 9532TIP3    H250088   4.829   2.998   2.722  2.1036  0.9844 -1.3453
 9533TIP3   OH250089   6.565   4.591   3.432  0.0812 -0.7971  0.3164
 9533TIP3    H150090   6.474   4.585   3.403 -0.0262  1.1416  0.2157
 9533TIP3    H250091   6.594   4.678   3.405  1.8682 -1.2606  0.6518
 9534TIP3   OH250092   4.859   1.544   1.256  0.4768  0.7217  0.4170
 9534TIP3    H150093   4.952   1.530   1.239  0.4286  0.5873  0.2593
 9534TIP3    H250094   4.825   1.456   1.274 -0.3645  0.2540 -3.1929
 9535TIP3   OH250095   0.292   4.993  10.845 -0.0118 -0.1603  0.3425
 9535TIP3    H150096   0.304   4.994  10.750 -1.5875 -1.7292  0.1054
 9535TIP3    H250097   0.381   4.998  10.881  0.5643  0.9598 -1.1904
 9536TIP3   OH250098   0.237   2.129  13.826  0.0574  0.2738 -0.1232
 9536TIP3    H150099   0.147   2.116  13.856  0.3893  1.8072  1.6205
 9536TIP3    H250100   0.287   2.060  13.868  0.0863  0.8895  0.8787
 9537TIP3   OH250101   4.829   0.808   0.297 -0.1512 -0.2859  0.2491
 9537TIP3    H150102   4.807   0.737   0.236  1.8050 -0.3114 -0.4500
 9537TIP3    H250103   4.787   0.885   0.260  0.2221 -0.4914 -0.6140
 9538TIP3   OH250104   5.092   1.957  15.852  0.2963 -0.1619 -0.2777
 9538TIP3    H150105   5.090   1.868  15.889  1.9323 -0.1390 -0.1091
 9538TIP3    H250106   5.057   1.946  15.763  4.2911 -1.7560 -1.7813
 9539TIP3   OH250107   4.800   4.646   0.153  0.1392  0.2736  0.3121
 9539TIP3    H150108   4.761   4.566   0.117 -0.1420  0.4878  0.1371
 9539TIP3    H250109   4.812   4.703   0.077 -2.1723  1.4516  0.7775
 9540TIP3   OH250110   1.032   3.324  15.557  0.6314 -0.0806  0.2574
 9540TIP3    H150111   0.944   3.361  15.554  0.6451 -0.1776 -1.8280
 9540TIP3    H250112   1.088   3.398  15.581  0.3193  0.6366 -1.1816
 9541TIP3   OH250113   4.514   4.816   5.170 -0.3319  0.3639  0.3375
 9541TIP3    H150114   4.535   4.899   5.214 -2.2848  0.2434  1.5494
 9541TIP3    H250115   4.577   4.754   5.207 -0.8155  0.6545  1.6953
 9542TIP3   OH250116   5.951   1.302   0.671 -0.6984 -0.9413  0.0188
 9542TIP3    H150117   5.991   1.315   0.757  0.0959  0.7019 -0.5714
 9542TIP3    H250118   5.904   1.384   0.654  1.5558 -0.0684 -2.3472
 9543TIP3   OH250119   2.863   2.360   0.612  0.1942  0.5379  0.3851
 9543TIP3    H150120   2.897   2.357   0.522 -0.5650  1.7391  0.0428
 9543TIP3    H250121   2.930   2.407   0.661  1.0328 -0.9104  0.6581
 9544TIP3   OH250122   3.092   2.143   2.130 -0.2685  0.1404  0.0680
 9544TIP3    H150123   3.083   2.114   2.221 -1.1954 -1.4193 -0.5066
 9544TIP3    H250124   3.015   2.198   2.115 -0.9186 -0.8527 -0.2393
 9545TIP3   OH250125   4.873   4.001   0.167  0.3203 -0.4043  0.5077
 9545TIP3    H150126   4.786   3.978   0.200 -0.2194 -0.6113 -1.0446
 9545TIP3    H250127   4.920   3.917   0.161  0.1273 -0.4719 -0.0760
 9546TIP3   OH250128   3.259   2.022  12.314 -0.3589  0.0876 -0.2202
 9546TIP3    H150129   3.282   2.099  12.263 -1.3536  1.9000  1.9890
 9546TIP3    H250130   3.343   1.983  12.338  0.1417 -1.1148 -3.5635
 9547TIP3   OH250131   6.434   2.387  15.023 -0.2036  0.2948 -0.0098
 9547TIP3    H150132   6.427   2.482  15.018  0.6020  0.2690 -2.0591
 9547TIP3    H250133   6.401   2.365  15.110 -1.9454  2.3044 -0.1104
 9548TIP3   OH250134   0.177   0.643   5.107  0.2014  0.2039 -0.3141
 9548TIP3    H150135   0.221   0.697   5.172  0.1341  0.3758 -0.4103
 9548TIP3    H250136   0.166   0.700   5.031  0.8032 -0.1670 -0.6830
 9549TIP3   OH250137   4.056   0.590   3.619 -0.0687  0.2145  0.6353
 9549TIP3    H150138   3.967   0.557   3.624 -0.9178  2.4353  1.0109
 9549TIP3    H250139   4.100   0.555   3.697 -1.1746  0.6338  1.4592
 9550TIP3   OH250140   4.593   5.551  12.393 -0.5307  0.2042  0.9279
 9550TIP3    H150141   4.585   5.456  12.401 -1.2739  0.1420 -0.4069
 9550TIP3    H250142   4.662   5.575  12.455 -1.5508 -0.9779  2.5611
 9551TIP3   OH250143   1.044   5.317   5.541 -0.3325 -0.0694  0.6673
 9551TIP3    H150144   1.079   5.313   5.452 -2.2295 -0.9707 -0.0735
 9551TIP3    H250145   1.062   5.230   5.577 -1.5892 -0.4869  0.3341
 9552TIP3   OH250146   3.523   4.616   4.260 -0.3463  0.0003 -0.6219
 9552TIP3    H150147   3.525   4.566   4.341  0.0485 -0.9267 -1.1941
 9552TIP3    H250148   3.512   4.707   4.288  0.3194 -0.2514  0.4890
 9553TIP3   OH250149   3.948   2.354   4.896 -0.1232  0.0505 -0.8328
 9553TIP3    H150150   3.962   2.389   4.808  1.8521  0.0875 -0.5199
 9553TIP3    H250151   3.853   2.351   4.905 -0.3559 -0.4138 -3.1434
 9554TIP3   OH250152   3.572   1.306  11.186  0.1933  0.6199  0.4763
 9554TIP3    H150153   3.540   1.216  11.193 -1.6508  1.1984 -0.1717
 9554TIP3    H250154   3.582   1.321  11.092  1.1307  0.8760  0.6183
 9555TIP3   OH250155   0.201   6.182  16.198 -0.3006 -0.6548  0.3599
 9555TIP3    H150156   0.290   6.163  16.225 -0.6343 -0.0637  1.9446
 9555TIP3    H250157   0.175   6.107  16.145  0.6185 -1.5178  1.1259
 9556TIP3   OH250158   5.644   4.803  14.589  0.1780 -0.1584 -0.5437
 9556TIP3    H150159   5.697   4.795  14.668  0.0257  1.9598 -0.1947
 9556TIP3    H250160   5.556   4.822  14.621  0.3985  2.1926 -1.2109
 9557TIP3   OH250161   2.204   1.043   2.349 -0.4103  1.1219 -0.0207
 9557TIP3    H150162   2.251   1.056   2.266 -1.2984 -0.2179 -0.7542
 9557TIP3    H250163   2.167   0.955   2.342 -0.7975  1.1396  1.6583
 9558TIP3   OH250164   1.785   6.789   0.879 -0.0122  0.4965 -0.0517
 9558TIP3    H150165   1.709   6.845   0.896 -0.0597 -0.5292  3.5077
 9558TIP3    H250166   1.748   6.708   0.843 -0.4277  0.6646 -0.0105
 9559TIP3   OH250167   1.751   3.708   1.475  0.2530  0.0620  0.2923
 9559TIP3    H150168   1.767   3.769   1.546 -0.0003 -1.3374  1.5823
 9559TIP3    H250169   1.834   3.704   1.427  1.0751 -0.5221  1.7336
 9560TIP3   OH250170   4.423   1.070  15.947  0.2360  0.1796 -0.3789
 9560TIP3    H150171   4.374   0.998  15.988 -0.6036 -0.2471 -2.0595
 9560TIP3    H250172   4.383   1.149  15.982  1.3720 -0.1441  1.7328
 9561TIP3   OH250173   0.356   4.816   0.061  0.0587  0.4224  0.3911
 9561TIP3    H150174   0.419   4.834  -0.009 -2.2027  2.9021 -1.1375
 9561TIP3    H250175   0.301   4.746   0.026 -0.5322  1.0656  0.0120
 9562TIP3   OH250176   4.159   6.278   2.240 -0.5763  0.2339  0.2775
 9562TIP3    H150177   4.087   6.341   2.244  1.1542  2.2394  0.3789
 9562TIP3    H250178   4.214   6.308   2.168  2.8202  1.7044  3.3294
 9563TIP3   OH250179   3.645   2.847  13.896 -0.1580 -0.3407 -0.0367
 9563TIP3    H150180   3.738   2.869  13.894  0.0807 -1.2095  0.9922
 9563TIP3    H250181   3.600   2.931  13.882  0.7770  0.1530 -0.0810
 9564TIP3   OH250182   4.917   6.438   1.435 -0.2595 -0.4136 -0.0945
 9564TIP3    H150183   4.958   6.418   1.519  0.1712  0.6533 -0.0448
 9564TIP3    H250184   4.958   6.520   1.407 -0.0292 -1.0207 -1.5924
 9565TIP3   OH250185   1.675   1.575  13.824  0.2904 -0.0955  0.3090
 9565TIP3    H150186   1.761   1.538  13.803  0.8421  1.5969 -0.4670
 9565TIP3    H250187   1.692   1.668  13.837 -1.5592  0.3788 -0.5612
 9566TIP3   OH250188   2.705   6.582   1.859  0.4986 -0.1757 -0.1540
 9566TIP3    H150189   2.749   6.593   1.775  1.4833  0.7258  0.4787
 9566TIP3    H250190   2.741   6.651   1.915 -0.7850 -0.2217  0.7492
 9567TIP3   OH250191   4.110   3.293   6.297  0.1234  0.3615  0.4704
 9567TIP3    H150192   4.172   3.344   6.245 -0.0463  0.3240  0.2297
 9567TIP3    H250193   4.026   3.336   6.282 -0.2229 -0.6657 -0.6345
 9568TIP3   OH250194   4.838   0.751  11.988 -0.3467 -0.0724  0.2968
 9568TIP3    H150195   4.778   0.739  12.061 -0.4427  0.3187  0.2857
 9568TIP3    H250196   4.782   0.756  11.911 -0.2743 -0.0906  0.2426
 9569TIP3   OH250197   3.077   3.696  12.449  0.1062  0.2842  0.1249
 9569TIP3    H150198   3.007   3.651  12.404  1.3880 -2.4450  0.7694
 9569TIP3    H250199   3.033   3.747  12.517 -1.2962 -1.0124  0.2070
 9570TIP3   OH250200   3.872   6.088  12.166  0.1580  0.3603 -0.5561
 9570TIP3    H150201   3.780   6.075  12.189  0.2455  1.3012  0.3590
 9570TIP3    H250202   3.917   6.015  12.208 -0.1396  0.0167 -0.8251
 9571TIP3   OH250203   5.870   2.347   0.878  0.3431 -0.3664  0.4041
 9571TIP3    H150204   5.853   2.284   0.949 -0.0875  0.6698  1.2336
 9571TIP3    H250205   5.928   2.300   0.818 -0.6067 -1.8327  0.6072
 9572TIP3   OH250206   4.883   0.109   0.334  0.1253 -0.1425  0.1509
 9572TIP3    H150207   4.932   0.053   0.395 -1.7898 -0.5128  1.3734
 9572TIP3    H250208   4.846   0.048   0.270  0.7941  0.0913 -0.4757
 9573TIP3   OH250209   2.425   1.097   2.768  0.1769 -0.3533  0.0806
 9573TIP3    H150210   2.404   1.107   2.861 -0.0571 -1.3721  0.1457
 9573TIP3    H250211   2.506   1.146   2.757 -1.1888  2.0137  0.2338
 9574TIP3   OH250212   1.936   3.860  16.184 -0.8690  0.1512  0.2577
 9574TIP3    H150213   1.998   3.795  16.151 -1.9712 -0.7620 -0.0682
 9574TIP3    H250214   1.932   3.845  16.278  0.0330  0.7715  0.3962
 9575TIP3   OH250215   3.270   0.905  16.284 -0.3227  0.1868 -0.0755
 9575TIP3    H150216   3.317   0.919  16.366  0.2008 -0.4037 -0.2692
 9575TIP3    H250217   3.229   0.990  16.265  0.4193  0.6266  0.2515
 9576TIP3   OH250218   4.255   0.133  10.996 -0.1579 -0.5472  0.3322
 9576TIP3    H150219   4.209   0.069  10.941 -0.3950  0.4587 -0.6688
 9576TIP3    H250220   4.213   0.217  10.975  1.5081  0.2452  0.1000
 9577TIP3   OH250221   0.599   4.792  15.919  0.0389 -0.1929 -0.0001
 9577TIP3    H150222   0.516   4.749  15.939 -0.2595  0.4126  0.0889
 9577TIP3    H250223   0.613   4.853  15.991  1.9385 -2.1954  1.3981
 9578TIP3   OH250224   6.671   2.513   5.971 -0.4376  0.1451 -0.3701
 9578TIP3    H150225   6.613   2.484   6.042  0.7606 -1.8467 -0.1491
 9578TIP3    H250226   6.669   2.609   5.976 -1.3184  0.0571  1.5854
 9579TIP3   OH250227   5.518   4.629  11.233 -0.4144 -0.0726 -0.4841
 9579TIP3    H150228   5.611   4.638  11.211 -0.1103 -0.2586  0.7348
 9579TIP3    H250229   5.496   4.712  11.276 -0.7976 -0.0622 -0.6986
 9580TIP3   OH250230   1.550   3.533  17.149  0.0563 -0.3590 -0.0806
 9580TIP3    H150231   1.544   3.518  17.243 -0.2565  0.1476 -0.0212
 9580TIP3    H250232   1.485   3.473  17.111  1.3295 -1.7598 -0.0931
 9581TIP3   OH250233   1.942   5.017   0.014 -0.1336  0.1316 -0.0441
 9581TIP3    H150234   1.887   4.977   0.081 -2.6773 -0.1596 -2.2124
 9581TIP3    H250235   1.896   4.999  -0.068  1.9810  1.9974 -1.6944
 9582TIP3   OH250236   2.755   2.240   2.568  0.0104  1.1283 -0.0723
 9582TIP3    H150237   2.825   2.266   2.628  0.9945 -1.5916  0.0198
 9582TIP3    H250238   2.694   2.190   2.622  0.6298 -0.8732 -1.1752
 9583TIP3   OH250239   4.735   5.550   5.175  0.3399  0.3649 -0.3180
 9583TIP3    H150240   4.699   5.550   5.263 -0.1981 -0.3480 -0.5346
 9583TIP3    H250241   4.705   5.467   5.137  0.0348  0.9521 -1.3765
 9584TIP3   OH250242   0.989   3.735  13.644  0.0476 -0.1237 -0.2522
 9584TIP3    H150243   1.030   3.738  13.730  0.8439  0.0908 -0.6353
 9584TIP3    H250244   0.909   3.683  13.657  0.5458 -0.7214  0.4545
 9585TIP3   OH250245   6.261   4.874   2.948 -0.5607  0.4040 -0.4795
 9585TIP3    H150246   6.336   4.906   3.000 -0.2360  1.6800 -1.7219
 9585TIP3    H250247   6.230   4.798   2.997  1.5244 -0.1165  0.0889
 9586TIP3   OH250248   1.283   1.144   5.504  0.1679 -0.6967  0.3286
 9586TIP3    H150249   1.364   1.149   5.555 -0.0173 -0.1947  0.5716
 9586TIP3    H250250   1.241   1.229   5.515  0.0960 -0.6028 -0.6174
 9587TIP3   OH250251   4.492   0.593  14.301 -0.2620 -0.1195 -0.3645
 9587TIP3    H150252   4.547   0.661  14.340  1.4684 -0.4827 -2.1160
 9587TIP3    H250253   4.483   0.619  14.209 -1.1896 -1.2381 -0.5976
 9588TIP3   OH250254   2.322   1.417  16.325 -0.1019 -0.2583  0.5781
 9588TIP3    H150255   2.307   1.463  16.243 -5.0343  1.7339  2.3663
 9588TIP3    H250256   2.257   1.347  16.325  0.6788 -1.0014  2.2268
 9589TIP3   OH250257   2.739   4.281  16.818  0.0828 -0.5408  0.1234
 9589TIP3    H150258   2.827   4.294  16.854  0.3229  1.5596 -1.1670
 9589TIP3    H250259   2.688   4.355  16.852 -0.3421  0.0478 -1.7466
 9590TIP3   OH250260   5.156   1.224   2.528  0.5860 -0.5787  0.1312
 9590TIP3    H150261   5.205   1.288   2.580 -1.5446  0.3616  1.0490
 9590TIP3    H250262   5.216   1.149   2.520  2.4051  0.7675  0.6447
 9591TIP3   OH250263   2.875   5.365   2.730  0.2003  0.4506 -0.2826
 9591TIP3    H150264   2.911   5.449   2.701 -3.7010  2.2963 -0.1624
 9591TIP3    H250265   2.896   5.361   2.823  1.4544  0.7190 -0.5427
 9592TIP3   OH250266   5.714   0.716   3.222  0.5007  0.0683 -0.3488
 9592TIP3    H150267   5.748   0.632   3.255 -1.4974 -0.1754  1.1948
 9592TIP3    H250268   5.707   0.703   3.128  0.0896 -1.5570 -0.1176
 9593TIP3   OH250269   6.649   4.072   5.086  0.0059 -0.3341  0.1505
 9593TIP3    H150270   6.604   4.133   5.028  0.2097  0.4382  0.8017
 9593TIP3    H250271   6.580   4.015   5.120 -0.3147  0.1477  0.2967
 9594TIP3   OH250272   3.178   4.805   5.148  0.2097 -0.0009  0.0772
 9594TIP3    H150273   3.225   4.735   5.102 -0.4085  0.0726 -0.6892
 9594TIP3    H250274   3.247   4.863   5.180  0.6535  0.1492 -1.0990
 9595TIP3   OH250275   0.603   1.497  12.176  0.2566  0.0773 -0.0581
 9595TIP3    H150276   0.661   1.528  12.246  1.0648 -0.8669 -0.3102
 9595TIP3    H250277   0.597   1.402  12.190  1.4150 -0.3110 -1.9988
 9596TIP3   OH250278   5.126   5.363  10.471 -0.0072  0.5301  0.6498
 9596TIP3    H150279   5.069   5.435  10.501 -2.7887 -1.8211  1.2848
 9596TIP3    H250280   5.067   5.306  10.422  2.2660 -1.0544 -0.2721
 9597TIP3   OH250281   2.498   1.923   5.552  0.7216  0.6217 -0.0559
 9597TIP3    H150282   2.490   1.970   5.469  0.4647  1.0426  0.2001
 9597TIP3    H250283   2.541   1.985   5.611  0.0614  0.6710  0.3858
 9598TIP3   OH250284   4.795   3.284  16.872 -0.3928 -0.1463 -0.8025
 9598TIP3    H150285   4.702   3.293  16.894 -0.4999  0.1157 -1.3618
 9598TIP3    H250286   4.801   3.314  16.782  0.1543 -0.6460 -0.9324
 9599TIP3   OH250287   3.442   5.430   2.418 -0.0941 -0.4341 -0.1312
 9599TIP3    H150288   3.420   5.400   2.330 -1.3869 -0.3021  0.1445
 9599TIP3    H250289   3.517   5.488   2.405 -0.0955 -0.6388 -1.1074
 9600TIP3   OH250290   5.533   6.398   1.273 -0.0236 -0.4273  0.3316
 9600TIP3    H150291   5.610   6.378   1.220  0.8311 -2.3397  2.1860
 9600TIP3    H250292   5.464   6.344   1.236  0.0255 -0.1933 -0.1082
 9601TIP3   OH250293   0.336   5.511   1.960 -0.1065  0.3276  0.5564
 9601TIP3    H150294   0.343   5.510   1.864 -0.8949  0.3096  0.4926
 9601TIP3    H250295   0.344   5.419   1.985 -2.7461 -0.0400  0.2632
 9602TIP3   OH250296   6.122   5.729   2.183 -0.1718 -0.1039  0.2884
 9602TIP3    H150297   6.052   5.795   2.177  1.0128  1.0407 -1.3444
 9602TIP3    H250298   6.100   5.665   2.116 -0.1729 -0.2587  0.4362
 9603TIP3   OH250299   3.463   6.366   0.650 -0.0161  0.0749 -0.1983
 9603TIP3    H150300   3.387   6.352   0.594 -1.0701  2.1887  0.6271
 9603TIP3    H250301   3.527   6.409   0.594 -0.3975  0.5841 -0.2474
 9604TIP3   OH250302   3.783   3.890   4.051  0.2818 -0.0997  0.1168
 9604TIP3    H150303   3.761   3.803   4.019  0.8622 -0.3164  0.2993
 9604TIP3    H250304   3.873   3.904   4.022  0.6614 -0.1180  1.2749
 9605TIP3   OH250305   1.273   5.692  14.554 -0.0824  0.3412 -0.6845
 9605TIP3    H150306   1.193   5.647  14.528  0.4735 -1.1233  0.0307
 9605TIP3    H250307   1.287   5.665  14.645  1.1247  0.7079 -0.7538
 9606TIP3   OH250308   0.628   6.181   2.181 -0.2928  0.3706 -0.0278
 9606TIP3    H150309   0.604   6.272   2.163 -2.1309  0.3533  2.1514
 9606TIP3    H250310   0.563   6.129   2.134 -0.6392  0.2320  0.5947
 9607TIP3   OH250311   4.324   6.367  11.779  0.7231  0.1174 -0.2647
 9607TIP3    H150312   4.398   6.389  11.837 -0.4775  2.7219  0.3733
 9607TIP3    H250313   4.284   6.291  11.820 -0.3491  2.1432  2.6530
 9608TIP3   OH250314   6.791   1.542  13.807  0.2639 -0.0795  0.2795
 9608TIP3    H150315   6.749   1.471  13.758  0.4064 -0.0458  0.1090
 9608TIP3    H250316   6.766   1.526  13.898  0.3987 -0.4201  0.2550
 9609TIP3   OH250317   5.822   3.173  16.256 -0.0183 -0.0864 -0.5692
 9609TIP3    H150318   5.836   3.268  16.264  0.9412 -0.2978  0.3431
 9609TIP3    H250319   5.867   3.136  16.331 -0.9669 -1.2282 -0.5548
 9610TIP3   OH250320   1.747   3.091   5.760  0.0538  0.6534 -0.1852
 9610TIP3    H150321   1.728   3.184   5.767  0.4797  0.6946  0.3949
 9610TIP3    H250322   1.752   3.060   5.850  3.6694  0.8293 -0.2672
 9611TIP3   OH250323   5.522   1.735  13.365 -0.7489  0.0621  0.7281
 9611TIP3    H150324   5.499   1.763  13.277 -0.0405 -1.3844  0.0528
 9611TIP3    H250325   5.579   1.805  13.398  2.3643 -1.2288 -1.5466
 9612TIP3   OH250326   4.166   3.899  14.284  0.4451  0.0651  0.7715
 9612TIP3    H150327   4.253   3.905  14.243  0.0725 -1.1495 -0.2157
 9612TIP3    H250328   4.107   3.941  14.221 -0.0152 -1.1324  0.3860
 9613TIP3   OH250329   1.681   3.876   2.511 -0.3636  0.0000 -0.5260
 9613TIP3    H150330   1.643   3.954   2.469 -0.9191  0.0057 -0.0193
 9613TIP3    H250331   1.714   3.824   2.438 -0.4191  0.4833 -0.9042
 9614TIP3   OH250332   2.230   6.816  11.727  0.3216  0.1932  0.1310
 9614TIP3    H150333   2.311   6.867  11.719 -0.7889  1.8336 -0.6175
 9614TIP3    H250334   2.181   6.835  11.647 -2.1436  1.5547  1.9043
 9615TIP3   OH250335   4.135   4.269   6.148  0.3997 -0.2516 -0.0048
 9615TIP3    H150336   4.081   4.236   6.076  2.4655  0.0805 -1.7715
 9615TIP3    H250337   4.072   4.310   6.208 -1.4250 -0.9584 -1.3704
 9616TIP3   OH250338   2.550   0.833   2.283  0.0010  0.6371  0.0346
 9616TIP3    H150339   2.457   0.838   2.261  0.4806  1.1704 -1.8926
 9616TIP3    H250340   2.550   0.817   2.378 -2.0700 -1.7107 -0.2969
 9617TIP3   OH250341   1.560   0.046   0.054 -0.3954 -0.1774 -0.1094
 9617TIP3    H150342   1.553   0.092  -0.030  0.2901  0.2470  0.0600
 9617TIP3    H250343   1.584  -0.043   0.030  0.2992  0.0661 -0.3458
 9618TIP3   OH250344   6.659   4.742   3.674 -0.4513 -0.0328  0.1466
 9618TIP3    H150345   6.733   4.801   3.689 -0.4069  0.7777 -2.9780
 9618TIP3    H250346   6.697   4.667   3.630 -1.1386 -0.6315  0.5700
 9619TIP3   OH250347   5.060   2.061   0.228  0.6961 -0.5743 -0.0475
 9619TIP3    H150348   5.030   1.992   0.169  1.5444 -1.5943  0.7104
 9619TIP3    H250349   5.138   2.025   0.270 -0.3885 -0.1972  2.3513
 9620TIP3   OH250350   0.791   6.696   5.265 -0.0735  0.4232 -0.7809
 9620TIP3    H150351   0.844   6.631   5.219 -2.1769 -1.6338 -0.3910
 9620TIP3    H250352   0.777   6.765   5.200  0.5925 -0.4067 -1.8356
 9621TIP3   OH250353   3.156   2.460  12.387 -0.0776 -0.1278  0.0800
 9621TIP3    H150354   3.145   2.424  12.299  0.2833  0.4811 -0.2169
 9621TIP3    H250355   3.067   2.484  12.414  0.0059  1.2088 -0.7840
 9622TIP3   OH250356   3.528   4.447   6.440 -0.4214 -0.2521  0.2749
 9622TIP3    H150357   3.544   4.418   6.350 -0.1552  0.6437  0.0283
 9622TIP3    H250358   3.582   4.390   6.494  0.4757  0.0907 -0.2455
 9623TIP3   OH250359   4.015   6.053   2.773  0.4598 -0.1326 -0.3204
 9623TIP3    H150360   4.005   6.085   2.683  2.0906 -0.0996 -0.5045
 9623TIP3    H250361   3.955   6.106   2.824  2.2780  2.4548 -0.8037
 9624TIP3   OH250362   2.812   5.482  11.606  0.3619 -0.1225 -0.1958
 9624TIP3    H150363   2.748   5.455  11.541 -1.5029  0.8813  1.1758
 9624TIP3    H250364   2.854   5.401  11.634 -1.1255 -0.9426 -0.2946
 9625TIP3   OH250365   6.529   6.379  13.098  0.7170 -0.1950  0.3755
 9625TIP3    H150366   6.544   6.473  13.110  0.1735 -0.3497  2.3392
 9625TIP3    H250367   6.530   6.342  13.186  1.0553 -2.0718 -0.3714
 9626TIP3   OH250368   1.809   0.043  14.745  0.6203 -0.2481  0.0328
 9626TIP3    H150369   1.890  -0.005  14.761  0.2907 -0.7722  0.1118
 9626TIP3    H250370   1.839   0.126  14.706  1.2631  0.0672  1.1733
 9627TIP3   OH250371   4.138   0.734   1.629  1.0141  0.5661 -0.1039
 9627TIP3    H150372   4.181   0.776   1.555  2.7954  0.5292  0.8690
 9627TIP3    H250373   4.203   0.737   1.700 -0.4362  0.1100  1.2922
 9628TIP3   OH250374   2.688   3.383   3.970  0.0331  0.2559  0.0062
 9628TIP3    H150375   2.676   3.391   3.876  0.4380 -0.6571 -0.1286
 9628TIP3    H250376   2.631   3.450   4.008 -0.3054  0.4642 -0.8752
 9629TIP3   OH250377   3.726   1.988   2.084  0.2644  0.0757 -0.1068
 9629TIP3    H150378   3.638   1.980   2.046 -0.3561  2.1813  0.7819
 9629TIP3    H250379   3.774   2.043   2.022 -0.2734  2.2031  1.3157
 9630TIP3   OH250380   0.030   1.583   5.489 -0.4078 -0.8102 -0.2532
 9630TIP3    H150381   0.102   1.637   5.458 -1.4638  0.4405 -0.5747
 9630TIP3    H250382   0.021   1.606   5.582 -0.3186 -1.0420 -0.1874
 9631TIP3   OH250383   2.318   1.088  13.478 -0.1559  0.3933  0.5088
 9631TIP3    H150384   2.320   0.994  13.456  0.7272  0.5957 -0.2808
 9631TIP3    H250385   2.379   1.128  13.416 -0.9684  1.5738  0.4712
 9632TIP3   OH250386   6.125   0.598  11.069 -0.5170 -0.4084 -0.5627
 9632TIP3    H150387   6.173   0.672  11.105  1.3530 -2.0279  0.3584
 9632TIP3    H250388   6.169   0.579  10.986 -1.6369  0.1256 -1.2978
 9633TIP3   OH250389   3.222   1.570  12.363 -0.4773 -0.6294  0.4153
 9633TIP3    H150390   3.166   1.623  12.419  1.3913  2.6252 -0.6424
 9633TIP3    H250391   3.311   1.600  12.382  0.6544 -3.2202 -0.4371
 9634TIP3   OH250392   1.864   5.210   4.571 -0.2528 -0.5525  0.0394
 9634TIP3    H150393   1.870   5.231   4.477  1.4738  2.4747  0.7664
 9634TIP3    H250394   1.926   5.139   4.584  1.7344  1.0085 -0.6202
 9635TIP3   OH250395   6.700   4.931  12.809  0.1521  0.7524  0.9094
 9635TIP3    H150396   6.752   5.000  12.767 -1.0069 -0.1778 -2.2094
 9635TIP3    H250397   6.700   4.955  12.902  2.6190  3.0576  0.4069
 9636TIP3   OH250398   3.400   6.711  12.814 -0.1214  0.2938  0.0407
 9636TIP3    H150399   3.308   6.685  12.807  0.0101 -0.2949  0.4543
 9636TIP3    H250400   3.432   6.665  12.891  0.4621  0.6842  0.0337
 9637TIP3   OH250401   6.525   3.653   5.110  0.3877  0.2298 -0.2622
 9637TIP3    H150402   6.496   3.629   5.022  0.1033  0.9897 -0.3855
 9637TIP3    H250403   6.620   3.652   5.106  0.3804  1.1563 -0.8411
 9638TIP3   OH250404   4.045   2.143  15.304 -0.2853 -0.0664 -0.3936
 9638TIP3    H150405   3.968   2.092  15.275 -1.7218  1.2551  1.0244
 9638TIP3    H250406   4.077   2.185  15.224  0.3414 -2.3786 -1.4141
 9639TIP3   OH250407   5.083   0.350  14.511 -0.7534  0.0054 -0.3750
 9639TIP3    H150408   5.118   0.424  14.461 -2.3557  0.7443 -0.4490
 9639TIP3    H250409   4.993   0.341  14.479 -0.5638 -1.9898 -0.3682
 9640TIP3   OH250410   3.969   3.694   3.803 -0.2990  0.3315  0.3701
 9640TIP3    H150411   3.932   3.780   3.780  0.2257  0.8034  1.2835
 9640TIP3    H250412   3.907   3.657   3.865 -1.1704 -0.4957 -0.9639
 9641TIP3   OH250413   3.191   5.654  15.688 -0.0730 -0.6086  0.7753
 9641TIP3    H150414   3.248   5.623  15.617 -1.7580 -1.7801 -0.1104
 9641TIP3    H250415   3.233   5.733  15.721  0.2733  0.4787 -2.1682
 9642TIP3   OH250416   3.651   3.595  14.452  0.6002 -0.4596 -0.4402
 9642TIP3    H150417   3.601   3.530  14.502  1.2419 -0.4369  0.2303
 9642TIP3    H250418   3.673   3.550  14.370 -0.0826 -0.6394 -0.5320
 9643TIP3   OH250419   4.930   5.192  11.798 -0.1737  0.3273 -0.6932
 9643TIP3    H150420   4.939   5.104  11.760 -2.8228  0.0385 -0.7506
 9643TIP3    H250421   4.906   5.247  11.724 -1.4474  0.5139 -0.1578
 9644TIP3   OH250422   4.884   2.634   1.144  0.1022 -0.0076  0.0512
 9644TIP3    H150423   4.947   2.564   1.159  0.5011  0.1992 -0.6189
 9644TIP3    H250424   4.916   2.707   1.198  0.2212 -0.0287  0.0079
 9645TIP3   OH250425   1.624   2.165  12.138 -0.2315  0.0466 -0.3843
 9645TIP3    H150426   1.594   2.076  12.124 -0.8159  0.4110 -1.4351
 9645TIP3    H250427   1.705   2.171  12.087  0.9797 -0.5303  1.4047
 9646TIP3   OH250428   5.275   1.723  11.577 -0.6422  0.7031  0.5926
 9646TIP3    H150429   5.340   1.740  11.644 -0.7808  1.2297  0.5954
 9646TIP3    H250430   5.270   1.804  11.526  0.2285 -0.0447 -0.7097
 9647TIP3   OH250431   2.151   2.025  12.579  0.9802 -0.4784  0.0424
 9647TIP3    H150432   2.208   1.989  12.647  0.3376 -1.1624  0.2155
 9647TIP3    H250433   2.084   1.959  12.566  0.3887  0.2004 -0.3722
 9648TIP3   OH250434   6.752   5.718  12.490 -0.4088  0.4062 -0.3176
 9648TIP3    H150435   6.734   5.813  12.494  2.6614  1.0566 -1.0873
 9648TIP3    H250436   6.773   5.702  12.399  0.7081 -0.7290  0.1441
 9649TIP3   OH250437   1.924   1.825  11.369 -0.2867  0.7201 -0.0946
 9649TIP3    H150438   1.868   1.894  11.403  0.4095  0.6205  1.2685
 9649TIP3    H250439   2.013   1.857  11.384  0.0332  0.2652 -0.9827
 9650TIP3   OH250440   3.921   2.945  13.751  0.1889 -0.7524 -0.0752
 9650TIP3    H150441   4.011   2.914  13.758  1.6767  2.3049 -3.5456
 9650TIP3    H250442   3.883   2.892  13.681  0.1752 -0.2482 -0.4541
 9651TIP3   OH250443   1.284   3.898  16.447  0.5625  0.0617  0.7248
 9651TIP3    H150444   1.240   3.868  16.526  1.4226 -2.4554  0.2915
 9651TIP3    H250445   1.353   3.957  16.478 -0.1428  0.3622  1.7207
 9652TIP3   OH250446   2.345   2.179   1.265  0.1116 -0.0553 -0.2183
 9652TIP3    H150447   2.288   2.103   1.254 -0.8106  0.4305  1.1291
 9652TIP3    H250448   2.432   2.142   1.283  0.0543 -0.7862 -1.4217
 9653TIP3   OH250449   0.732   5.311   5.334  0.7265  0.5581 -0.3502
 9653TIP3    H150450   0.664   5.360   5.289  0.8760  2.3837  1.3381
 9653TIP3    H250451   0.787   5.276   5.263 -0.3615  1.3951 -1.6326
 9654TIP3   OH250452   4.991   2.518  17.148 -0.3786  0.2601  0.0273
 9654TIP3    H150453   4.916   2.501  17.090 -0.7116 -0.2797  0.6150
 9654TIP3    H250454   4.999   2.613  17.149  0.0524  0.2481 -1.4423
 9655TIP3   OH250455   4.067   4.388  15.060  0.0204 -0.1209 -0.4775
 9655TIP3    H150456   4.049   4.456  14.995  0.2047 -1.0207 -1.4874
 9655TIP3    H250457   4.158   4.364  15.045  0.9719  1.6368  2.0083
 9656TIP3   OH250458   3.235   5.671   2.107  0.5642 -0.1561 -0.3233
 9656TIP3    H150459   3.290   5.594   2.092  0.7857 -0.0025 -0.3053
 9656TIP3    H250460   3.146   5.637   2.113  0.4817 -0.2434 -1.8259
 9657TIP3   OH250461   3.351   2.651  15.942  0.4199 -0.1687  0.3621
 9657TIP3    H150462   3.351   2.746  15.932  0.1374 -0.2140 -0.0755
 9657TIP3    H250463   3.278   2.621  15.888  0.0260 -0.5707  1.1065
 9658TIP3   OH250464   3.525   5.751  14.839  0.3986  0.2238  0.3786
 9658TIP3    H150465   3.544   5.678  14.898  2.8492  1.2838  0.9754
 9658TIP3    H250466   3.600   5.753  14.780  0.2962  2.1946  0.3071
 9659TIP3   OH250467   3.932   5.828   3.770 -0.6624 -0.3202  0.2953
 9659TIP3    H150468   3.978   5.866   3.696  0.5649 -0.2349  1.1002
 9659TIP3    H250469   3.915   5.901   3.829 -0.5739 -0.5896  0.6578
 9660TIP3   OH250470   0.286   5.414  10.954  0.0616 -0.0295 -0.0470
 9660TIP3    H150471   0.296   5.429  10.860 -0.0011  0.4339  0.0184
 9660TIP3    H250472   0.344   5.478  10.995 -1.7492  1.4518  0.2849
 9661TIP3   OH250473   0.806   0.283  12.104 -0.1933  0.0355 -0.4810
 9661TIP3    H150474   0.785   0.346  12.174 -1.2691 -0.6695 -0.1648
 9661TIP3    H250475   0.757   0.315  12.028  0.3487  0.3467 -0.7064
 9662TIP3   OH250476   4.591   4.509   4.361 -0.3234  0.5006 -0.0456
 9662TIP3    H150477   4.576   4.584   4.417  1.3627  2.0270 -1.5789
 9662TIP3    H250478   4.635   4.445   4.417  1.3728  2.0145  0.3727
 9663TIP3   OH250479   6.286   1.025   3.700 -0.4659  0.1186 -0.5126
 9663TIP3    H150480   6.334   0.973   3.764 -0.7689  0.2251 -0.2000
 9663TIP3    H250481   6.296   0.977   3.617  0.3280  0.2344 -0.4832
 9664TIP3   OH250482   0.059   2.833   5.828 -0.4653  0.3310  0.8466
 9664TIP3    H150483   0.030   2.898   5.892  0.6349  0.9398  0.7374
 9664TIP3    H250484   0.094   2.762   5.881 -0.0552  0.5964  0.9351
 9665TIP3   OH250485   6.565   5.920  14.881 -0.2144  0.0624 -0.2794
 9665TIP3    H150486   6.646   5.869  14.878  0.5405  1.3059 -1.8784
 9665TIP3    H250487   6.513   5.889  14.806 -1.4491 -1.0922  1.0383
 9666TIP3   OH250488   6.128   1.336  11.161  0.0875 -0.4101 -0.5441
 9666TIP3    H150489   6.045   1.333  11.209  0.2412 -0.1900 -0.2658
 9666TIP3    H250490   6.102   1.345  11.069 -0.1912 -0.1338 -0.4384
 9667TIP3   OH250491   5.521   2.875  13.069 -1.0146  0.0929  0.1880
 9667TIP3    H150492   5.615   2.892  13.079 -0.9567 -0.3454  0.3934
 9667TIP3    H250493   5.479   2.935  13.130 -0.8220 -0.3437  0.7517
 9668TIP3   OH250494   5.922   3.020   0.477  0.1509 -0.4539 -0.7212
 9668TIP3    H150495   5.860   2.982   0.539 -1.5304  1.7528 -1.0012
 9668TIP3    H250496   5.876   3.015   0.393  1.7132 -1.8371 -1.5083
 9669TIP3   OH250497   4.716   3.791   1.447  0.3143 -0.6954  0.8300
 9669TIP3    H150498   4.809   3.772   1.464  0.7751 -0.2065 -1.0322
 9669TIP3    H250499   4.714   3.821   1.356 -1.5545  0.1757  1.1322
 9670TIP3   OH250500   4.060   6.191   1.135  0.0334 -0.2425 -0.5980
 9670TIP3    H150501   4.102   6.237   1.207 -0.4069 -0.3109 -0.2913
 9670TIP3    H250502   4.123   6.125   1.108  0.2101 -0.2002 -0.2886
 9671TIP3   OH250503   5.171   2.642   5.094 -0.0664 -0.5988 -0.1688
 9671TIP3    H150504   5.105   2.703   5.126  0.4331 -0.8118  1.2870
 9671TIP3    H250505   5.123   2.583   5.036 -0.9095  0.0289 -0.1186
 9672TIP3   OH250506   3.800   2.341   5.381 -0.2332  0.1610  0.1488
 9672TIP3    H150507   3.759   2.255   5.387 -1.3092  0.5515 -1.4063
 9672TIP3    H250508   3.859   2.335   5.306  0.7038  0.3835  0.8487
 9673TIP3   OH250509   3.389   5.129  12.298 -0.1655  0.3142 -0.4456
 9673TIP3    H150510   3.404   5.107  12.206 -0.7121  0.4285 -0.5607
 9673TIP3    H250511   3.315   5.076  12.325  0.2322 -0.0013  0.0407
 9674TIP3   OH250512   1.393   1.361  16.820 -0.2235  0.0429 -0.0095
 9674TIP3    H150513   1.455   1.402  16.881 -0.7781  0.1023  0.5185
 9674TIP3    H250514   1.368   1.279  16.863 -0.9447  0.2884  0.0434
 9675TIP3   OH250515   5.432   2.974   3.395  0.3270 -0.1861 -0.0529
 9675TIP3    H150516   5.397   2.945   3.479 -1.2691 -0.8694 -0.9313
 9675TIP3    H250517   5.386   2.921   3.330  1.5247  0.3453 -1.3613
 9676TIP3   OH250518   2.459   6.347   4.284 -0.4741 -0.8274  0.2640
 9676TIP3    H150519   2.384   6.296   4.314 -1.2364  0.4427  0.5516
 9676TIP3    H250520   2.421   6.412   4.225  0.3255  0.2298  0.9129
 9677TIP3   OH250521   3.339   1.231  14.440 -0.0947 -0.0535  0.1567
 9677TIP3    H150522   3.317   1.234  14.534  2.3743 -0.1006  0.7808
 9677TIP3    H250523   3.338   1.322  14.412 -0.4376 -0.0041  0.3297
 9678TIP3   OH250524   6.693   4.391   2.536  0.7498 -0.0521 -0.2526
 9678TIP3    H150525   6.691   4.338   2.456 -0.8490  1.0792 -0.9895
 9678TIP3    H250526   6.745   4.339   2.597  2.0454 -0.9110 -2.0345
 9679TIP3   OH250527   4.435   1.572   0.666  0.1489 -0.0376 -0.3688
 9679TIP3    H150528   4.434   1.481   0.638 -0.6058 -1.0868  2.8130
 9679TIP3    H250529   4.355   1.610   0.628 -0.3372 -1.1225 -0.4447
 9680TIP3   OH250530   0.864   5.068   6.083  0.3743  0.0714  0.1215
 9680TIP3    H150531   0.824   5.094   6.166 -0.2882 -0.2395 -0.0980
 9680TIP3    H250532   0.887   4.976   6.095 -0.8173 -0.3042 -0.4580
 9681TIP3   OH250533   2.875   4.577  12.412  0.4485  0.2411 -0.0258
 9681TIP3    H150534   2.859   4.641  12.343  0.9396 -1.9020 -2.2250
 9681TIP3    H250535   2.914   4.627  12.483  3.5300  1.9350 -2.7873
 9682TIP3   OH250536   5.934   0.123  10.681 -0.1625 -0.2831 -0.2394
 9682TIP3    H150537   5.964   0.164  10.762  1.4319 -1.6575 -0.0831
 9682TIP3    H250538   5.994   0.157  10.614 -1.7961  1.2416 -0.9433
 9683TIP3   OH250539   4.453   2.496   4.334  1.0660 -0.3931 -0.1333
 9683TIP3    H150540   4.475   2.558   4.264 -0.3245 -1.0677 -1.2024
 9683TIP3    H250541   4.474   2.410   4.297 -0.6376 -0.8248 -0.1102
 9684TIP3   OH250542   5.815   3.984  11.270 -0.1138  0.0216  0.0600
 9684TIP3    H150543   5.723   3.969  11.246  0.0002 -0.8070  0.1498
 9684TIP3    H250544   5.812   4.004  11.364 -0.2469  0.4091 -0.0259
 9685TIP3   OH250545   4.403   3.801   5.578  0.6636  0.5630 -0.8853
 9685TIP3    H150546   4.418   3.820   5.671  0.2423 -0.2695 -0.6378
 9685TIP3    H250547   4.307   3.797   5.570  0.7174 -0.5142 -1.1085
 9686TIP3   OH250548   0.266   0.473  11.605  0.2102  0.6710 -0.2877
 9686TIP3    H150549   0.181   0.439  11.632  0.6295  0.8229  1.2532
 9686TIP3    H250550   0.245   0.543  11.544 -0.8459  1.8715  1.4051
 9687TIP3   OH250551   2.467   0.231   3.890  0.1756 -0.5896  0.3109
 9687TIP3    H150552   2.527   0.195   3.956  0.9017  1.0364  0.5489
 9687TIP3    H250553   2.518   0.232   3.810  0.3493  0.4789  0.4386
 9688TIP3   OH250554   1.247   6.257   4.672  0.0173  0.1325 -0.1619
 9688TIP3    H150555   1.159   6.281   4.703  1.2334  0.8618  2.9404
 9688TIP3    H250556   1.259   6.167   4.700  0.5978  0.3434  0.2851
 9689TIP3   OH250557   6.452   5.194  11.761 -0.0749 -0.1318 -0.0462
 9689TIP3    H150558   6.501   5.111  11.762  0.6483  0.2096 -2.6810
 9689TIP3    H250559   6.519   5.261  11.776 -0.1068  0.1663 -1.1598
 9690TIP3   OH250560   0.467   3.476   3.617  0.0084  0.2107 -0.2011
 9690TIP3    H150561   0.490   3.568   3.605 -1.0771  0.8461  2.4060
 9690TIP3    H250562   0.483   3.436   3.531  1.5085  2.5897 -1.0671
 9691TIP3   OH250563   5.399   2.111   5.385 -0.3117  0.2971  0.4502
 9691TIP3    H150564   5.470   2.096   5.447 -1.1925  0.3978  1.4857
 9691TIP3    H250565   5.442   2.149   5.308  1.5840 -4.4000 -1.0352
 9692TIP3   OH250566   4.731   6.294  15.611  0.0334 -0.2433  0.8053
 9692TIP3    H150567   4.677   6.362  15.571  1.5632 -0.5336 -1.8934
 9692TIP3    H250568   4.671   6.242  15.664 -1.9424  0.6176 -0.5517
 9693TIP3   OH250569   6.748   6.557   4.522 -0.1832 -0.3406 -0.7613
 9693TIP3    H150570   6.683   6.487   4.532 -1.2916  0.7541 -0.1256
 9693TIP3    H250571   6.823   6.529   4.575 -1.3750 -0.1610  1.0491
 9694TIP3   OH250572   0.415   5.412  15.701 -0.4956 -0.2089  0.5117
 9694TIP3    H150573   0.451   5.446  15.619 -1.0633 -0.4998  0.1396
 9694TIP3    H250574   0.488   5.419  15.764  0.1204 -0.5095 -0.1541
 9695TIP3   OH250575   1.576   5.553   3.834  0.3824 -0.3162  0.1063
 9695TIP3    H150576   1.643   5.509   3.886 -0.0470 -0.7965  0.2626
 9695TIP3    H250577   1.493   5.518   3.867  0.0068  1.1095  0.6796
 9696TIP3   OH250578   4.766   5.915   1.990  0.5893  0.0006  0.1030
 9696TIP3    H150579   4.772   5.982   1.922  1.4390 -0.4291 -0.2525
 9696TIP3    H250580   4.704   5.851   1.955 -0.7104  0.9025  0.7144
 9697TIP3   OH250581   2.023   4.455   0.395 -0.1439 -0.4106  0.0375
 9697TIP3    H150582   2.077   4.475   0.472 -1.5004  0.4230  0.7974
 9697TIP3    H250583   2.079   4.477   0.320  1.0701 -0.9078  0.7874
 9698TIP3   OH250584   6.587   2.265   0.176  0.2120  0.6331  0.2666
 9698TIP3    H150585   6.522   2.240   0.110  0.4225  0.9078 -0.0507
 9698TIP3    H250586   6.539   2.323   0.236 -0.0405  0.1965  0.4884
 9699TIP3   OH250587   0.575   0.993   0.079  0.6416  0.0046 -0.3772
 9699TIP3    H150588   0.502   1.027   0.028  0.3326  0.2309  0.2165
 9699TIP3    H250589   0.560   1.024   0.168  1.3892 -0.0571 -0.2205
 9700TIP3   OH250590   2.344   2.643   2.165  0.5534  0.7718  0.2831
 9700TIP3    H150591   2.371   2.673   2.078 -0.0066  1.1115  0.2236
 9700TIP3    H250592   2.398   2.693   2.226  0.2920  1.2071  0.1570
 9701TIP3   OH250593   1.004   3.485   0.771 -0.5608 -0.1416 -0.3761
 9701TIP3    H150594   0.958   3.527   0.698 -0.1616 -0.6009 -0.8999
 9701TIP3    H250595   0.952   3.508   0.848  0.0164  1.8931 -0.5477
 9702TIP3   OH250596   5.051   3.675  14.295  0.3813  0.3201 -0.2012
 9702TIP3    H150597   4.972   3.656  14.345  0.4053  1.7060  0.3942
 9702TIP3    H250598   5.039   3.627  14.213  0.2839 -1.8580  1.0465
 9703TIP3   OH250599   2.175   0.141   5.590 -0.3317  0.1349 -0.1164
 9703TIP3    H150600   2.194   0.126   5.497 -2.1210  0.8866 -0.6343
 9703TIP3    H250601   2.184   0.236   5.601 -1.9074  0.2855  0.0268
 9704TIP3   OH250602   6.042   3.224  16.678  0.1491 -0.2104 -0.3069
 9704TIP3    H150603   5.953   3.243  16.650 -0.1076  0.1791  0.7574
 9704TIP3    H250604   6.033   3.187  16.765  1.0578  0.2970  0.0154
 9705TIP3   OH250605   2.066   1.348  14.719  0.5661 -0.3252 -0.1193
 9705TIP3    H150606   1.971   1.363  14.724  0.5993  0.1485 -0.7753
 9705TIP3    H250607   2.091   1.385  14.635  1.5879  0.9221  0.7229
 9706TIP3   OH250608   3.548   3.255   3.086  0.0245 -0.1011 -0.2105
 9706TIP3    H150609   3.501   3.197   3.026 -1.9038 -0.8774  1.9644
 9706TIP3    H250610   3.495   3.254   3.166  1.8480  1.9052  1.0670
 9707TIP3   OH250611   5.639   3.988   5.021  0.3215  0.2616 -0.0470
 9707TIP3    H150612   5.589   3.916   4.981  2.0379 -0.5212 -0.8075
 9707TIP3    H250613   5.584   4.065   5.007 -0.8160 -0.6288 -0.6300
 9708TIP3   OH250614   0.099   5.394  12.126 -1.0355 -0.7612  0.6015
 9708TIP3    H150615   0.149   5.447  12.064 -0.3799  0.2296  1.9451
 9708TIP3    H250616   0.089   5.309  12.082  0.1108 -0.3361 -0.5204
 9709TIP3   OH250617   5.737   6.648  16.809 -1.0284  0.3960 -0.1741
 9709TIP3    H150618   5.750   6.714  16.876 -1.6712  0.7793 -0.4275
 9709TIP3    H250619   5.642   6.642  16.798 -0.9680 -0.3855 -0.3260
 9710TIP3   OH250620   0.564   4.311  14.765 -0.3112  0.0375  0.7356
 9710TIP3    H150621   0.625   4.384  14.754  0.5489 -0.7238  0.3865
 9710TIP3    H250622   0.545   4.309  14.859 -0.0589  0.4828  0.7937
 9711TIP3   OH250623   2.716   0.958  15.097  0.1145  0.6135 -0.7572
 9711TIP3    H150624   2.637   0.913  15.129 -1.0434  1.9359 -1.7139
 9711TIP3    H250625   2.750   1.004  15.174 -1.4138  1.9899 -0.8897
 9712TIP3   OH250626   1.604   0.254   2.536  0.2234 -0.2178 -0.3532
 9712TIP3    H150627   1.520   0.219   2.507 -0.7043  0.3056  1.5932
 9712TIP3    H250628   1.605   0.238   2.631  1.3046  1.8310  0.0040
 9713TIP3   OH250629   5.248   2.341  14.551  0.2063  0.4311 -0.2581
 9713TIP3    H150630   5.342   2.341  14.570  0.1740  0.4329 -0.0959
 9713TIP3    H250631   5.238   2.281  14.477  0.2833  0.1095 -0.0112
 9714TIP3   OH250632   0.044   2.229   2.638 -0.7443 -0.1231  0.2218
 9714TIP3    H150633   0.085   2.196   2.558  0.4867  1.3424  0.2234
 9714TIP3    H250634  -0.036   2.272   2.609 -0.6458 -0.1879 -0.1414
 9715TIP3   OH250635   4.119   2.666  13.620 -0.4137 -0.5270  0.4694
 9715TIP3    H150636   4.146   2.735  13.681  0.4924 -0.9134  0.5210
 9715TIP3    H250637   4.109   2.711  13.536  2.1467 -0.6498  0.0467
 9716TIP3   OH250638   0.408   5.211   3.158 -0.2496  0.2383 -0.4118
 9716TIP3    H150639   0.467   5.136   3.172 -1.8782 -0.5685  2.6392
 9716TIP3    H250640   0.442   5.279   3.215 -0.7686  0.6486 -0.5913
 9717TIP3   OH250641   0.882   3.512   3.031 -0.4972 -0.1724 -0.2621
 9717TIP3    H150642   0.917   3.537   3.117  0.5725  1.0531 -1.0214
 9717TIP3    H250643   0.891   3.592   2.978 -0.5368 -1.1044 -1.6910
 9718TIP3   OH250644   4.662   6.276   3.283 -0.3206  0.1796 -0.3995
 9718TIP3    H150645   4.580   6.250   3.324 -0.3533  0.7453 -0.1000
 9718TIP3    H250646   4.697   6.343   3.341 -0.3137  0.9136 -1.2438
 9719TIP3   OH250647   1.467   5.464   5.025 -0.1003 -0.1012 -0.2902
 9719TIP3    H150648   1.422   5.390   4.984  1.5471 -1.3530  0.0856
 9719TIP3    H250649   1.525   5.498   4.957  1.7055 -1.3875  0.5382
 9720TIP3   OH250650   0.848   2.170  15.849 -0.2102  0.0441  0.5305
 9720TIP3    H150651   0.922   2.158  15.790  0.8076 -0.7325  1.9395
 9720TIP3    H250652   0.779   2.115  15.814  0.7787 -1.3222  0.7108
 9721TIP3   OH250653   0.867   5.382   6.657 -0.2249  0.0663  0.0180
 9721TIP3    H150654   0.805   5.453   6.640  0.1811  0.4794  0.2288
 9721TIP3    H250655   0.816   5.302   6.647 -0.5664  0.3712 -0.7329
 9722TIP3   OH250656   3.967   5.720  17.053 -0.4961  0.4027  0.1031
 9722TIP3    H150657   3.952   5.630  17.081 -0.2099  0.2536 -0.2284
 9722TIP3    H250658   3.880   5.753  17.030 -0.7787  0.6113  1.3942
 9723TIP3   OH250659   6.574   6.642  11.459 -0.6269 -0.4026  0.1631
 9723TIP3    H150660   6.518   6.705  11.413  0.1258  0.6698  0.6919
 9723TIP3    H250661   6.663   6.672  11.441 -0.3140  1.5589  4.3099
 9724TIP3   OH250662   6.529   2.783  14.760 -0.3057 -0.5484  0.2720
 9724TIP3    H150663   6.440   2.754  14.743 -0.2267 -0.3142 -0.5459
 9724TIP3    H250664   6.579   2.751  14.685 -0.0221  0.8262 -0.1243
 9725TIP3   OH250665   3.547   4.421  11.315  0.2564 -0.3924  0.2757
 9725TIP3    H150666   3.561   4.495  11.374 -0.1912 -0.7860  0.8802
 9725TIP3    H250667   3.547   4.459  11.228 -0.0216  0.3271  0.5902
 9726TIP3   OH250668   1.105   5.566  15.492 -0.0234  0.4825  0.0430
 9726TIP3    H150669   1.116   5.572  15.587 -0.6543  1.0005  0.0917
 9726TIP3    H250670   1.012   5.545  15.480  0.5164 -1.7713 -0.3995
 9727TIP3   OH250671   3.150   6.513   1.170  0.8979  0.2523  0.0151
 9727TIP3    H150672   3.214   6.472   1.111  0.1935 -0.2362 -0.4217
 9727TIP3    H250673   3.068   6.466   1.152  0.0326  1.9652 -0.5985
 9728TIP3   OH250674   1.781   1.933   3.130  0.0540  0.0327 -0.2794
 9728TIP3    H150675   1.796   1.891   3.215 -0.7083  0.1703 -0.0657
 9728TIP3    H250676   1.803   2.025   3.144  0.6305 -0.0832 -0.4317
 9729TIP3   OH250677   2.722   6.295   4.225 -0.1851  0.3552 -0.2835
 9729TIP3    H150678   2.727   6.276   4.132 -0.4365  0.4517 -0.3167
 9729TIP3    H250679   2.629   6.311   4.242  0.0143  1.5307 -0.2497
 9730TIP3   OH250680   2.777   6.730   0.524 -0.3035 -1.1498 -0.2322
 9730TIP3    H150681   2.860   6.758   0.487 -1.1591  0.2436 -1.1511
 9730TIP3    H250682   2.719   6.805   0.513 -0.8868 -1.0166  3.0530
 9731TIP3   OH250683   3.013   4.988  13.274  0.0310 -0.2412  0.1087
 9731TIP3    H150684   2.973   4.903  13.259 -2.0336  0.6280  0.4477
 9731TIP3    H250685   2.947   5.051  13.244  2.5361  1.2150 -2.5639
 9732TIP3   OH250686   2.061   6.353   3.043  0.0701 -0.4566  0.1712
 9732TIP3    H150687   2.045   6.418   3.111  3.4196  1.4309 -0.7592
 9732TIP3    H250688   2.108   6.282   3.088 -1.8474 -1.3934  0.7608
 9733TIP3   OH250689   5.240   2.155  13.700 -0.2558  0.4926  0.0697
 9733TIP3    H150690   5.150   2.181  13.682 -0.0323  1.7017  0.6363
 9733TIP3    H250691   5.251   2.071  13.656 -1.9930 -0.1925  0.9237
 9734TIP3   OH250692   2.839   5.469  15.353 -0.5183  0.5239  0.4562
 9734TIP3    H150693   2.841   5.547  15.299 -0.3488  0.8632  0.9493
 9734TIP3    H250694   2.904   5.485  15.422  1.6321 -1.2301 -1.0783
 9735TIP3   OH250695   3.207   3.276  13.401 -0.3996 -0.1640  0.5260
 9735TIP3    H150696   3.183   3.233  13.319 -2.5874 -0.8937  1.4980
 9735TIP3    H250697   3.291   3.318  13.383  0.8210 -3.1348 -1.0607
 9736TIP3   OH250698   4.243   3.363  13.768  0.3373  0.5887 -0.5654
 9736TIP3    H150699   4.221   3.312  13.690 -0.4123  2.1997 -1.4250
 9736TIP3    H250700   4.205   3.449  13.752 -1.3190  0.4545  2.3207
 9737TIP3   OH250701   1.378   4.365  13.917 -0.4068  0.3612 -0.4386
 9737TIP3    H150702   1.377   4.459  13.938 -1.6367  0.3661 -0.4716
 9737TIP3    H250703   1.363   4.361  13.823 -1.7640  0.0871 -0.2188
 9738TIP3   OH250704   3.422   3.341   4.902  0.2972 -0.1572 -0.2819
 9738TIP3    H150705   3.361   3.400   4.860  0.6495 -0.4886 -1.2608
 9738TIP3    H250706   3.390   3.333   4.992 -0.8708 -0.0322 -0.6887
 9739TIP3   OH250707   2.924   6.291  17.180  0.0348  0.2401 -0.4464
 9739TIP3    H150708   2.918   6.376  17.136 -2.4391  0.5735  0.4586
 9739TIP3    H250709   3.006   6.296  17.230  1.4127  0.9469 -2.6495
 9740TIP3   OH250710   4.146   2.183   1.444  0.4527 -0.0916 -0.2190
 9740TIP3    H150711   4.178   2.238   1.372 -0.6905  0.1620 -0.5383
 9740TIP3    H250712   4.169   2.094   1.418 -0.8107 -0.0997 -1.3684
 9741TIP3   OH250713   5.057   2.370  12.715 -0.4228  0.5146 -0.1184
 9741TIP3    H150714   5.107   2.356  12.635  0.2411 -1.7027  0.6462
 9741TIP3    H250715   5.033   2.282  12.744 -1.1807  1.3137  1.7839
 9742TIP3   OH250716   0.712   6.015   1.675  0.0098  0.4571 -0.0717
 9742TIP3    H150717   0.690   6.100   1.636 -2.2260 -0.1290 -0.1879
 9742TIP3    H250718   0.675   5.950   1.615 -1.1769 -0.5054  1.6482
 9743TIP3   OH250719   3.861   6.771   1.563  1.2136 -0.1520 -0.0641
 9743TIP3    H150720   3.844   6.832   1.491 -0.4497 -1.0854 -0.4978
 9743TIP3    H250721   3.818   6.689   1.536  0.0556 -0.3559  2.2255
 9744TIP3   OH250722   1.247   3.213  15.434 -0.2689 -0.2835 -0.3346
 9744TIP3    H150723   1.164   3.240  15.472  0.7034  0.9409  0.9490
 9744TIP3    H250724   1.228   3.128  15.393 -2.6302  0.9433 -1.8699
 9745TIP3   OH250725   5.358   4.927  12.440 -0.3460 -0.1307 -0.1869
 9745TIP3    H150726   5.423   4.971  12.385 -0.5662  0.2409 -0.1499
 9745TIP3    H250727   5.371   4.963  12.527 -0.4728 -0.1985 -0.1409
 9746TIP3   OH250728   1.902   2.661   0.794 -0.7423  0.0261  0.1199
 9746TIP3    H150729   1.899   2.737   0.737  0.1964 -0.4431 -0.5658
 9746TIP3    H250730   1.949   2.691   0.872 -0.1475  0.0742 -0.2586
 9747TIP3   OH250731   4.190   4.823  17.109  0.4204 -0.1853  0.2983
 9747TIP3    H150732   4.102   4.857  17.127  0.4470 -0.0721  0.2194
 9747TIP3    H250733   4.192   4.814  17.014 -0.2327 -2.1797  0.4566
 9748TIP3   OH250734   6.195   0.881   1.819  0.2690 -0.2283  0.0500
 9748TIP3    H150735   6.290   0.883   1.835  0.5144  0.9293 -1.3344
 9748TIP3    H250736   6.176   0.968   1.782 -1.1034 -0.9072 -0.8849
 9749TIP3   OH250737   1.846   0.178  11.410  0.5518  0.8702  0.1954
 9749TIP3    H150738   1.831   0.267  11.377  0.1250  0.4839 -0.6917
 9749TIP3    H250739   1.791   0.172  11.488 -3.2534 -0.1480 -2.3898
 9750TIP3   OH250740   0.847   1.028  15.635 -0.4546  0.0027  0.6955
 9750TIP3    H150741   0.888   0.944  15.617 -0.3813  0.0421  0.6774
 9750TIP3    H250742   0.795   1.046  15.557  2.0473  1.4841 -0.6907
 9751TIP3   OH250743   3.130   1.411  16.520 -0.3597 -0.3648  0.0064
 9751TIP3    H150744   3.199   1.353  16.488  1.0163  0.0052  2.1666
 9751TIP3    H250745   3.177   1.479  16.568 -2.0244  1.8652 -1.3964
 9752TIP3   OH250746   1.751   5.661   0.657  0.9364 -0.7462  0.6326
 9752TIP3    H150747   1.782   5.580   0.616  0.4297 -0.8096  0.3690
 9752TIP3    H250748   1.656   5.659   0.646  0.9009 -0.2207  0.8182
 9753TIP3   OH250749   3.839   4.591   4.965 -0.4022  0.0887 -0.5481
 9753TIP3    H150750   3.826   4.674   4.920 -2.2413 -0.1051 -0.4090
 9753TIP3    H250751   3.830   4.613   5.058 -0.1699 -0.1485 -0.4670
 9754TIP3   OH250752   5.165   3.405  10.367  0.5308  0.2000 -0.7355
 9754TIP3    H150753   5.075   3.374  10.354  0.7709 -1.3112  0.9833
 9754TIP3    H250754   5.156   3.499  10.385 -0.8547 -0.2276  0.9276
 9755TIP3   OH250755   6.747   4.090   3.447 -0.2808 -0.1462  0.2530
 9755TIP3    H150756   6.824   4.136   3.415 -0.7270  0.1737 -0.3626
 9755TIP3    H250757   6.696   4.157   3.492 -0.3870 -0.2750  0.3237
 9756TIP3   OH250758   6.707   5.961   0.386  0.6120 -0.2259  0.2930
 9756TIP3    H150759   6.797   5.986   0.407  0.8153 -2.6653  2.6455
 9756TIP3    H250760   6.656   6.042   0.398  2.0079  0.3940  2.2636
 9757TIP3   OH250761   1.578   0.100  14.606 -0.4713  0.0099  0.7180
 9757TIP3    H150762   1.640   0.036  14.642 -1.5458 -0.3081  2.0435
 9757TIP3    H250763   1.580   0.086  14.512 -0.1789 -1.5007  0.9430
 9758TIP3   OH250764   2.065   4.093  15.314 -0.0553 -0.0970 -0.6626
 9758TIP3    H150765   2.076   3.998  15.305 -0.5579 -0.0374 -1.9866
 9758TIP3    H250766   2.150   4.124  15.346 -0.6129 -1.2656  2.0918
 9759TIP3   OH250767   1.543   6.640  16.380  0.2298  0.6654 -0.0921
 9759TIP3    H150768   1.571   6.550  16.397  1.2082  0.5767 -2.0591
 9759TIP3    H250769   1.448   6.638  16.391  0.2374 -0.6143 -0.1537
 9760TIP3   OH250770   4.648   3.228  15.419 -0.0585  0.1825 -0.4237
 9760TIP3    H150771   4.612   3.294  15.360 -2.4510  0.1397  0.9550
 9760TIP3    H250772   4.715   3.274  15.469  0.6039  0.7080 -1.7952
 9761TIP3   OH250773   0.371   5.716   0.156 -0.6031 -0.4857 -0.3510
 9761TIP3    H150774   0.325   5.666   0.089 -1.5348 -2.0679  1.4260
 9761TIP3    H250775   0.458   5.675   0.161 -1.1057 -1.4387  0.5727
 9762TIP3   OH250776   2.938   0.969  11.012 -0.1817 -0.1491 -0.7120
 9762TIP3    H150777   2.911   1.023  10.938  1.8928  1.2682 -0.4848
 9762TIP3    H250778   2.917   1.022  11.089  2.3044  0.6190 -0.5017
 9763TIP3   OH250779   4.065   6.712  11.914  0.2965 -0.4513 -0.1888
 9763TIP3    H150780   4.102   6.706  12.003  0.1640 -1.9401 -0.2186
 9763TIP3    H250781   3.971   6.725  11.929  0.4332  0.4784 -0.1159
 9764TIP3   OH250782   2.078   6.246   5.454  0.6064 -0.9186 -0.2823
 9764TIP3    H150783   2.063   6.184   5.525 -0.5518 -0.2362  0.0733
 9764TIP3    H250784   2.090   6.330   5.498  0.8493 -0.6544 -0.8466
 9765TIP3   OH250785   5.767   6.135   1.246 -0.0102  0.1520 -0.0522
 9765TIP3    H150786   5.807   6.212   1.205  0.6968 -1.0361 -1.6591
 9765TIP3    H250787   5.747   6.077   1.172  0.5231 -1.6948  1.2310
 9766TIP3   OH250788   3.211   2.587   3.061  0.0127  0.6484 -0.2850
 9766TIP3    H150789   3.250   2.673   3.048  0.8692  0.2119 -0.7325
 9766TIP3    H250790   3.245   2.535   2.987 -0.4163 -0.0875  0.0332
 9767TIP3   OH250791   1.545   2.184   6.723 -0.8187 -0.4033 -0.3900
 9767TIP3    H150792   1.518   2.105   6.771  2.8698 -0.4113  1.8643
 9767TIP3    H250793   1.594   2.150   6.648 -2.9196 -0.2896 -1.8511
 9768TIP3   OH250794   1.116   6.696  16.701 -0.3265  0.7087 -0.5276
 9768TIP3    H150795   1.158   6.756  16.762 -1.2403  1.2942 -0.4622
 9768TIP3    H250796   1.024   6.723  16.700 -0.6994 -0.5145 -0.7067
 9769TIP3   OH250797   5.010   2.651   2.589 -0.0200  0.0118 -0.1929
 9769TIP3    H150798   5.075   2.589   2.623 -0.6291 -0.2223  0.5529
 9769TIP3    H250799   5.004   2.632   2.496 -1.3944 -2.1313  0.3166
 9770TIP3   OH250800   4.316   1.263  15.139  0.8165  0.4356 -0.0568
 9770TIP3    H150801   4.295   1.271  15.232  0.5766 -1.4891  0.0903
 9770TIP3    H250802   4.232   1.264  15.094  0.9592  1.8236 -0.2988
 9771TIP3   OH250803   2.766   1.771   5.901  0.0929  0.0160  0.0034
 9771TIP3    H150804   2.788   1.678   5.894 -0.0292 -0.1258  1.3921
 9771TIP3    H250805   2.850   1.814   5.918 -0.2409 -0.1872  2.3036
 9772TIP3   OH250806   2.841   6.316   0.900  0.9846 -0.5958 -0.1423
 9772TIP3    H150807   2.807   6.316   0.811 -0.2159 -1.6224  0.3053
 9772TIP3    H250808   2.902   6.242   0.902 -0.3872 -1.7385  0.3909
 9773TIP3   OH250809   1.757   5.731   4.996  0.4057  1.0395  0.0012
 9773TIP3    H150810   1.803   5.814   4.982  1.8406  0.0450 -1.2628
 9773TIP3    H250811   1.738   5.730   5.089 -1.3284  3.6713 -0.2454
 9774TIP3   OH250812   2.599   4.717  16.543 -0.6171  0.0429  0.1007
 9774TIP3    H150813   2.521   4.673  16.575  1.1994 -1.5776  2.3677
 9774TIP3    H250814   2.672   4.668  16.579  1.4860  2.3265 -0.8885
 9775TIP3   OH250815   0.269   5.879   3.969  0.6080  0.3629  0.5055
 9775TIP3    H150816   0.205   5.808   3.959 -0.4399  1.6332 -2.2746
 9775TIP3    H250817   0.338   5.857   3.906 -0.0231  2.0973 -0.8150
 9776TIP3   OH250818   5.100   0.494  12.619 -0.0430 -0.6547  0.2152
 9776TIP3    H150819   5.111   0.569  12.560 -1.2289  0.5375  1.4802
 9776TIP3    H250820   5.080   0.420  12.560  0.3979  0.1658 -0.9852
 9777TIP3   OH250821   5.438   3.677  10.970 -0.2692 -0.2369 -0.6716
 9777TIP3    H150822   5.375   3.610  10.999  0.2451 -0.6140 -0.4119
 9777TIP3    H250823   5.524   3.638  10.987  0.0411  0.0147 -1.6304
 9778TIP3   OH250824   5.531   1.650   0.886 -0.3143 -0.5477  0.3260
 9778TIP3    H150825   5.497   1.564   0.911 -0.8942 -0.5079 -0.3101
 9778TIP3    H250826   5.459   1.692   0.840  0.4674 -0.3119 -0.7115
 9779TIP3   OH250827   3.074   4.780  16.563  0.0204  0.1638 -0.1427
 9779TIP3    H150828   3.098   4.763  16.472  1.0934 -1.2939  0.3912
 9779TIP3    H250829   2.988   4.822  16.558  0.3979  0.7730 -1.8577
 9780TIP3   OH250830   0.624   5.759  13.222  0.3617  0.0574 -0.3138
 9780TIP3    H150831   0.545   5.812  13.212 -0.6634 -1.4422 -0.4596
 9780TIP3    H250832   0.606   5.705  13.299  1.3531 -0.1218 -0.2105
 9781TIP3   OH250833   6.556   0.196   4.208 -0.3621  0.0898 -1.1719
 9781TIP3    H150834   6.611   0.132   4.161  0.5520 -0.2865  0.3750
 9781TIP3    H250835   6.467   0.162   4.200 -0.1569 -0.2384 -2.1851
 9782TIP3   OH250836   5.545   4.505   5.073 -0.5809  0.5276  0.1533
 9782TIP3    H150837   5.505   4.530   5.156  1.6709  2.1122  0.7881
 9782TIP3    H250838   5.637   4.488   5.094 -0.0574  0.6149 -1.9484
 9783TIP3   OH250839   2.582   5.378  12.545  0.5829  0.2720 -0.6510
 9783TIP3    H150840   2.665   5.333  12.560  0.2815 -0.2627 -0.5834
 9783TIP3    H250841   2.580   5.395  12.451  0.9802  0.6990 -0.5816
 9784TIP3   OH250842   4.226   0.052  13.638 -0.6058 -0.3788 -0.0985
 9784TIP3    H150843   4.280   0.131  13.640  0.8369 -1.2713 -2.0215
 9784TIP3    H250844   4.276  -0.011  13.690  0.1549 -1.1636 -1.7554
 9785TIP3   OH250845   4.939   2.132  12.822 -0.4243  0.3288  1.1217
 9785TIP3    H150846   4.863   2.074  12.830  0.1392 -0.4291  1.0548
 9785TIP3    H250847   5.014   2.073  12.826  0.1772  1.1425  1.8407
 9786TIP3   OH250848   2.976   6.123   0.303 -0.3496 -0.9992  0.0421
 9786TIP3    H150849   2.977   6.074   0.222  0.3098 -1.0069  0.0495
 9786TIP3    H250850   3.044   6.082   0.357 -0.2982 -0.5519  0.3246
 9787TIP3   OH250851   0.819   0.107   2.806  0.0242 -0.5979 -0.3339
 9787TIP3    H150852   0.883   0.039   2.825 -0.2572 -0.6574  0.4058
 9787TIP3    H250853   0.821   0.115   2.710  1.0673 -0.6553 -0.3214
 9788TIP3   OH250854   6.098   6.481  17.131  0.1982  0.2905 -0.3392
 9788TIP3    H150855   6.021   6.452  17.179  0.3777 -0.1455 -0.3102
 9788TIP3    H250856   6.124   6.404  17.079 -0.1593  0.8423 -1.3486
 9789TIP3   OH250857   5.626   4.174  15.972 -0.1316 -0.2589  0.0954
 9789TIP3    H150858   5.678   4.217  16.040 -1.0457  0.6055  0.2733
 9789TIP3    H250859   5.567   4.116  16.020  0.6577 -1.2273 -0.1025
 9790TIP3   OH250860   3.133   2.064  16.477 -0.3078 -0.7706 -0.3143
 9790TIP3    H150861   3.126   1.974  16.509 -3.5369 -1.3372 -2.3505
 9790TIP3    H250862   3.055   2.076  16.423  0.7136  2.8591 -1.1087
 9791TIP3   OH250863   0.044   5.095  13.920 -0.6187 -0.5136  0.5983
 9791TIP3    H150864  -0.040   5.075  13.960 -0.8503 -1.4675 -0.3359
 9791TIP3    H250865   0.106   5.100  13.993 -0.8606 -3.0853  1.0237
 9792TIP3   OH250866   3.339   5.740  11.416  0.1775  0.1449 -0.0565
 9792TIP3    H150867   3.381   5.711  11.335 -1.0712  1.2364 -1.1079
 9792TIP3    H250868   3.409   5.736  11.482  1.4263  0.1275 -1.3690
 9793TIP3   OH250869   2.552   0.983   0.305  0.0361 -0.0174  0.8292
 9793TIP3    H150870   2.530   0.900   0.346 -0.5266  0.9128  2.4415
 9793TIP3    H250871   2.641   1.002   0.335 -0.9949  1.4867  3.0311
 9794TIP3   OH250872   2.502   5.603  11.950  0.0709  0.2338 -0.4260
 9794TIP3    H150873   2.512   5.676  11.890  1.3729  0.4418  0.0390
 9794TIP3    H250874   2.432   5.630  12.009  0.0483  0.8003 -0.7085
 9795TIP3   OH250875   6.206   2.550  10.931  0.8251  0.5999  0.0818
 9795TIP3    H150876   6.142   2.607  10.973 -0.1957 -0.0980 -0.4930
 9795TIP3    H250877   6.291   2.579  10.965  0.2615  1.9484  0.3760
 9796TIP3   OH250878   1.862   2.000  12.829  0.1567 -0.3128  0.1768
 9796TIP3    H150879   1.941   1.991  12.883  0.7925  0.1868 -0.6559
 9796TIP3    H250880   1.830   1.910  12.818  0.5705 -0.5096  0.5695
 9797TIP3   OH250881   2.768   3.716  14.917 -0.0396 -0.5288 -0.2572
 9797TIP3    H150882   2.788   3.775  14.844  2.6160 -2.1061 -0.8847
 9797TIP3    H250883   2.850   3.712  14.967  0.1925 -4.3964 -0.8054
 9798TIP3   OH250884   3.521   2.807   2.991 -0.4854 -0.7535  0.6386
 9798TIP3    H150885   3.529   2.883   2.934  0.6204 -0.3207  1.3562
 9798TIP3    H250886   3.552   2.733   2.938 -0.5736 -0.5401  0.2921
 9799TIP3   OH250887   0.817   0.325  11.350  0.9296 -0.5277 -0.2829
 9799TIP3    H150888   0.818   0.263  11.277  0.6752 -0.3327 -0.4525
 9799TIP3    H250889   0.790   0.273  11.426 -3.2988  0.1837 -1.1777
 9800TIP3   OH250890   1.180   1.665  16.737  0.3485  0.0986  0.3669
 9800TIP3    H150891   1.142   1.739  16.785  0.6433  1.1757 -0.9924
 9800TIP3    H250892   1.231   1.707  16.667 -0.1753 -1.4147 -0.9376
 9801TIP3   OH250893   4.123   3.361  15.516  0.0081 -0.4823  0.0016
 9801TIP3    H150894   4.145   3.451  15.542 -0.7793 -0.4374  0.5108
 9801TIP3    H250895   4.178   3.306  15.572  0.8312 -0.3193 -0.6265
 9802TIP3   OH250896   3.025   4.848   0.525  0.1364  0.5984 -0.3788
 9802TIP3    H150897   2.977   4.882   0.450 -1.3194  1.9426  1.1326
 9802TIP3    H250898   3.081   4.921   0.553 -0.4266  0.6114  0.7412
 9803TIP3   OH250899   3.061   0.652  12.768 -0.1213 -0.0437  0.1287
 9803TIP3    H150900   3.097   0.675  12.854  0.5684  0.8605 -0.3808
 9803TIP3    H250901   3.138   0.627  12.716 -0.3218  0.9777 -0.6931
 9804TIP3   OH250902   1.712   1.305  16.718 -1.2916 -0.4358 -0.1892
 9804TIP3    H150903   1.718   1.360  16.796 -0.2435 -2.1358  0.9653
 9804TIP3    H250904   1.623   1.269  16.721 -1.9512  1.1033 -0.9052
 9805TIP3   OH250905   6.049   3.018  16.076 -0.4317  0.8318  0.3281
 9805TIP3    H150906   6.138   2.985  16.065 -0.3868  0.6889  1.0874
 9805TIP3    H250907   6.057   3.089  16.140 -0.5986  2.0194 -0.9349
 9806TIP3   OH250908   2.549   5.000   4.972 -0.1436  0.3307 -0.1727
 9806TIP3    H150909   2.578   5.039   5.054  0.9397  0.1076 -0.4429
 9806TIP3    H250910   2.547   4.906   4.989  0.0753  0.2841 -0.3883
 9807TIP3   OH250911   5.650   6.411  14.805 -0.6510  0.2525 -0.0950
 9807TIP3    H150912   5.591   6.425  14.731 -0.2914 -0.0171 -0.4378
 9807TIP3    H250913   5.738   6.414  14.767 -0.3646  2.0974  0.6355
 9808TIP3   OH250914   0.729   2.080   0.257  0.5059  0.5091 -0.2400
 9808TIP3    H150915   0.782   2.120   0.188  0.8367 -0.1788 -0.3950
 9808TIP3    H250916   0.692   2.002   0.216  0.7873  0.0385  0.3949
 9809TIP3   OH250917   2.194   4.442  16.463  0.5260  0.2510 -0.1238
 9809TIP3    H150918   2.274   4.462  16.414 -0.3269 -0.8741 -2.0400
 9809TIP3    H250919   2.169   4.526  16.503  2.1508  0.8174 -0.2527
 9810TIP3   OH250920   6.046   5.299  15.813 -0.4409  0.4558 -0.2527
 9810TIP3    H150921   6.015   5.255  15.734 -1.1633 -0.5995  0.5964
 9810TIP3    H250922   5.975   5.286  15.877  0.3644  0.8289  0.7323
 9811TIP3   OH250923   4.904   3.297   5.215  0.1743  0.5100  0.1519
 9811TIP3    H150924   4.941   3.328   5.132 -3.3564 -0.6389 -1.9324
 9811TIP3    H250925   4.810   3.294   5.200 -0.5072 -0.1076  4.1072
 9812TIP3   OH250926   0.700   4.472  13.035  0.5384 -0.5482 -0.1871
 9812TIP3    H150927   0.737   4.481  12.947 -0.7403  0.6937 -0.6204
 9812TIP3    H250928   0.651   4.553  13.049  0.6245 -0.7892  1.6271
 9813TIP3   OH250929   6.590   5.426  13.220  0.2625 -0.6953 -0.1138
 9813TIP3    H150930   6.670   5.440  13.272  0.4075 -0.2715 -0.4500
 9813TIP3    H250931   6.523   5.476  13.266  0.3951 -0.3031 -0.3431
 9814TIP3   OH250932   1.816   6.233   5.776  0.4453 -0.3960  0.4358
 9814TIP3    H150933   1.821   6.324   5.806  0.0605 -0.1857 -0.1256
 9814TIP3    H250934   1.905   6.211   5.749  0.5379 -0.1822  0.5710
 9815TIP3   OH250935   4.854   1.167   5.717 -0.1532  0.1566 -0.4920
 9815TIP3    H150936   4.762   1.194   5.708 -0.0671  0.4905 -0.3932
 9815TIP3    H250937   4.890   1.174   5.629  0.1411  1.3834 -0.2783
 9816TIP3   OH250938   6.795   4.764  14.820 -0.4434 -0.5944  0.2828
 9816TIP3    H150939   6.792   4.796  14.910 -2.8060  0.5429 -0.1772
 9816TIP3    H250940   6.817   4.841  14.768 -1.9602 -0.6125 -0.4032
 9817TIP3   OH250941   2.292   5.906  16.820 -0.2542  0.1878 -0.3076
 9817TIP3    H150942   2.336   5.821  16.818 -2.4613 -1.0108  1.2821
 9817TIP3    H250943   2.217   5.894  16.878 -2.2533  2.4237 -2.3144
 9818TIP3   OH250944   5.844   2.293  11.677 -0.2750  0.1269  0.1540
 9818TIP3    H150945   5.811   2.376  11.643 -1.0226 -0.2421 -0.0351
 9818TIP3    H250946   5.904   2.262  11.609  1.7822  1.5889  1.2244
 9819TIP3   OH250947   6.269   0.273   4.698  0.0534  0.4887 -0.3306
 9819TIP3    H150948   6.318   0.227   4.629 -1.5961 -0.5761 -0.8019
 9819TIP3    H250949   6.215   0.206   4.739 -0.2461  1.4525  0.9018
 9820TIP3   OH250950   1.024   4.138  14.755 -0.3894  0.1115 -0.3384
 9820TIP3    H150951   0.978   4.127  14.672 -1.1652 -2.2648  0.3727
 9820TIP3    H250952   1.033   4.049  14.789 -1.0855  1.1769  2.6877
 9821TIP3   OH250953   1.278   1.560   6.175  0.4599 -0.0782  0.1737
 9821TIP3    H150954   1.332   1.639   6.172 -0.2206  0.3930  0.0469
 9821TIP3    H250955   1.274   1.538   6.268 -1.1463  1.3224  0.4704
 9822TIP3   OH250956   6.446   4.680   0.931 -0.6616 -0.4012 -0.5972
 9822TIP3    H150957   6.386   4.670   1.005 -0.6780  0.7920 -0.4333
 9822TIP3    H250958   6.427   4.606   0.874 -1.3693 -0.7611  0.1031
 9823TIP3   OH250959   2.284   0.770   1.957  0.4044  0.6295  0.1614
 9823TIP3    H150960   2.196   0.760   1.920  0.3137  2.3255 -0.1233
 9823TIP3    H250961   2.334   0.699   1.918 -0.5287  0.4051 -0.6614
 9824TIP3   OH250962   6.250   2.817  11.707 -0.4232  0.1541  0.3600
 9824TIP3    H150963   6.218   2.881  11.642 -3.1440 -0.5097  0.9673
 9824TIP3    H250964   6.206   2.841  11.788  3.1786  1.1384  2.1096
 9825TIP3   OH250965   0.287   0.715  13.536 -0.4424  0.1956 -0.1104
 9825TIP3    H150966   0.197   0.683  13.538 -0.5385  0.4963  1.3050
 9825TIP3    H250967   0.298   0.761  13.620  1.0563  0.0807 -0.2184
 9826TIP3   OH250968   3.222   5.302   4.421  0.3734 -0.0169  0.4310
 9826TIP3    H150969   3.148   5.277   4.365  1.0457  0.4908 -0.6957
 9826TIP3    H250970   3.212   5.396   4.434  0.4029 -0.0778  0.9133
 9827TIP3   OH250971   6.058   0.017  15.074  0.9305  0.0231 -0.1993
 9827TIP3    H150972   5.981   0.007  15.018  1.6780  0.8484 -1.3988
 9827TIP3    H250973   6.102  -0.068  15.070  0.6341 -0.1240 -0.3465
 9828TIP3   OH250974   0.727   2.444  15.692  0.2891  0.1768  0.4717
 9828TIP3    H150975   0.803   2.388  15.710  1.5914  2.3216  1.9133
 9828TIP3    H250976   0.708   2.430  15.600  1.1837 -1.8890  0.5688
 9829TIP3   OH250977   0.648   3.048   3.862 -0.5235 -0.3815 -0.4943
 9829TIP3    H150978   0.714   2.986   3.831  1.3141  1.5169 -0.5428
 9829TIP3    H250979   0.614   3.088   3.782  0.7022  1.0255 -0.3333
 9830TIP3   OH250980   0.592   4.416   5.982  0.0520  0.9768  0.7216
 9830TIP3    H150981   0.568   4.493   5.930 -1.8284 -0.8848 -1.2630
 9830TIP3    H250982   0.584   4.445   6.073 -0.5038  3.1564 -0.0005
 9831TIP3   OH250983   0.138   2.942  16.285 -0.0363 -0.2946 -0.1552
 9831TIP3    H150984   0.137   2.943  16.189 -1.9469 -0.2964 -0.1554
 9831TIP3    H250985   0.142   3.034  16.310 -0.2704 -0.2584 -0.2476
 9832TIP3   OH250986   3.645   5.755  12.330 -0.4254 -0.9093  0.1180
 9832TIP3    H150987   3.666   5.723  12.417  0.9598 -1.4765 -0.4008
 9832TIP3    H250988   3.697   5.700  12.271 -1.3237 -0.5210 -1.0579
 9833TIP3   OH250989   1.927   1.535   1.071  0.5855 -0.4617 -0.3526
 9833TIP3    H150990   1.832   1.537   1.063  0.5534  1.0540  0.3231
 9833TIP3    H250991   1.959   1.587   0.998  0.8632 -0.1938 -0.0408
 9834TIP3   OH250992   2.547   4.481   3.494  0.5029 -0.1087 -0.6232
 9834TIP3    H150993   2.472   4.469   3.552 -0.1786  0.5830 -1.3610
 9834TIP3    H250994   2.516   4.540   3.426  2.1189  1.2793 -0.1862
 9835TIP3   OH250995   1.079   0.931   3.453  0.4024  0.3499  0.0306
 9835TIP3    H150996   1.169   0.924   3.487 -0.2969  0.5922  2.0389
 9835TIP3    H250997   1.088   0.917   3.359  2.2798 -1.7591  0.4648
 9836TIP3   OH250998   1.092   1.838  13.169 -0.5224  0.0638 -0.2930
 9836TIP3    H150999   1.034   1.767  13.199 -1.3312 -0.0580 -2.0949
 9836TIP3    H251000   1.102   1.894  13.246  0.1532 -2.0084  1.1691
 9837TIP3   OH251001   0.975   6.765   1.990 -0.1139 -0.1816 -0.5171
 9837TIP3    H151002   0.942   6.686   1.948  0.0598 -1.9848  2.5564
 9837TIP3    H251003   0.902   6.796   2.044  0.9745 -0.3960  1.1305
 9838TIP3   OH251004   6.251   3.657   2.015 -0.1142  0.2739 -0.1117
 9838TIP3    H151005   6.280   3.673   1.926  2.1396  1.6613  0.8522
 9838TIP3    H251006   6.273   3.737   2.063 -2.9114  0.2571  1.3154
 9839TIP3   OH251007   1.862   2.182   3.208 -0.1361  0.2504  0.0554
 9839TIP3    H151008   1.957   2.192   3.197  0.0182 -0.0779  0.9960
 9839TIP3    H251009   1.824   2.247   3.149  0.6828  0.7680  0.0823
 9840TIP3   OH251010   3.492   5.166   4.692 -0.3333 -0.3413  0.3933
 9840TIP3    H151011   3.511   5.212   4.610  1.0541 -1.8251 -0.1518
 9840TIP3    H251012   3.398   5.149   4.687 -0.1966 -0.7895 -1.1162
 9841TIP3   OH251013   2.229   5.216  15.874 -0.0825  1.2405 -0.5822
 9841TIP3    H151014   2.225   5.295  15.928  1.2148  0.6985  0.3428
 9841TIP3    H251015   2.300   5.233  15.812  1.7407 -0.0435  1.0751
 9842TIP3   OH251016   4.796   5.696   2.704  0.2415 -0.1155 -0.9394
 9842TIP3    H151017   4.705   5.725   2.693  0.0463 -0.8933 -1.4197
 9842TIP3    H251018   4.824   5.674   2.615  1.3007  1.2790 -0.9723
 9843TIP3   OH251019   5.424   3.431  14.232 -0.0308  0.4062 -0.1626
 9843TIP3    H151020   5.393   3.488  14.162  0.3871 -0.2754 -0.9069
 9843TIP3    H251021   5.515   3.411  14.209  0.8892  2.1501  1.8612
 9844TIP3   OH251022   1.696   6.076   3.124  0.1531 -0.4259  0.2665
 9844TIP3    H151023   1.650   6.099   3.043 -0.4701 -0.8524  0.4991
 9844TIP3    H251024   1.783   6.048   3.094 -0.2618 -1.1330 -0.3081
 9845TIP3   OH251025   2.322   4.115   0.713 -0.4535  0.2848  0.5000
 9845TIP3    H151026   2.347   4.146   0.626 -1.0837 -1.3156 -0.2717
 9845TIP3    H251027   2.364   4.176   0.774 -0.5724  1.8196 -0.9360
 9846TIP3   OH251028   3.097   3.964   0.956  0.3232 -0.1537 -0.0845
 9846TIP3    H151029   3.023   4.024   0.959  0.8140  0.4817 -0.4503
 9846TIP3    H251030   3.174   4.021   0.950  0.6825 -0.8090 -2.4950
 9847TIP3   OH251031   3.811   2.444  13.489  0.3851 -0.1115  0.6068
 9847TIP3    H151032   3.722   2.480  13.491  0.2274 -0.5158  1.0242
 9847TIP3    H251033   3.847   2.463  13.575  0.0405 -1.5790  1.0976
 9848TIP3   OH251034   5.088   0.574   6.699  0.2854 -0.4111 -1.2149
 9848TIP3    H151035   5.039   0.508   6.649 -1.5454 -1.2537  1.5853
 9848TIP3    H251036   5.023   0.641   6.719  0.8365 -0.3950  0.5418
 9849TIP3   OH251037   5.882   1.346   2.578 -0.5826  0.7579 -0.4536
 9849TIP3    H151038   5.914   1.400   2.650 -2.5235  0.7198  0.4748
 9849TIP3    H251039   5.928   1.262   2.588 -0.5379  0.8933  0.5054
 9850TIP3   OH251040   0.929   4.908  10.857  0.3666 -0.1449  0.4345
 9850TIP3    H151041   0.877   4.970  10.806 -0.2361 -0.9723  0.0150
 9850TIP3    H251042   0.962   4.846  10.791  1.6097  0.1823  0.7401
 9851TIP3   OH251043   3.018   0.087   3.803  0.0176 -0.1519 -0.3130
 9851TIP3    H151044   3.031   0.178   3.829  2.6966 -0.0055 -1.9296
 9851TIP3    H251045   2.985   0.093   3.713 -2.1572 -0.7774  0.4010
 9852TIP3   OH251046   6.510   2.992  11.679  0.1031  0.6611  0.0362
 9852TIP3    H151047   6.433   2.935  11.680  0.5378 -0.0195 -1.6515
 9852TIP3    H251048   6.484   3.070  11.728 -1.1171 -0.2313  0.8404
 9853TIP3   OH251049   0.261   2.496   2.208  0.2228 -0.2857  0.0056
 9853TIP3    H151050   0.266   2.401   2.217  1.1183 -0.3328 -0.8704
 9853TIP3    H251051   0.168   2.516   2.211  0.0895 -1.0713  1.3619
 9854TIP3   OH251052   0.488   2.346   1.365  0.5470  0.0790  0.1770
 9854TIP3    H151053   0.563   2.366   1.309  0.1553 -1.8919 -1.0774
 9854TIP3    H251054   0.520   2.360   1.454  2.9999 -2.5274 -0.2366
 9855TIP3   OH251055   5.939   2.223  12.959 -0.3761 -0.4250 -0.4296
 9855TIP3    H151056   6.017   2.206  13.011 -1.2204  0.1074  1.0228
 9855TIP3    H251057   5.940   2.318  12.944 -0.5918 -0.4583 -0.6724
 9856TIP3   OH251058   3.943   4.518  12.965 -0.8597  0.2655 -0.0219
 9856TIP3    H151059   3.993   4.552  12.891 -2.5524 -1.1390 -1.8624
 9856TIP3    H251060   4.009   4.487  13.027  0.5561 -0.3704 -1.8232
 9857TIP3   OH251061   4.453   2.481   0.174 -0.5020 -0.1994  0.4457
 9857TIP3    H151062   4.542   2.467   0.143 -1.0085 -0.1607 -1.0894
 9857TIP3    H251063   4.462   2.536   0.252  0.8321 -0.5959  0.5767
 9858TIP3   OH251064   6.099   3.402  10.777 -0.1869 -0.3330  0.6770
 9858TIP3    H151065   6.170   3.461  10.802 -0.1940  0.4821 -1.1372
 9858TIP3    H251066   6.142   3.317  10.765  0.7857  0.4478 -1.7752
 9859TIP3   OH251067   3.504   4.555  12.657 -0.4033 -0.1034  0.3318
 9859TIP3    H151068   3.517   4.532  12.748 -0.4215  0.5358  0.5006
 9859TIP3    H251069   3.512   4.650  12.655 -0.7959 -0.0766 -0.2627
 9860TIP3   OH251070   1.206   6.587  13.998 -0.4246 -0.1275 -0.0181
 9860TIP3    H151071   1.183   6.672  14.036 -1.2632 -1.4819  2.5796
 9860TIP3    H251072   1.128   6.561  13.949 -0.7224 -0.1182  0.4524
 9861TIP3   OH251073   0.436   6.650   4.710  0.3661  0.5776 -1.2237
 9861TIP3    H151074   0.381   6.681   4.782  0.2042  1.8538 -1.8637
 9861TIP3    H251075   0.512   6.610   4.752  0.2677  1.2918 -0.3429
 9862TIP3   OH251076   4.821   2.254  16.567  0.1314 -0.2282  0.1297
 9862TIP3    H151077   4.906   2.283  16.602 -0.7238 -0.6740  2.6591
 9862TIP3    H251078   4.826   2.159  16.567 -0.1340 -0.2468 -0.3979
 9863TIP3   OH251079   1.461   5.437  11.051  0.0283  0.1076  0.0557
 9863TIP3    H151080   1.544   5.481  11.068 -0.5414  0.9745  0.6321
 9863TIP3    H251081   1.396   5.491  11.094 -0.7323 -1.1221  0.4757
 9864TIP3   OH251082   0.191   4.184   2.161  0.4185 -0.0857  0.2288
 9864TIP3    H151083   0.267   4.180   2.220  0.7707  0.3195 -0.1988
 9864TIP3    H251084   0.196   4.102   2.111 -0.1480 -0.6483  1.0916
 9865TIP3   OH251085   2.962   5.523   1.259 -0.4849  0.0513 -0.0587
 9865TIP3    H151086   2.971   5.473   1.178  0.3389  0.5561 -0.2867
 9865TIP3    H251087   2.983   5.613   1.235  0.7702  0.0382  0.9034
 9866TIP3   OH251088   6.618   2.282  13.479  0.6026 -0.4700 -0.5284
 9866TIP3    H151089   6.589   2.360  13.526 -0.2110 -1.2383  0.2801
 9866TIP3    H251090   6.642   2.313  13.392  0.4638  0.7080 -0.1494
 9867TIP3   OH251091   2.190   6.337  14.195 -0.7240 -0.2856  0.0570
 9867TIP3    H151092   2.231   6.335  14.281 -0.1988 -1.3555 -0.2095
 9867TIP3    H251093   2.132   6.261  14.194 -0.9374 -0.1219 -0.4371
 9868TIP3   OH251094   0.816   5.703  12.766  0.1032 -0.0788  0.7141
 9868TIP3    H151095   0.762   5.650  12.824  0.7471 -1.1721  0.3406
 9868TIP3    H251096   0.906   5.673  12.784  0.3641  0.0552 -0.3550
 9869TIP3   OH251097   0.405   1.680   1.806 -0.0491 -0.3598  0.2069
 9869TIP3    H151098   0.358   1.600   1.784 -0.7410 -0.0144  0.4080
 9869TIP3    H251099   0.341   1.733   1.853  0.3136  0.4324 -0.1843
 9870TIP3   OH251100   6.181   6.604   5.385 -0.1071  0.1765  0.3138
 9870TIP3    H151101   6.158   6.512   5.380 -1.3042  0.5811 -2.9666
 9870TIP3    H251102   6.097   6.650   5.387  0.4529  1.2875 -0.9084
 9871TIP3   OH251103   3.036   0.047  14.713  0.2419 -0.0739 -0.2928
 9871TIP3    H151104   3.040   0.111  14.783  1.0511  0.1464 -0.5326
 9871TIP3    H251105   3.032   0.099  14.633  1.6213 -0.3045 -0.5272
 9872TIP3   OH251106   5.929   4.759  10.603  0.1437  1.0463  0.2754
 9872TIP3    H151107   5.878   4.682  10.577  1.0739  0.1439  1.0757
 9872TIP3    H251108   5.921   4.820  10.529 -0.6259  0.1954 -0.3519
 9873TIP3   OH251109   5.577   4.085   3.684 -0.5121 -0.1268 -0.6157
 9873TIP3    H151110   5.623   4.004   3.703  1.2864  0.8443 -0.7566
 9873TIP3    H251111   5.586   4.097   3.590 -0.8757  0.1738 -0.6151
 9874TIP3   OH251112   4.868   4.007   4.691 -0.3318 -0.3323 -0.3166
 9874TIP3    H151113   4.830   3.924   4.721  1.7903 -1.2529 -0.1085
 9874TIP3    H251114   4.912   3.985   4.609 -1.7902  1.1151 -1.5158
 9875TIP3   OH251115   4.634   0.057  16.753 -0.2130  0.7264 -0.3880
 9875TIP3    H151116   4.698   0.044  16.824 -0.0274 -0.7431 -0.8031
 9875TIP3    H251117   4.589   0.138  16.776  0.3491  0.6598  1.0336
 9876TIP3   OH251118   3.439   3.375   2.615 -0.0493 -0.4398  0.4136
 9876TIP3    H151119   3.450   3.339   2.526  1.1266  0.4106  0.2101
 9876TIP3    H251120   3.417   3.467   2.601  0.9505 -0.1080  1.0267
 9877TIP3   OH251121   0.002   1.697   5.150 -0.2102 -0.3679  0.2971
 9877TIP3    H151122   0.068   1.735   5.093 -2.1538 -0.3330 -2.0182
 9877TIP3    H251123   0.045   1.620   5.188  1.6528  0.5399  0.0852
 9878TIP3   OH251124   4.866   3.654  14.523  0.5248  0.5207  0.4137
 9878TIP3    H151125   4.838   3.639  14.613  1.4296  1.8651  0.9310
 9878TIP3    H251126   4.904   3.742  14.524 -0.6902  1.0796 -1.5816
 9879TIP3   OH251127   6.492   0.982   4.427 -0.2195 -0.1956  0.4075
 9879TIP3    H151128   6.429   1.029   4.373  0.3264  0.5152  0.3659
 9879TIP3    H251129   6.575   0.992   4.380 -0.1712 -1.5421  0.2072
 9880TIP3   OH251130   5.936   0.966   2.087  1.0996  0.8062  0.3267
 9880TIP3    H151131   5.979   0.881   2.077  3.2188  1.5209  2.8851
 9880TIP3    H251132   5.988   1.026   2.035  0.6962  0.8981  0.0259
 9881TIP3   OH251133   6.775   5.005  13.328 -0.0196 -0.5296  0.0642
 9881TIP3    H151134   6.722   5.071  13.372  0.0141 -0.0323 -0.6327
 9881TIP3    H251135   6.863   5.016  13.365 -0.2568 -0.9100  0.7362
 9882TIP3   OH251136   2.412   5.280   6.335 -0.3754 -0.4440 -0.1873
 9882TIP3    H151137   2.399   5.279   6.430 -2.5028 -0.7092 -0.4579
 9882TIP3    H251138   2.362   5.205   6.303 -1.6091  1.0118 -1.7471
 9883TIP3   OH251139   1.593   2.861   4.582 -0.1059 -0.1146  0.5401
 9883TIP3    H151140   1.562   2.891   4.667  1.1713 -0.1581  1.0384
 9883TIP3    H251141   1.655   2.791   4.602  1.2884  0.8201 -0.3363
 9884TIP3   OH251142   6.515   4.399  14.883  0.3750  0.6992 -0.0111
 9884TIP3    H151143   6.527   4.344  14.806 -2.0090 -0.0507  0.1060
 9884TIP3    H251144   6.541   4.486  14.855  2.4613 -0.1061 -0.7331
 9885TIP3   OH251145   4.208   2.510  12.195  0.2850  0.0846 -0.3765
 9885TIP3    H151146   4.131   2.538  12.146 -1.3022 -1.8089  0.9742
 9885TIP3    H251147   4.223   2.579  12.259  1.3387  1.7383 -2.3281
 9886TIP3   OH251148   1.727   3.693   0.788  0.1389 -0.1511  0.4136
 9886TIP3    H151149   1.782   3.722   0.862  1.1506 -2.3210  0.5563
 9886TIP3    H251150   1.640   3.683   0.826  0.4007 -0.1132  1.0376
 9887TIP3   OH251151   1.244   1.318  15.021  0.0550 -0.1204  0.6668
 9887TIP3    H151152   1.232   1.250  14.954 -0.8255  1.2217 -0.5732
 9887TIP3    H251153   1.158   1.325  15.063 -1.0310  3.0163 -1.9340
 9888TIP3   OH251154   0.489   2.089   3.923 -0.2053 -0.1966  0.6710
 9888TIP3    H151155   0.406   2.048   3.898 -0.4878  0.2177  0.9065
 9888TIP3    H251156   0.555   2.023   3.906 -0.7610 -1.1321  2.0441
 9889TIP3   OH251157   2.829   3.309   6.515 -0.1268  0.1729 -0.1546
 9889TIP3    H151158   2.751   3.342   6.471  0.4324  0.7068 -0.7550
 9889TIP3    H251159   2.796   3.257   6.588 -1.0272  1.2820  0.2367
 9890TIP3   OH251160   6.622   6.150  16.686 -0.0468  0.1099  0.0149
 9890TIP3    H151161   6.630   6.092  16.762 -1.2962  1.7276  1.4139
 9890TIP3    H251162   6.531   6.142  16.659  0.1522  0.3042 -0.7407
 9891TIP3   OH251163   1.261   0.917  16.279  0.0877  0.1817 -0.0655
 9891TIP3    H151164   1.349   0.934  16.247  0.3321 -1.2247 -0.1825
 9891TIP3    H251165   1.269   0.837  16.332 -0.9507  0.5345  0.6424
 9892TIP3   OH251166   5.132   2.324   0.287  0.4186  0.1189 -0.3357
 9892TIP3    H151167   5.113   2.230   0.291 -0.2255  0.3107  1.4332
 9892TIP3    H251168   5.225   2.330   0.309  0.1079 -0.0028  1.0937
 9893TIP3   OH251169   2.732   4.226   4.027  0.2307 -0.2288 -0.2692
 9893TIP3    H151170   2.691   4.155   3.977  1.0156 -1.1069  0.3017
 9893TIP3    H251171   2.807   4.184   4.070  1.3399  1.1943 -0.7769
 9894TIP3   OH251172   5.571   4.736   4.451  0.0671 -0.5313 -0.4296
 9894TIP3    H151173   5.657   4.757   4.489  1.0074 -1.2384 -2.0967
 9894TIP3    H251174   5.592   4.679   4.377 -1.8345 -0.3837 -1.0853
 9895TIP3   OH251175   6.473   4.705   0.239 -0.2798  0.3532  0.2925
 9895TIP3    H151176   6.561   4.688   0.206 -1.1429 -0.7986 -1.5000
 9895TIP3    H251177   6.458   4.636   0.304  0.0878  0.4906  0.5263
 9896TIP3   OH251178   2.683   0.310   3.412  0.4829 -0.1469 -0.1027
 9896TIP3    H151179   2.632   0.234   3.383 -1.2722  0.4196  1.3780
 9896TIP3    H251180   2.671   0.375   3.342  1.2691 -0.9084 -0.9575
 9897TIP3   OH251181   0.528   4.543   5.692  0.0893 -0.2745 -0.0708
 9897TIP3    H151182   0.598   4.589   5.646  1.1451 -0.6803  1.0925
 9897TIP3    H251183   0.509   4.597   5.769 -0.9078 -0.1430 -0.4033
 9898TIP3   OH251184   5.392   3.882  16.415  0.3491  0.3756  0.1615
 9898TIP3    H151185   5.409   3.970  16.451  0.0641 -0.6351  2.8670
 9898TIP3    H251186   5.448   3.824  16.467 -1.6058 -1.3802  0.3380
 9899TIP3   OH251187   4.310   2.444  15.815 -0.1586  0.1956 -0.4473
 9899TIP3    H151188   4.325   2.468  15.907  0.1218  0.6607 -0.6108
 9899TIP3    H251189   4.392   2.466  15.771  0.3514 -1.7299 -0.4865
 9900TIP3   OH251190   5.609   3.095  12.821  0.1411  0.3349  0.3088
 9900TIP3    H151191   5.617   3.174  12.768  0.2023  0.3495  0.3383
 9900TIP3    H251192   5.672   3.034  12.783 -0.7600 -0.1252 -0.4520
 9901TIP3   OH251193   3.507   2.298   4.976  0.3079  0.8705  0.1676
 9901TIP3    H151194   3.522   2.386   5.010 -0.6997  0.3989  1.8722
 9901TIP3    H251195   3.587   2.277   4.927  2.3021  1.1104  3.2387
 9902TIP3   OH251196   3.457   5.725  12.841 -0.7064  0.5908 -0.5192
 9902TIP3    H151197   3.526   5.702  12.902  0.3881  0.8127 -1.6562
 9902TIP3    H251198   3.475   5.816  12.817 -0.5845  0.2310 -1.8534
 9903TIP3   OH251199   3.886   2.639  16.330 -0.5807  0.4310  0.0491
 9903TIP3    H151200   3.869   2.725  16.290 -0.5353  1.1950  1.6548
 9903TIP3    H251201   3.982   2.635  16.336 -0.5875  0.3069  0.0688
 9904TIP3   OH251202   2.946   5.779  16.228 -0.3110  0.7106 -0.3400
 9904TIP3    H151203   2.942   5.786  16.324 -0.0525 -0.9020 -0.1996
 9904TIP3    H251204   3.038   5.766  16.209 -0.7304 -2.1455 -0.5575
 9905TIP3   OH251205   5.770   0.338   0.551 -0.0988  0.5567 -0.1991
 9905TIP3    H151206   5.708   0.346   0.624  0.9653  0.8133  0.6998
 9905TIP3    H251207   5.846   0.294   0.589  0.1944  0.0789 -1.3328
 9906TIP3   OH251208   6.533   3.277   6.659 -0.2773  0.5133 -0.3810
 9906TIP3    H151209   6.575   3.315   6.736  2.8140 -1.3420 -1.0563
 9906TIP3    H251210   6.483   3.203   6.693 -0.2298  0.6810  0.0519
 9907TIP3   OH251211   0.492   0.620   4.263  0.0850 -0.0483 -0.4444
 9907TIP3    H151212   0.509   0.688   4.197 -0.9307  0.5456 -0.1114
 9907TIP3    H251213   0.464   0.668   4.340 -0.4175 -0.8406 -0.1311
 9908TIP3   OH251214   1.854   4.348  16.051 -0.5250 -0.3583  0.0651
 9908TIP3    H151215   1.799   4.415  16.010  1.0562  0.8309 -0.1755
 9908TIP3    H251216   1.943   4.371  16.025 -0.0031 -3.0117 -0.6423
 9909TIP3   OH251217   3.058   3.635   5.663  0.1373  0.6767 -0.2076
 9909TIP3    H151218   3.116   3.650   5.588 -0.7094  0.1455 -0.9846
 9909TIP3    H251219   2.988   3.700   5.653  0.0849  0.6811  0.1806
 9910TIP3   OH251220   2.862   2.183   5.976  0.1305 -0.0086  0.0005
 9910TIP3    H151221   2.886   2.156   5.888 -0.3324 -0.4203  0.0014
 9910TIP3    H251222   2.939   2.230   6.008  0.2533  0.2498 -0.6657
 9911TIP3   OH251223   0.324   6.200   5.122 -0.2284  0.8626  0.3045
 9911TIP3    H151224   0.306   6.191   5.215 -0.6333 -1.2314  0.0414
 9911TIP3    H251225   0.416   6.176   5.112 -0.5365 -0.2041 -0.0092
 9912TIP3   OH251226   5.285   2.105  14.372  0.3849 -0.7183 -0.0799
 9912TIP3    H151227   5.336   2.143  14.301 -0.0088 -1.5937 -0.8277
 9912TIP3    H251228   5.243   2.029  14.334 -0.6982 -0.5711  0.7986
 9913TIP3   OH251229   0.900   3.773  16.879 -0.2510 -0.0959  0.5288
 9913TIP3    H151230   0.881   3.798  16.788  2.9792  0.6451 -0.0053
 9913TIP3    H251231   0.883   3.852  16.929 -1.3137 -0.2910  0.5019
 9914TIP3   OH251232   0.771   2.645   5.213  0.0148  0.2174 -0.6145
 9914TIP3    H151233   0.747   2.658   5.121  1.4287 -0.5975 -1.1218
 9914TIP3    H251234   0.731   2.719   5.259 -0.8859  0.5156 -1.8540
 9915TIP3   OH251235   5.058   2.853   0.896  0.4218 -0.2470 -0.0691
 9915TIP3    H151236   4.969   2.871   0.923  0.3791  1.4314 -1.2571
 9915TIP3    H251237   5.113   2.898   0.961  0.3970 -0.6061  0.2022
 9916TIP3   OH251238   1.568   0.309   1.941 -0.6784 -0.3890  0.2537
 9916TIP3    H151239   1.537   0.352   2.020  0.0427  1.3289 -0.3657
 9916TIP3    H251240   1.489   0.277   1.897 -1.3078  1.1353  0.2726
 9917TIP3   OH251241   3.546   4.599   1.685 -0.0852  0.4828  0.6023
 9917TIP3    H151242   3.542   4.693   1.670  0.3820  0.5349  0.8161
 9917TIP3    H251243   3.544   4.561   1.597  0.4202  0.7148  0.4915
 9918TIP3   OH251244   3.248   0.416  11.508  0.3899 -0.6236 -0.4198
 9918TIP3    H151245   3.274   0.383  11.422  0.6823  1.4049 -1.1535
 9918TIP3    H251246   3.224   0.338  11.558  0.3228 -1.8434 -2.3016
 9919TIP3   OH251247   3.116   4.536  13.348 -0.1516 -0.4426  0.4412
 9919TIP3    H151248   3.163   4.617  13.369 -1.1888  0.2473  0.1605
 9919TIP3    H251249   3.024   4.559  13.359 -0.4592 -1.5377  0.1646
 9920TIP3   OH251250   6.263   4.430   2.908  0.1555 -0.0559 -0.1210
 9920TIP3    H151251   6.281   4.504   2.849 -1.2950  0.2123 -0.2478
 9920TIP3    H251252   6.277   4.352   2.854 -2.1187  0.2046 -1.1261
 9921TIP3   OH251253   4.494   2.155   3.817 -0.1513  0.2601 -0.5684
 9921TIP3    H151254   4.576   2.139   3.864 -1.5355  0.1109  1.8759
 9921TIP3    H251255   4.459   2.068   3.798 -0.4714  0.3312 -0.3061
 9922TIP3   OH251256   3.327   3.380  11.083  0.1349 -0.1491  0.1301
 9922TIP3    H151257   3.270   3.306  11.062  1.2862 -1.3769  1.2178
 9922TIP3    H251258   3.313   3.442  11.012  0.4702 -2.1958 -1.7893
 9923TIP3   OH251259   0.963   6.568  10.647  0.1602  0.0933  0.6373
 9923TIP3    H151260   0.896   6.618  10.692 -0.3696  0.5615 -0.6594
 9923TIP3    H251261   1.046   6.610  10.672 -0.1939  0.8813  0.4944
 9924TIP3   OH251262   0.700   1.465   3.396 -0.0775  0.1511  0.7168
 9924TIP3    H151263   0.790   1.454   3.365 -0.6552  0.4373 -1.0996
 9924TIP3    H251264   0.681   1.558   3.384 -0.7313  0.0291  0.7882
 9925TIP3   OH251265   2.225   2.551  15.979 -0.3266  0.0339  0.4441
 9925TIP3    H151266   2.168   2.529  16.052 -0.9141 -1.5047 -0.4438
 9925TIP3    H251267   2.311   2.517  16.004 -0.6784 -1.1102  0.1485
 9926TIP3   OH251268   0.438   0.103  11.596  0.4821  0.3116 -0.5935
 9926TIP3    H151269   0.363   0.044  11.590  0.1692  0.3288  2.3058
 9926TIP3    H251270   0.466   0.096  11.687  2.5934  2.0432 -1.0794
 9927TIP3   OH251271   6.647   0.887  13.319  0.2163 -0.5674  0.4259
 9927TIP3    H151272   6.580   0.835  13.275  0.5062  0.5268 -1.3206
 9927TIP3    H251273   6.727   0.872  13.268  0.0249  2.5624 -0.8896
 9928TIP3   OH251274   4.231   4.988   2.818  0.2245  0.3462 -0.0522
 9928TIP3    H151275   4.232   4.908   2.870  0.8834  0.4413  0.0916
 9928TIP3    H251276   4.195   4.961   2.734  2.0400 -0.4866 -0.5929
 9929TIP3   OH251277   5.755   3.602   5.051 -0.0633  0.9495 -0.1060
 9929TIP3    H151278   5.771   3.516   5.011  0.1911 -0.2550  2.4817
 9929TIP3    H251279   5.673   3.591   5.099  0.0040  2.1563  0.2958
 9930TIP3   OH251280   4.825   4.741   1.483 -0.0079  0.1326  0.3017
 9930TIP3    H151281   4.834   4.659   1.532 -1.8690 -0.9880 -1.1755
 9930TIP3    H251282   4.817   4.714   1.392  0.9083  2.0607 -0.3814
 9931TIP3   OH251283   6.303   2.336   3.449  0.1798 -0.1155  0.0175
 9931TIP3    H151284   6.233   2.276   3.474  1.2088 -1.4692 -0.2909
 9931TIP3    H251285   6.270   2.380   3.370  0.7232 -2.6596 -1.6650
 9932TIP3   OH251286   2.135   0.780  15.312 -0.1204  0.1548  0.2988
 9932TIP3    H151287   2.198   0.750  15.377  0.4445  0.5847 -0.0475
 9932TIP3    H251288   2.055   0.732  15.332  1.1866 -2.7031 -1.1815
 9933TIP3   OH251289   2.407   4.438   5.007  0.2104  0.3268 -0.0550
 9933TIP3    H151290   2.460   4.375   4.958 -0.0221  0.0548  0.0451
 9933TIP3    H251291   2.339   4.465   4.947 -1.5055 -1.7982  0.8718
 9934TIP3   OH251292   1.958   2.635  16.396  0.7566  0.4717 -0.7473
 9934TIP3    H151293   1.934   2.620  16.487  1.0195  1.1007 -0.5688
 9934TIP3    H251294   1.916   2.718  16.373 -0.9607 -0.6504 -1.8107
 9935TIP3   OH251295   3.732   4.115   0.090 -0.1060 -0.7230  0.1452
 9935TIP3    H151296   3.759   4.163   0.168  0.8984 -1.8182  0.4926
 9935TIP3    H251297   3.802   4.131   0.027  0.3362 -1.8630  0.3289
 9936TIP3   OH251298   5.814   3.317   0.143  0.3758  0.1465 -0.5625
 9936TIP3    H151299   5.735   3.336   0.092 -0.8378 -1.0179  0.8515
 9936TIP3    H251300   5.815   3.384   0.211 -1.3954 -1.9109  1.6015
 9937TIP3   OH251301   2.033   1.300  13.211 -0.1245  0.3018  0.2073
 9937TIP3    H151302   2.058   1.237  13.279  0.0025  0.0225 -0.0920
 9937TIP3    H251303   2.059   1.385  13.246  0.9055  0.0539  0.0690
 9938TIP3   OH251304   3.470   3.239   4.405  0.7709 -0.4512 -0.0003
 9938TIP3    H151305   3.542   3.233   4.468 -0.1578 -0.1737  1.1318
 9938TIP3    H251306   3.396   3.197   4.449 -0.7205  2.3785  0.3931
 9939TIP3   OH251307   6.440   6.140   4.299 -0.1953 -0.0316  0.3667
 9939TIP3    H151308   6.349   6.159   4.321 -1.1324 -1.7131 -1.8048
 9939TIP3    H251309   6.456   6.190   4.219  1.0744  0.9414  1.2179
 9940TIP3   OH251310   5.898   1.617  13.562 -0.0140 -0.1709  0.3724
 9940TIP3    H151311   5.862   1.537  13.526  3.7563 -0.7809 -2.3680
 9940TIP3    H251312   5.861   1.687  13.507 -0.5979 -0.3417  0.5461
 9941TIP3   OH251313   5.484   4.890  11.306 -0.3177  0.0019  0.0128
 9941TIP3    H151314   5.542   4.966  11.300  0.3711 -0.6136 -1.3497
 9941TIP3    H251315   5.432   4.892  11.226 -1.7076  0.1473  0.8918
 9942TIP3   OH251316   1.727   4.167   4.127 -0.1957 -0.9281 -0.3844
 9942TIP3    H151317   1.670   4.183   4.052 -0.2789  1.2548  0.1208
 9942TIP3    H251318   1.815   4.176   4.092 -0.2486  1.8350  0.1134
 9943TIP3   OH251319   3.287   6.720  14.718 -0.3769 -0.2443 -0.1770
 9943TIP3    H151320   3.308   6.756  14.804 -0.5252  0.7106 -0.5380
 9943TIP3    H251321   3.195   6.742  14.704  0.3616  2.0397 -1.7509
 9944TIP3   OH251322   4.641   0.799  11.805 -0.2564 -0.2383  0.6219
 9944TIP3    H151323   4.627   0.891  11.829  2.6930  1.0646 -2.3596
 9944TIP3    H251324   4.566   0.778  11.748 -0.8860  0.3511  1.2239
 9945TIP3   OH251325   1.802   0.552  15.635  0.5213 -0.2915  0.4483
 9945TIP3    H151326   1.773   0.481  15.692  0.8907 -0.9912 -0.2123
 9945TIP3    H251327   1.834   0.507  15.557  0.7686  0.6109  0.0270
 9946TIP3   OH251328   4.072   1.766   6.259  0.4478 -0.0165  0.2933
 9946TIP3    H151329   4.118   1.848   6.244 -0.9632  0.6947 -0.2176
 9946TIP3    H251330   4.115   1.703   6.201  2.0884  0.1491  1.3203
 9947TIP3   OH251331   1.918   4.758   0.720  0.4550  0.2945 -0.5071
 9947TIP3    H151332   1.895   4.843   0.757  0.9743  0.3826 -0.3956
 9947TIP3    H251333   1.982   4.721   0.781 -0.2760 -0.4733 -0.1811
 9948TIP3   OH251334   0.135   0.357   5.120  0.2504 -0.1265 -0.0971
 9948TIP3    H151335   0.167   0.446   5.130  2.2831 -0.7952 -0.3941
 9948TIP3    H251336   0.105   0.352   5.029  0.5547  0.1304 -0.2109
 9949TIP3   OH251337   5.334   4.133   2.049 -0.3369  0.1159 -0.3421
 9949TIP3    H151338   5.252   4.124   2.098 -0.8161  1.4756 -0.8446
 9949TIP3    H251339   5.326   4.071   1.977 -1.5889  1.2758 -1.2358
 9950TIP3   OH251340   1.847   0.279   6.164 -0.4841  0.4565  0.4164
 9950TIP3    H151341   1.865   0.275   6.070 -1.0397  0.6691  0.2937
 9950TIP3    H251342   1.757   0.246   6.172 -1.1987  2.3470  0.6173
 9951TIP3   OH251343   5.700   4.713  13.168 -0.2243 -0.4857  0.8865
 9951TIP3    H151344   5.627   4.774  13.171 -1.0387 -1.4564  1.4711
 9951TIP3    H251345   5.659   4.629  13.147  0.8146 -0.9059  0.5333
 9952TIP3   OH251346   0.241   2.124   2.839 -0.0110  0.5917 -0.1302
 9952TIP3    H151347   0.174   2.181   2.799  0.0192  1.5739  1.1833
 9952TIP3    H251348   0.195   2.041   2.855 -0.3931  0.6350 -0.9551
 9953TIP3   OH251349   3.048   1.798   4.472  0.2020  0.2990  0.6075
 9953TIP3    H151350   3.025   1.706   4.456 -0.7090  0.6157  0.0753
 9953TIP3    H251351   3.004   1.819   4.554 -1.1202  0.8003 -0.2265
 9954TIP3   OH251352   0.241   3.884   3.478 -0.0273  0.2240  0.3881
 9954TIP3    H151353   0.246   3.959   3.538 -2.5298  1.0337 -0.3584
 9954TIP3    H251354   0.217   3.923   3.394  1.1319 -1.1690 -0.6008
 9955TIP3   OH251355   5.114   0.494   3.668 -0.0047  0.0487 -0.3792
 9955TIP3    H151356   5.158   0.549   3.603  0.3014  1.7615  1.2308
 9955TIP3    H251357   5.149   0.524   3.752  0.9964 -3.4057  0.4887
 9956TIP3   OH251358   5.440   2.759  15.311  0.3345 -0.2652 -0.6864
 9956TIP3    H151359   5.365   2.771  15.369  0.1468  2.1238 -1.3658
 9956TIP3    H251360   5.503   2.824  15.340  1.0765 -0.4732 -1.8225
 9957TIP3   OH251361   4.157   2.562  16.858  0.3654 -0.4966  0.0553
 9957TIP3    H151362   4.140   2.501  16.930 -4.5731 -0.9021 -1.2542
 9957TIP3    H251363   4.187   2.506  16.786 -0.3975 -0.9095  0.0467
 9958TIP3   OH251364   4.767   1.247   4.372  0.4074  0.4057  0.2142
 9958TIP3    H151365   4.681   1.205   4.370  0.3428  0.5764 -2.3858
 9958TIP3    H251366   4.826   1.177   4.400 -0.2486 -0.3551 -0.2690
 9959TIP3   OH251367   1.631   2.926  11.419 -0.0534  0.4284 -0.4427
 9959TIP3    H151368   1.718   2.965  11.414  0.1216  0.0667 -0.2732
 9959TIP3    H251369   1.633   2.875  11.500  0.9751 -2.9024 -2.4691
 9960TIP3   OH251370   0.523   3.600   6.297 -0.2224 -1.0172  0.3247
 9960TIP3    H151371   0.609   3.576   6.264  0.2578  0.3945  0.4798
 9960TIP3    H251372   0.534   3.607   6.392 -1.1867 -3.4425  0.6428
 9961TIP3   OH251373   4.823   0.478   4.031 -0.1595 -0.0840 -1.2170
 9961TIP3    H151374   4.866   0.530   4.099 -2.6847 -1.0048  1.1748
 9961TIP3    H251375   4.884   0.407   4.014  0.3347 -0.0716  0.4165
 9962TIP3   OH251376   0.565   5.255  12.539  0.0523  0.1536  0.0480
 9962TIP3    H151377   0.655   5.236  12.512 -0.1503  0.8316 -1.1632
 9962TIP3    H251378   0.571   5.336  12.589 -0.0703  0.9931 -1.2875
 9963TIP3   OH251379   4.220   0.453   1.106  0.0630  0.0281 -0.6056
 9963TIP3    H151380   4.245   0.374   1.060  0.6041  0.9214 -1.8663
 9963TIP3    H251381   4.195   0.515   1.037 -3.7436 -0.1707  0.5084
 9964TIP3   OH251382   3.675   5.335   3.603 -0.3179 -0.1834 -0.3876
 9964TIP3    H151383   3.683   5.303   3.513  0.0815 -1.6149  0.1487
 9964TIP3    H251384   3.764   5.364   3.625  0.1498 -2.1489  0.3920
 9965TIP3   OH251385   4.012   0.479  15.944 -0.2965  0.7934 -0.1914
 9965TIP3    H151386   3.996   0.386  15.930  1.1481  0.6764 -1.2326
 9965TIP3    H251387   4.019   0.488  16.039  0.9126 -0.4244 -0.1408
 9966TIP3   OH251388   2.814   4.521   2.252  0.1520 -0.3842 -0.5236
 9966TIP3    H151389   2.882   4.510   2.186  2.2993  0.0834  1.4981
 9966TIP3    H251390   2.853   4.484   2.332 -2.3126 -0.8678  0.4927
 9967TIP3   OH251391   0.027   5.724   2.102  1.0473 -0.2350 -0.1703
 9967TIP3    H151392   0.049   5.733   2.194  1.3950  0.8129 -0.3484
 9967TIP3    H251393   0.010   5.631   2.090  1.7594 -0.4914  0.7799
 9968TIP3   OH251394   4.243   5.274  12.655  0.2117  0.3849 -0.2247
 9968TIP3    H151395   4.149   5.257  12.657  0.2133  0.2168 -1.5285
 9968TIP3    H251396   4.282   5.200  12.702 -0.5076  2.0893  3.2733
 9969TIP3   OH251397   4.370   5.496  15.617 -0.0197 -0.3139  0.8506
 9969TIP3    H151398   4.346   5.564  15.680  0.5935  1.1411 -0.4432
 9969TIP3    H251399   4.440   5.535  15.565 -1.2675 -1.0553 -1.4760
 9970TIP3   OH251400   4.202   2.516  14.223 -0.0837 -0.6010 -0.3266
 9970TIP3    H151401   4.177   2.514  14.130 -1.4008 -0.7777  0.0244
 9970TIP3    H251402   4.298   2.518  14.222 -0.1016  1.2395 -1.7258
 9971TIP3   OH251403   2.177   1.787   4.541 -0.0087  0.7492 -0.1334
 9971TIP3    H151404   2.106   1.729   4.512 -0.2483  0.3096  1.3051
 9971TIP3    H251405   2.140   1.875   4.533  0.6335  0.7928 -3.1034
 9972TIP3   OH251406   2.931   1.798   0.598 -0.0333 -0.0386 -0.0729
 9972TIP3    H151407   3.001   1.799   0.532  0.6190 -2.3307  0.5272
 9972TIP3    H251408   2.972   1.834   0.677  0.9809 -2.7083  0.6915
 9973TIP3   OH251409   2.144   0.346   4.431  0.2343 -0.4290 -0.0255
 9973TIP3    H151410   2.187   0.291   4.497  2.3218  0.7485 -0.3636
 9973TIP3    H251411   2.052   0.350   4.460  0.9847 -0.3872  2.5229
 9974TIP3   OH251412   4.069   1.225  12.038 -0.1609 -0.1562  0.1847
 9974TIP3    H151413   3.981   1.253  12.012 -0.6659 -1.6636  0.2169
 9974TIP3    H251414   4.064   1.129  12.038  0.9503 -0.2356  1.9772
 9975TIP3   OH251415   2.325   3.155  11.798 -0.3513  0.4565  0.7472
 9975TIP3    H151416   2.387   3.174  11.726  1.2785  0.6690  2.1713
 9975TIP3    H251417   2.296   3.066  11.781 -0.8647  0.8920 -0.8115
 9976TIP3   OH251418   1.079   4.139  12.638  0.2846 -0.0473  0.1548
 9976TIP3    H151419   1.078   4.146  12.734  0.7928 -0.9041  0.2299
 9976TIP3    H251420   1.171   4.126  12.616  0.2050  0.4424 -0.4751
 9977TIP3   OH251421   3.390   5.692   2.534  0.1160 -0.3936  0.0552
 9977TIP3    H151422   3.336   5.620   2.502  2.6400 -1.5712 -1.7267
 9977TIP3    H251423   3.398   5.751   2.459  0.6167  0.1808  0.5564
 9978TIP3   OH251424   5.072   1.612   3.018  0.3229 -0.4334 -0.1806
 9978TIP3    H151425   5.050   1.663   3.097  1.5807 -0.4527  0.2021
 9978TIP3    H251426   5.019   1.533   3.025 -1.2575  0.5678 -0.5061
 9979TIP3   OH251427   4.452   0.989   6.731  1.3011  0.3643  0.0410
 9979TIP3    H151428   4.439   1.076   6.693  2.7081 -0.0768 -1.4979
 9979TIP3    H251429   4.383   0.935   6.693 -0.7505  1.1922  2.4269
 9980TIP3   OH251430   1.834   1.455   3.324  0.3148  0.6008 -0.3288
 9980TIP3    H151431   1.852   1.369   3.287  0.1421 -0.3037  1.5858
 9980TIP3    H251432   1.894   1.462   3.398 -0.6039  1.5527  0.3472
 9981TIP3   OH251433   5.396   0.340  15.906  0.0845  0.0175  0.5403
 9981TIP3    H151434   5.381   0.308  15.817 -0.5140 -0.1639  0.6999
 9981TIP3    H251435   5.355   0.426  15.909 -0.2846 -0.1607  0.7615
 9982TIP3   OH251436   0.443   0.443  12.344 -0.9034  0.1153 -0.0825
 9982TIP3    H151437   0.360   0.395  12.343 -2.9927  3.4468  2.1634
 9982TIP3    H251438   0.473   0.436  12.435 -0.0872  1.1515 -0.2743
 9983TIP3   OH251439   3.706   6.200  12.883  0.4092  0.2365  0.0971
 9983TIP3    H151440   3.650   6.275  12.863 -1.9053 -1.7963 -1.3367
 9983TIP3    H251441   3.752   6.224  12.963 -0.9168  2.8432  0.1009
 9984TIP3   OH251442   2.137   5.599   3.618  0.1315  0.3899 -0.5106
 9984TIP3    H151443   2.139   5.507   3.590 -0.7315  0.5357 -1.0684
 9984TIP3    H251444   2.112   5.647   3.539 -0.6894  0.9760  0.1007
 9985TIP3   OH251445   3.138   2.818   2.794  0.3251  0.1012  0.4446
 9985TIP3    H151446   3.197   2.891   2.816  2.0056 -0.8869 -0.7141
 9985TIP3    H251447   3.123   2.826   2.700 -1.5837  0.4363  0.7432
 9986TIP3   OH251448   3.469   3.318   6.677  0.1532 -0.1373  0.0701
 9986TIP3    H151449   3.541   3.258   6.658  0.1494 -0.5915  1.4748
 9986TIP3    H251450   3.422   3.325   6.594  1.6760 -0.0140 -0.8031
 9987TIP3   OH251451   0.677   3.104  11.982 -0.0169 -0.2151  0.1808
 9987TIP3    H151452   0.614   3.136  11.918 -1.3438 -2.5708  0.2398
 9987TIP3    H251453   0.641   3.021  12.011  1.4710 -0.0242  2.6951
 9988TIP3   OH251454   1.196   6.645   0.764  0.1915  0.3979 -0.5264
 9988TIP3    H151455   1.127   6.711   0.776  0.1253  0.0364  1.1984
 9988TIP3    H251456   1.275   6.687   0.797  0.4790  0.2098 -0.9766
 9989TIP3   OH251457   6.790   3.796  11.980 -0.0657  0.0604 -0.0617
 9989TIP3    H151458   6.770   3.708  11.949 -2.5028 -0.6513  3.3187
 9989TIP3    H251459   6.881   3.811  11.954  0.0383 -3.0150 -1.5976
 9990TIP3   OH251460   1.899   5.874   2.279  0.5138  0.3136  0.0972
 9990TIP3    H151461   1.889   5.928   2.357 -0.3605 -0.0423  0.2380
 9990TIP3    H251462   1.814   5.879   2.236  0.6765 -0.3094 -0.3039
 9991TIP3   OH251463   3.961   0.977   4.841  0.1396  0.3392  0.4476
 9991TIP3    H151464   3.993   1.029   4.768 -0.6443  2.0059  1.2743
 9991TIP3    H251465   3.967   0.886   4.810  2.4093  0.8439 -0.6371
 9992TIP3   OH251466   5.707   6.464  13.718  0.2760  0.1688  0.1016
 9992TIP3    H151467   5.636   6.435  13.775  0.5005  0.0880  0.3448
 9992TIP3    H251468   5.759   6.385  13.704  1.7040  0.7341  1.9463
 9993TIP3   OH251469   3.332   4.983   2.883 -0.0176 -0.6138  0.1606
 9993TIP3    H151470   3.341   4.891   2.860 -1.9340 -0.7203 -0.2270
 9993TIP3    H251471   3.286   4.983   2.967 -0.8449 -0.0059 -0.2803
 9994TIP3   OH251472   0.466   0.533  14.599  0.5228  0.0995 -0.7205
 9994TIP3    H151473   0.455   0.586  14.678 -1.3484 -0.4183 -0.6084
 9994TIP3    H251474   0.480   0.596  14.529  0.3981  0.6482 -0.2540
 9995TIP3   OH251475   1.022   2.073  15.666 -0.1130  0.4405 -0.3651
 9995TIP3    H151476   1.047   2.164  15.648  0.0588  0.7054  1.2099
 9995TIP3    H251477   0.944   2.060  15.612 -1.7188  2.3873  1.3887
 9996TIP3   OH251478   6.635   4.447  11.457 -0.2619 -0.1845 -0.0428
 9996TIP3    H151479   6.555   4.477  11.412 -0.6877 -0.3060  0.6301
 9996TIP3    H251480   6.706   4.494  11.413 -0.7492  0.3110 -0.3073
 9997TIP3   OH251481   2.435   0.364  16.358  0.1009 -0.1019 -0.2784
 9997TIP3    H151482   2.398   0.357  16.447 -0.9625  0.8457 -0.6346
 9997TIP3    H251483   2.410   0.282  16.316  0.5597 -0.5341  0.2778
 9998TIP3   OH251484   2.764   4.832  10.605  0.1572 -0.5121  0.5968
 9998TIP3    H151485   2.770   4.752  10.553  0.2774 -0.4073  0.4496
 9998TIP3    H251486   2.836   4.887  10.573 -1.2943  0.5790 -0.9109
 9999TIP3   OH251487   6.528   4.739  16.890  0.1711 -0.3286  0.2255
 9999TIP3    H151488   6.458   4.694  16.937  1.3829 -2.2435  0.2420
 9999TIP3    H251489   6.578   4.784  16.957  1.1775 -2.0653  0.6733
10000TIP3   OH251490   1.203   6.571   0.203 -0.6676  0.6056  0.0432
10000TIP3    H151491   1.214   6.653   0.250  0.7576  0.6300 -0.3100
10000TIP3    H251492   1.278   6.518   0.229 -1.4480 -0.4955  0.0874
10001TIP3   OH251493   5.066   5.962  11.163 -0.1234  0.1414  0.3724
10001TIP3    H151494   5.026   6.048  11.182 -1.9881 -0.3863 -1.0320
10001TIP3    H251495   5.010   5.924  11.095  0.6779 -2.2163  0.9965
10002TIP3   OH251496   6.159   1.458  14.033 -0.3228  0.2486  0.0253
10002TIP3    H151497   6.132   1.549  14.040 -0.5004  0.1358  0.8686
10002TIP3    H251498   6.077   1.408  14.036 -0.1392 -0.0075  0.9530
10003TIP3   OH251499   6.052   4.025  14.816  1.1305 -0.2013 -0.2475
10003TIP3    H151500   6.127   3.985  14.773  1.3827 -0.3101  0.2917
10003TIP3    H251501   6.012   3.955  14.867 -0.3078 -0.5621 -1.8120
10004TIP3   OH251502   3.673   6.470   4.059  0.2624  0.1723  0.3587
10004TIP3    H151503   3.695   6.391   4.109 -1.1093  0.6773  1.8136
10004TIP3    H251504   3.580   6.460   4.040  0.4726  0.6489 -0.9134
10005TIP3   OH251505   3.827   0.695  11.533 -0.0876 -0.3570 -0.3200
10005TIP3    H151506   3.906   0.642  11.521 -0.5903 -0.8934 -1.2636
10005TIP3    H251507   3.757   0.643  11.496 -0.9088  0.1036  0.5578
10006TIP3   OH251508   6.757   0.962   0.182  0.3600  0.0391  0.2506
10006TIP3    H151509   6.810   0.939   0.258 -0.5004 -1.0417  0.5320
10006TIP3    H251510   6.767   0.887   0.123  0.9625  0.8383 -0.6747
10007TIP3   OH251511   0.584   1.008   2.125 -0.1284  0.1265 -0.1646
10007TIP3    H151512   0.592   0.988   2.218  1.6901  0.8132 -0.1550
10007TIP3    H251513   0.491   1.029   2.113 -0.3461  0.2035  1.5161
10008TIP3   OH251514   4.900   5.988  15.564 -0.8529  0.2935  0.5333
10008TIP3    H151515   4.861   5.929  15.629  0.5159 -1.0455  0.1545
10008TIP3    H251516   4.953   5.931  15.509 -0.2257  1.7634 -0.3955
10009TIP3   OH251517   5.608   6.394   4.404  0.0558  0.6530  0.3843
10009TIP3    H151518   5.547   6.437   4.464 -1.2598 -0.3487 -0.1872
10009TIP3    H251519   5.597   6.300   4.422  0.8722  0.4281 -0.2585
10010TIP3   OH251520   4.485   6.564  12.902  0.1782  0.0136 -0.5890
10010TIP3    H151521   4.533   6.484  12.880 -1.3162 -1.3767  1.1246
10010TIP3    H251522   4.548   6.617  12.952  1.7396  0.7249 -3.2050
10011TIP3   OH251523   4.528   3.318   0.490 -0.1167  0.1349 -0.5146
10011TIP3    H151524   4.445   3.285   0.457  0.1344 -0.7631 -0.2643
10011TIP3    H251525   4.580   3.239   0.507  0.1191  0.6050  1.0585
10012TIP3   OH251526   1.397   6.000   5.273  0.4642 -0.1126 -0.2163
10012TIP3    H151527   1.490   6.003   5.250  0.5759  0.7411  0.3318
10012TIP3    H251528   1.391   5.932   5.340  0.8248  0.3801  0.3217
10013TIP3   OH251529   6.754   2.474  15.089  0.4560 -0.1940 -0.4176
10013TIP3    H151530   6.765   2.562  15.125 -0.8404 -0.1205 -0.1676
10013TIP3    H251531   6.723   2.489  14.999 -2.2971 -0.3833  0.4680
10014TIP3   OH251532   0.565   0.396   1.021 -0.2120 -0.2650 -0.6947
10014TIP3    H151533   0.659   0.382   1.035 -0.2463 -1.3079 -1.5166
10014TIP3    H251534   0.555   0.491   1.024  0.9300 -0.1260 -0.9817
10015TIP3   OH251535   6.201   5.855  15.215 -0.4726 -0.5798  0.1159
10015TIP3    H151536   6.291   5.833  15.240 -0.6343 -0.8213  0.4890
10015TIP3    H251537   6.210   5.898  15.130 -0.0587 -1.0994 -0.1003
10016TIP3   OH251538   0.355   3.795  15.169  0.0603 -0.2000 -0.6521
10016TIP3    H151539   0.309   3.711  15.171  0.7280 -0.5277  2.1897
10016TIP3    H251540   0.447   3.773  15.186 -0.1942  1.3642  3.0870
10017TIP3   OH251541   6.574   1.307   5.992 -0.1847 -0.3567  0.2693
10017TIP3    H151542   6.624   1.361   6.053 -0.1197  1.0402 -0.9893
10017TIP3    H251543   6.581   1.353   5.909 -1.0486 -1.7520 -0.5859
10018TIP3   OH251544   1.015   2.762   0.128  0.1265  0.2132 -0.0278
10018TIP3    H151545   0.940   2.798   0.175  1.1736 -0.1668  2.0085
10018TIP3    H251546   1.063   2.838   0.096 -0.6659  0.4730 -0.6095
10019TIP3   OH251547   4.308   4.638   5.613  0.0506 -0.2601 -0.3208
10019TIP3    H151548   4.216   4.618   5.596  0.3344 -0.5600 -1.5244
10019TIP3    H251549   4.327   4.594   5.695 -0.8160 -0.3812 -0.1761
10020TIP3   OH251550   4.309   1.365  12.938  0.4577  0.3674 -0.1142
10020TIP3    H151551   4.252   1.421  12.885  1.4929  2.3254  0.7720
10020TIP3    H251552   4.390   1.415  12.947  2.1614 -2.1444 -0.9127
10021TIP3   OH251553   6.111   5.177  16.614 -0.0925 -0.3558 -0.0928
10021TIP3    H151554   6.099   5.082  16.626 -2.2244 -0.2734 -1.3960
10021TIP3    H251555   6.206   5.189  16.617  0.2756 -2.7005 -0.9580
10022TIP3   OH251556   2.992   0.477  14.902 -0.2498  0.1267 -0.4804
10022TIP3    H151557   2.922   0.536  14.872 -0.9236  0.1441  1.0951
10022TIP3    H251558   3.041   0.530  14.965  0.8419 -0.0808 -1.1563
10023TIP3   OH251559   0.016   4.972   3.729 -0.1155  0.1209  0.2149
10023TIP3    H151560   0.082   4.978   3.661 -0.9350 -1.0934 -0.7202
10023TIP3    H251561  -0.043   5.046   3.712 -1.0173 -0.8946 -1.1845
10024TIP3   OH251562   2.513   3.752   4.705 -0.0184 -0.3062  0.0301
10024TIP3    H151563   2.575   3.717   4.640  0.0553 -2.0050  0.9950
10024TIP3    H251564   2.459   3.677   4.729 -2.6424  1.2107 -0.9515
10025TIP3   OH251565   5.432   6.380  10.998  0.0546 -0.3963  0.2573
10025TIP3    H151566   5.522   6.377  11.030  0.1099 -0.5968  0.0846
10025TIP3    H251567   5.406   6.472  11.006 -0.1055 -0.5251  1.3613
10026TIP3   OH251568   6.492   0.175   4.558  0.7216 -0.7269 -0.4784
10026TIP3    H151569   6.553   0.111   4.522  1.0235  0.2165 -1.6970
10026TIP3    H251570   6.527   0.260   4.530  1.7906  0.1730  3.2790
10027TIP3   OH251571   3.648   0.092   0.597 -0.1166 -0.0394  0.4152
10027TIP3    H151572   3.670   0.174   0.553 -0.7560  0.6742  1.3876
10027TIP3    H251573   3.669   0.024   0.534  0.3222  0.8839 -0.4483
10028TIP3   OH251574   4.606   1.515   0.038  0.0532  0.0973  0.7419
10028TIP3    H151575   4.647   1.452   0.098  0.2408 -0.6353 -0.1589
10028TIP3    H251576   4.524   1.539   0.082 -0.2619 -1.1510  0.8718
10029TIP3   OH251577   0.620   4.027  12.546  0.2084  0.1411 -0.4978
10029TIP3    H151578   0.693   4.089  12.538  1.4090 -1.2546 -0.4881
10029TIP3    H251579   0.657   3.943  12.522 -0.9847 -0.8682  1.0853
10030TIP3   OH251580   4.003   4.060  16.398 -0.3743  0.0915 -0.4883
10030TIP3    H151581   3.932   4.061  16.333 -0.7259  1.7592 -0.0977
10030TIP3    H251582   3.985   3.982  16.451 -1.4930  0.0751 -0.8751
10031TIP3   OH251583   4.366   3.249  15.650 -0.1892 -0.3599  0.0829
10031TIP3    H151584   4.381   3.189  15.723 -2.0160 -2.1989 -0.9906
10031TIP3    H251585   4.392   3.199  15.572 -2.3835 -0.0413 -0.8947
10032TIP3   OH251586   0.107   2.511   0.166 -0.5151  0.3925 -0.0480
10032TIP3    H151587   0.078   2.478   0.081  0.2905  0.8194 -0.4930
10032TIP3    H251588   0.117   2.432   0.220  0.2834 -0.0006 -0.7554
10033TIP3   OH251589   4.906   2.033  15.606  0.4016  0.5069 -0.6591
10033TIP3    H151590   4.817   2.027  15.571 -0.6368  1.0037  1.7924
10033TIP3    H251591   4.948   2.100  15.553 -1.1973  1.4043 -0.8181
10034TIP3   OH251592   6.274   4.579   6.083 -0.5714 -0.5657 -0.3105
10034TIP3    H151593   6.363   4.551   6.103 -0.6600 -2.1574 -1.9929
10034TIP3    H251594   6.274   4.594   5.988 -1.9700 -0.1271 -0.2516
10035TIP3   OH251595   6.681   6.494   0.473 -0.2059  0.1707  0.7093
10035TIP3    H151596   6.734   6.524   0.399  1.2064 -0.1393  1.5749
10035TIP3    H251597   6.691   6.564   0.538  0.0085 -0.3965  1.2807
10036TIP3   OH251598   6.180   6.283  11.201  0.3172  0.3621 -0.0042
10036TIP3    H151599   6.097   6.295  11.247  0.1561  1.2427 -0.5200
10036TIP3    H251600   6.156   6.236  11.121 -0.1085  3.1074 -1.5321
10037TIP3   OH251601   4.861   1.514   6.442  0.4104 -0.3549 -0.0960
10037TIP3    H151602   4.887   1.475   6.358 -0.2922  0.7658 -0.8461
10037TIP3    H251603   4.861   1.440   6.503  0.9854 -1.1771 -1.0634
10038TIP3   OH251604   3.433   0.870  12.708  0.6290  0.2734  0.0024
10038TIP3    H151605   3.440   0.781  12.672 -0.1781 -0.1211  0.7832
10038TIP3    H251606   3.431   0.857  12.802 -1.6376  0.9298  0.0911
10039TIP3   OH251607   1.094   6.715   5.051 -0.1779 -0.4674 -0.5375
10039TIP3    H151608   1.032   6.646   5.029 -0.6454 -0.2984  0.2245
10039TIP3    H251609   1.165   6.704   4.988  0.0838 -2.0723  0.0012
10040TIP3   OH251610   5.047   1.119   2.232 -0.1936 -0.3273  0.2873
10040TIP3    H151611   5.134   1.101   2.195 -0.8154 -3.6890  0.3272
10040TIP3    H251612   5.058   1.106   2.326 -0.4912  0.2967  0.4056
10041TIP3   OH251613   1.949   0.876   0.565  0.6063 -0.2293 -0.0370
10041TIP3    H151614   1.948   0.896   0.471  4.4714  2.6847  0.3975
10041TIP3    H251615   2.026   0.923   0.598 -0.7979 -1.0079  4.6524
10042TIP3   OH251616   3.557   0.143  13.272 -0.6283  0.3664 -0.2794
10042TIP3    H151617   3.647   0.113  13.289 -0.9999 -0.3193  0.5050
10042TIP3    H251618   3.565   0.238  13.264 -0.0102  0.4409  1.0251
10043TIP3   OH251619   3.049   2.574   3.979 -0.3714  0.5029  0.4949
10043TIP3    H151620   3.074   2.487   4.011  2.1443  0.0361 -2.5364
10043TIP3    H251621   2.999   2.557   3.900 -0.7594  1.8131  0.4498
10044TIP3   OH251622   1.827   4.540  14.992  0.2341 -0.1412  0.6058
10044TIP3    H151623   1.913   4.577  15.010  0.7290 -1.3771  0.8009
10044TIP3    H251624   1.767   4.614  14.998  1.1433  0.5218  1.5198
10045TIP3   OH251625   4.108   2.850  13.419  0.4417 -0.0895  0.0280
10045TIP3    H151626   4.046   2.923  13.426 -0.3995 -0.9263  1.5078
10045TIP3    H251627   4.194   2.891  13.430  0.1036  0.9296 -0.9570
10046TIP3   OH251628   3.879   1.806  13.169  0.7513 -0.0353 -0.0767
10046TIP3    H151629   3.871   1.725  13.119  0.2914 -0.9675  1.4757
10046TIP3    H251630   3.972   1.828  13.164  0.8071 -0.4327 -0.8368
10047TIP3   OH251631   3.924   1.964  13.816  0.2153  0.9106 -0.5258
10047TIP3    H151632   3.855   1.932  13.758 -1.0072  1.2250  0.7452
10047TIP3    H251633   3.898   2.054  13.837  0.8714  0.9437  0.1583
10048TIP3   OH251634   3.374   1.213   6.476  0.0409  0.2463 -0.2678
10048TIP3    H151635   3.311   1.245   6.541  1.2433  1.7831  0.1551
10048TIP3    H251636   3.458   1.247   6.505  0.4271  2.0454 -3.3231
10049TIP3   OH251637   3.086   3.148  14.354  0.4015  0.1227  0.5324
10049TIP3    H151638   3.086   3.126  14.260  0.3711 -1.2744  0.8496
10049TIP3    H251639   3.158   3.096  14.390  0.2806  0.5059  1.3275
10050TIP3   OH251640   5.962   4.979  13.869 -0.3507  0.6916  0.0564
10050TIP3    H151641   5.950   4.888  13.841  0.5969  0.1738  1.2765
10050TIP3    H251642   6.016   4.973  13.947 -0.0751  2.3347  0.0139
10051TIP3   OH251643   0.726   6.277   0.581 -0.5871 -0.2702  0.2117
10051TIP3    H151644   0.661   6.228   0.631  0.6480 -0.4845  1.6272
10051TIP3    H251645   0.758   6.344   0.642 -2.6315  2.7171 -1.8148
10052TIP3   OH251646   3.996   0.325   5.074  0.2044  0.3176  0.9912
10052TIP3    H151647   4.054   0.357   5.143 -1.1722  2.5523  1.1432
10052TIP3    H251648   3.918   0.296   5.121 -0.7221  1.8108  0.3817
10053TIP3   OH251649   3.920   6.186  12.454 -0.4470  0.7521  0.5187
10053TIP3    H151650   3.845   6.204  12.397  0.7447  0.1957 -1.2791
10053TIP3    H251651   3.949   6.272  12.484  0.0557  1.2420 -1.2690
10054TIP3   OH251652   6.289   3.860   2.775 -0.3520 -0.1506  0.3804
10054TIP3    H151653   6.270   3.893   2.863  0.9876  0.8555  0.3018
10054TIP3    H251654   6.379   3.886   2.758 -0.1351 -1.5474 -0.7566
10055TIP3   OH251655   1.898   4.902  10.645 -0.0333 -0.0540  0.1868
10055TIP3    H151656   1.986   4.884  10.610  0.2970 -0.2827  1.1308
10055TIP3    H251657   1.868   4.978  10.596  0.4222 -0.3866 -0.6146
10056TIP3   OH251658   5.693   3.050   2.049 -0.1051 -0.8036  1.2199
10056TIP3    H151659   5.775   3.060   2.096 -0.8686 -3.5632  3.2584
10056TIP3    H251660   5.718   3.017   1.962  1.0276  0.0590  1.2191
10057TIP3   OH251661   5.125   6.658   1.366  0.3277  0.4031  0.0921
10057TIP3    H151662   5.220   6.652   1.358  0.2801 -0.1361 -0.0888
10057TIP3    H251663   5.108   6.751   1.379  1.0282  0.3242  1.8530
10058TIP3   OH251664   0.740   0.592  11.622  0.2145 -0.5648  0.0799
10058TIP3    H151665   0.663   0.554  11.665 -0.2384 -1.4915 -1.5043
10058TIP3    H251666   0.815   0.555  11.668 -0.2609 -0.9040  0.5902
10059TIP3   OH251667   6.515   3.806  11.557  0.3332  0.5801  0.3816
10059TIP3    H151668   6.446   3.740  11.570  0.1888  1.0316  2.0706
10059TIP3    H251669   6.586   3.759  11.513 -0.4351 -0.2734  0.0318
10060TIP3   OH251670   3.864   2.836  12.167  0.3056  0.6610 -0.0914
10060TIP3    H151671   3.922   2.879  12.231 -1.2000 -1.0683  2.4927
10060TIP3    H251672   3.846   2.905  12.103  2.4006  2.2610  0.9359
10061TIP3   OH251673   2.576   5.977   0.929 -0.1363 -0.2591  0.3250
10061TIP3    H151674   2.561   6.062   0.886  1.9967 -0.0804 -0.1583
10061TIP3    H251675   2.637   5.997   1.000 -1.7567 -0.9712  1.9704
10062TIP3   OH251676   3.422   6.295  13.268 -0.1488  0.2718 -0.0199
10062TIP3    H151677   3.435   6.242  13.189 -0.6072 -0.0649  0.1256
10062TIP3    H251678   3.410   6.232  13.338 -0.4712  0.5651  0.1953
10063TIP3   OH251679   3.943   0.299   0.102 -0.1567  0.3821 -0.5200
10063TIP3    H151680   3.896   0.309   0.185  0.4280 -0.1252 -0.1232
10063TIP3    H251681   3.947   0.204   0.088 -2.3310  0.5255 -2.3295
10064TIP3   OH251682   5.454   0.834  16.364 -0.1765  0.7391  0.1707
10064TIP3    H151683   5.527   0.888  16.334 -1.3507  2.7331  0.7488
10064TIP3    H251684   5.455   0.758  16.306  1.0640  1.7616 -1.2082
10065TIP3   OH251685   2.706   0.579  11.784  0.0266 -0.1068 -0.3528
10065TIP3    H151686   2.768   0.556  11.854 -1.9160 -2.3217  0.6903
10065TIP3    H251687   2.717   0.511  11.719 -0.1437  0.4452 -0.9643
10066TIP3   OH251688   5.538   2.341  13.571  0.1662 -0.0578 -0.5132
10066TIP3    H151689   5.468   2.403  13.549 -1.5269 -1.1775  1.5089
10066TIP3    H251690   5.601   2.395  13.619 -0.5941  0.4238 -0.0281
10067TIP3   OH251691   3.912   2.211   6.028 -0.0535 -0.2970 -0.1123
10067TIP3    H151692   3.989   2.233   6.080 -0.6119  0.8048  0.2740
10067TIP3    H251693   3.931   2.125   5.990  0.4336 -1.0604  1.8105
10068TIP3   OH251694   5.226   0.678   5.312  0.1018 -0.1402 -0.2058
10068TIP3    H151695   5.267   0.638   5.236 -3.3196 -1.9869 -1.1913
10068TIP3    H251696   5.192   0.605   5.363  0.8039  1.1645  2.2249
10069TIP3   OH251697   6.183   2.546  14.858 -0.3926  0.5751 -0.0981
10069TIP3    H151698   6.237   2.533  14.937 -0.9471 -1.4879 -0.0301
10069TIP3    H251699   6.244   2.532  14.786 -0.1095  1.4988 -0.0504
10070TIP3   OH251700   3.531   0.708  16.649  0.1747  0.2797  0.0201
10070TIP3    H151701   3.472   0.679  16.580  1.8321  0.5191 -1.5197
10070TIP3    H251702   3.526   0.639  16.716 -0.9976 -0.2246 -0.5815
10071TIP3   OH251703   1.994   0.988  15.459  0.1343 -0.0471  0.1653
10071TIP3    H151704   1.934   0.944  15.398 -0.6251  0.3458  0.6204
10071TIP3    H251705   2.042   0.917  15.501 -0.9382 -0.4359  0.7408
10072TIP3   OH251706   1.484   3.781   0.921  0.0297  0.3681  0.0749
10072TIP3    H151707   1.453   3.845   0.858  0.1720 -0.0503 -0.4235
10072TIP3    H251708   1.405   3.754   0.969 -0.3566 -0.5572 -1.0605
10073TIP3   OH251709   2.706   1.856  13.202 -0.1241  0.9792 -0.1200
10073TIP3    H151710   2.622   1.875  13.160 -0.4388 -0.9014 -0.3799
10073TIP3    H251711   2.771   1.902  13.148 -0.7267  0.2106 -1.5306
10074TIP3   OH251712   3.239   0.521   3.481  0.9992  0.2919  0.2078
10074TIP3    H151713   3.183   0.491   3.552 -0.9287  1.0631 -0.9402
10074TIP3    H251714   3.259   0.442   3.431 -0.6892  0.2717 -0.4717
10075TIP3   OH251715   5.683   4.547   4.787  0.4366  0.1369 -0.0792
10075TIP3    H151716   5.590   4.533   4.802  0.5631 -0.0229  0.5908
10075TIP3    H251717   5.726   4.510   4.864  1.1449 -1.0686 -1.0218
10076TIP3   OH251718   0.543   6.290  12.643 -0.0668 -0.3653  0.1053
10076TIP3    H151719   0.583   6.272  12.728  0.2523  1.8494  0.4410
10076TIP3    H251720   0.462   6.337  12.665 -0.4414 -0.5940 -0.7814
10077TIP3   OH251721   2.313   1.567  16.112 -0.4673 -0.1547  0.0827
10077TIP3    H151722   2.374   1.633  16.079  0.1966 -0.3491  0.8935
10077TIP3    H251723   2.227   1.606  16.099 -0.1740  0.1341 -1.0515
10078TIP3   OH251724   4.286   0.665  15.044 -0.7668  0.1368  0.5086
10078TIP3    H151725   4.234   0.593  15.008  0.4111 -0.4299 -0.1256
10078TIP3    H251726   4.236   0.744  15.023 -0.1031 -0.1653 -2.5140
10079TIP3   OH251727   1.060   5.075  14.389  0.1335  0.2097  0.3214
10079TIP3    H151728   1.067   5.025  14.308 -1.4331 -0.1177  0.3592
10079TIP3    H251729   1.145   5.065  14.431  1.4180  1.4977 -1.8983
10080TIP3   OH251730   5.125   2.473  12.038 -0.2740 -0.2562 -0.2696
10080TIP3    H151731   5.205   2.490  11.987 -0.1135  0.6376  0.2689
10080TIP3    H251732   5.068   2.546  12.018 -0.5536 -0.3568  0.1538
10081TIP3   OH251733   2.887   0.090  15.428 -0.0335 -0.1922 -0.0945
10081TIP3    H151734   2.942   0.168  15.425 -0.9829  0.5600  1.4774
10081TIP3    H251735   2.856   0.086  15.519  2.2278 -3.9521  0.5967
10082TIP3   OH251736   2.413   1.572   1.860  0.7947 -0.9752 -0.4440
10082TIP3    H151737   2.478   1.610   1.920  0.9566 -3.4561  1.0353
10082TIP3    H251738   2.449   1.587   1.773  0.0859  3.5951 -0.0744
10083TIP3   OH251739   5.637   1.910  11.366 -0.5243 -0.2259 -0.8852
10083TIP3    H151740   5.647   1.815  11.373 -1.7026 -0.2540  0.7459
10083TIP3    H251741   5.611   1.937  11.454  0.6682  1.7228 -1.1194
10084TIP3   OH251742   3.860   6.640   3.349 -0.2145  0.6147  0.2628
10084TIP3    H151743   3.887   6.548   3.341  0.6678  0.8721  0.1787
10084TIP3    H251744   3.796   6.641   3.420  0.9192  0.1754  1.3047
10085TIP3   OH251745   4.078   2.569  12.761  0.0767 -0.1815  0.0398
10085TIP3    H151746   4.153   2.526  12.719  0.5476  0.3989  0.2821
10085TIP3    H251747   4.059   2.514  12.837  1.7413  0.9238  1.3054
10086TIP3   OH251748   1.384   1.890  17.146 -0.1087  0.5393 -0.5092
10086TIP3    H151749   1.298   1.930  17.163 -0.2846 -0.8450  2.0776
10086TIP3    H251750   1.364   1.811  17.096 -0.1844  1.0176 -1.2510
10087TIP3   OH251751   4.849   2.091   1.945  0.3062  0.8276 -0.4593
10087TIP3    H151752   4.943   2.106   1.958  0.3915 -1.3251  1.9439
10087TIP3    H251753   4.813   2.089   2.034 -1.7707  0.2305 -1.2809
10088TIP3   OH251754   0.409   1.636   5.324 -0.0834  0.7815  0.8062
10088TIP3    H151755   0.368   1.565   5.373 -0.1691  1.2500  1.4199
10088TIP3    H251756   0.502   1.630   5.346  0.0638  0.2168  0.0441
10089TIP3   OH251757   2.574   5.374   3.097 -0.0156  0.3141  0.2317
10089TIP3    H151758   2.601   5.367   3.006  1.5674  3.4140  0.4223
10089TIP3    H251759   2.616   5.299   3.141 -0.8158 -1.2093 -1.5362
10090TIP3   OH251760   0.197   6.388  14.893  0.6175  0.3777  0.6185
10090TIP3    H151761   0.143   6.416  14.819  0.6016  1.3064  0.9775
10090TIP3    H251762   0.237   6.306  14.864  1.6603  1.4107 -0.9281
10091TIP3   OH251763   4.532   1.785  14.415 -0.1566 -0.4921  0.6202
10091TIP3    H151764   4.455   1.741  14.378  1.5718 -2.7252 -0.5090
10091TIP3    H251765   4.528   1.874  14.381 -0.5451 -1.5040 -2.1553
10092TIP3   OH251766   0.982   5.444  11.925  0.6470 -0.4231 -0.1894
10092TIP3    H151767   0.926   5.385  11.874  0.3615 -0.6353  0.3584
10092TIP3    H251768   1.060   5.456  11.871  0.1379 -0.2522 -0.8926
10093TIP3   OH251769   5.434   1.355   5.913 -0.2734 -0.2514  0.0880
10093TIP3    H151770   5.359   1.316   5.868  1.0386 -3.4164  0.5520
10093TIP3    H251771   5.403   1.367   6.003 -1.0286  0.8198 -0.3002
10094TIP3   OH251772   6.566   0.409  12.968  0.0883  0.0564  0.7377
10094TIP3    H151773   6.599   0.338  13.023 -2.0858 -1.5168  0.0222
10094TIP3    H251774   6.505   0.457  13.025 -0.7411 -0.4567  0.2854
10095TIP3   OH251775   0.762   3.855   2.316 -0.2410 -0.5612 -0.6665
10095TIP3    H151776   0.729   3.943   2.336  2.3570  0.3323 -0.1125
10095TIP3    H251777   0.742   3.803   2.393  1.6538  0.5798  0.6522
10096TIP3   OH251778   4.350   5.651  15.244 -0.0906 -0.2620  0.3560
10096TIP3    H151779   4.307   5.696  15.317  0.0787  0.5804 -0.0631
10096TIP3    H251780   4.371   5.720  15.182  1.1421 -0.7757  0.1860
10097TIP3   OH251781   1.502   0.798   6.081  0.4593  0.0055 -0.0157
10097TIP3    H151782   1.563   0.855   6.128 -0.3090  0.2132  0.7515
10097TIP3    H251783   1.415   0.825   6.113 -0.0530 -0.0928 -1.2909
10098TIP3   OH251784   2.237   1.499   6.562  0.1272  0.4169  0.1968
10098TIP3    H151785   2.234   1.591   6.537  0.5930 -0.0544 -1.6174
10098TIP3    H251786   2.330   1.477   6.562 -0.0745 -0.4831 -0.9735
10099TIP3   OH251787   6.252   5.777   3.637  0.8309  0.4539 -0.0020
10099TIP3    H151788   6.171   5.728   3.624  0.7001  0.5238  0.5284
10099TIP3    H251789   6.278   5.804   3.549  1.4219 -1.3718 -0.3865
10100TIP3   OH251790   4.932   1.797  12.991  0.8358  0.5732 -0.0355
10100TIP3    H151791   4.869   1.760  12.930  0.8790  2.6852 -1.3982
10100TIP3    H251792   4.949   1.726  13.053  0.1932 -1.3577 -1.9917
10101TIP3   OH251793   1.445   1.384   0.766 -0.0874 -0.1773 -0.3416
10101TIP3    H151794   1.366   1.417   0.723  0.4754  1.8793  0.1092
10101TIP3    H251795   1.516   1.405   0.706  0.3199 -0.3394  0.0762
10102TIP3   OH251796   2.760   2.403  15.974 -0.1246 -0.2086  0.2890
10102TIP3    H151797   2.812   2.483  15.962 -1.1195  0.5019  0.6672
10102TIP3    H251798   2.825   2.333  15.977  0.7540  0.5785 -0.1150
10103TIP3   OH251799   2.670   0.000   4.875 -0.1018 -0.4723 -0.2326
10103TIP3    H151800   2.709  -0.070   4.927  1.5188 -0.6638 -1.6556
10103TIP3    H251801   2.725   0.077   4.894 -1.0211  0.0734  0.2450
10104TIP3   OH251802   5.651   3.816   4.274  0.5638  0.8683 -0.4372
10104TIP3    H151803   5.737   3.827   4.235  0.7387 -0.6033 -0.4962
10104TIP3    H251804   5.660   3.738   4.330 -0.6341  0.8862 -0.2074
10105TIP3   OH251805   4.208   5.363  11.867  0.9509  0.3938 -0.1885
10105TIP3    H151806   4.254   5.281  11.885 -2.0329 -1.0647  1.1574
10105TIP3    H251807   4.140   5.339  11.804  0.3695  1.9505 -0.1744
10106TIP3   OH251808   5.461   5.421  16.017 -0.3259  0.2892 -0.3499
10106TIP3    H151809   5.518   5.352  16.051  0.2097  0.4989 -0.8126
10106TIP3    H251810   5.488   5.500  16.064  0.5350  0.6147 -1.3661
10107TIP3   OH251811   6.080   5.707  13.304 -0.1884 -0.4287  0.4544
10107TIP3    H151812   6.078   5.771  13.375  0.8953  0.0764  0.0459
10107TIP3    H251813   6.007   5.732  13.247  1.3450  1.6276 -0.6911
10108TIP3   OH251814   2.956   5.451   5.105  0.5453 -0.3787 -0.3936
10108TIP3    H151815   3.050   5.465   5.107  0.5141 -0.2209  1.8852
10108TIP3    H251816   2.918   5.538   5.116  0.1286 -0.4891 -0.9125
10109TIP3   OH251817   3.634   3.262   5.185  0.2439 -0.2217 -0.1337
10109TIP3    H151818   3.638   3.167   5.201  0.1862 -0.0304  1.0255
10109TIP3    H251819   3.649   3.270   5.091  3.8362 -1.1495  0.3014
10110TIP3   OH251820   2.333   6.742   6.303 -0.5170 -0.2696  0.0774
10110TIP3    H151821   2.278   6.666   6.283  0.2371 -1.0362  0.8609
10110TIP3    H251822   2.293   6.780   6.381 -1.0894  0.3379 -0.5089
10111TIP3   OH251823   2.934   5.363   3.868  0.0051 -0.5773 -0.1796
10111TIP3    H151824   2.856   5.397   3.912  0.2205  0.6828 -0.7305
10111TIP3    H251825   2.927   5.395   3.778  0.7902 -1.0617 -0.4183
10112TIP3   OH251826   3.582   6.256   4.351 -0.0017  0.4148  0.1669
10112TIP3    H151827   3.602   6.348   4.370  0.0754  0.4779 -0.2168
10112TIP3    H251828   3.665   6.219   4.322 -0.1955  0.4041 -0.3785
10113TIP3   OH251829   5.323   0.310   3.005 -0.2697 -0.3974 -0.3389
10113TIP3    H151830   5.368   0.394   2.998 -1.8088  0.4552 -0.1979
10113TIP3    H251831   5.369   0.253   2.942  0.0184  0.8774 -1.3051
10114TIP3   OH251832   1.718   0.848   4.174  0.0883 -0.4176 -0.2082
10114TIP3    H151833   1.683   0.829   4.087 -2.3768 -0.1282  0.6815
10114TIP3    H251834   1.699   0.941   4.187 -0.3102 -0.6635  0.9716
10115TIP3   OH251835   3.243   2.468   5.846  0.3590  0.2179 -0.1783
10115TIP3    H151836   3.195   2.413   5.909  0.8271 -0.1610 -0.1459
10115TIP3    H251837   3.334   2.439   5.854  0.4248  0.1773 -1.0197
10116TIP3   OH251838   0.482   1.671  15.776  0.2530  0.1538  0.0076
10116TIP3    H151839   0.394   1.639  15.760  0.1045 -0.1822  1.4271
10116TIP3    H251840   0.471   1.765  15.790 -0.2529 -0.2874  2.8058
10117TIP3   OH251841   3.705   5.330   1.129  0.4903  0.0204  0.7513
10117TIP3    H151842   3.746   5.243   1.122  0.3447 -0.1365  1.7753
10117TIP3    H251843   3.671   5.347   1.041  0.4767 -0.9818  0.5492
10118TIP3   OH251844   4.846   2.523  10.734  0.0126 -0.0129  0.0129
10118TIP3    H151845   4.905   2.520  10.809 -0.1229  1.5679  0.2038
10118TIP3    H251846   4.800   2.439  10.736 -0.0082  0.0164  1.7203
10119TIP3   OH251847   1.875   5.935  13.044  0.0488  0.4035 -0.2157
10119TIP3    H151848   1.809   5.995  13.077  0.6206  0.5718  0.6607
10119TIP3    H251849   1.955   5.987  13.040  0.1708  0.1539 -1.0938
10120TIP3   OH251850   5.889   2.125   1.356  0.0588  0.3529 -0.5159
10120TIP3    H151851   5.969   2.073   1.344 -0.1229 -0.0456 -0.0137
10120TIP3    H251852   5.901   2.169   1.440  0.0846  0.9000 -0.8023
10121TIP3   OH251853   2.106   3.137   5.325 -0.0948  0.4890 -0.3561
10121TIP3    H151854   2.065   3.203   5.269  1.3515  0.1674 -1.8510
10121TIP3    H251855   2.104   3.175   5.413  0.0190  2.1981 -1.0761
10122TIP3   OH251856   0.204   5.002   0.536 -0.2516  0.1165  0.0970
10122TIP3    H151857   0.213   4.941   0.462 -1.2888 -2.0629  1.6957
10122TIP3    H251858   0.127   5.054   0.515  0.6551  0.9343 -1.3033
10123TIP3   OH251859   0.632   0.918  14.040 -0.9922 -0.1016  0.0104
10123TIP3    H151860   0.667   0.944  13.955  0.4432 -0.8477  0.3569
10123TIP3    H251861   0.630   0.999  14.091 -1.8259  0.3405 -0.7096
10124TIP3   OH251862   6.061   5.835  14.159  0.6664 -0.2554  0.1754
10124TIP3    H151863   5.970   5.843  14.130  0.8860  0.4246 -0.3293
10124TIP3    H251864   6.090   5.925  14.174  1.8808 -0.3146 -1.6412
10125TIP3   OH251865   5.201   4.554  12.683 -0.6253  0.0841 -0.5812
10125TIP3    H151866   5.287   4.522  12.653 -0.8500 -1.9053  0.8482
10125TIP3    H251867   5.216   4.647  12.701  0.9542  0.0180 -1.4048
10126TIP3   OH251868   5.314   0.179  14.567 -0.3532 -0.4301  0.7531
10126TIP3    H151869   5.297   0.135  14.484 -0.5660 -2.2957  1.7787
10126TIP3    H251870   5.274   0.266  14.557 -2.7656 -1.6082 -0.0897
10127TIP3   OH251871   1.708   3.793   2.782  0.2504  0.1647 -0.2753
10127TIP3    H151872   1.693   3.828   2.695  1.9217  0.6309 -0.3931
10127TIP3    H251873   1.778   3.849   2.819  0.6835 -1.0213  0.7410
10128TIP3   OH251874   1.656   6.716  14.983 -0.1596 -0.2624 -0.0177
10128TIP3    H151875   1.593   6.778  14.947  1.2910  1.8159  0.9074
10128TIP3    H251876   1.740   6.741  14.944  0.6883 -0.7325  1.4562
10129TIP3   OH251877   2.228   4.403  16.792  0.3292 -0.2428 -0.3999
10129TIP3    H151878   2.261   4.339  16.855 -3.2502 -0.0066  1.8674
10129TIP3    H251879   2.234   4.487  16.838 -3.2224 -0.1888  0.1411
10130TIP3   OH251880   1.494   3.317  13.507  0.3968 -0.1188 -0.0419
10130TIP3    H151881   1.589   3.314  13.503  0.5790 -0.5581  3.2510
10130TIP3    H251882   1.473   3.410  13.506  0.8411 -0.0225 -0.7939
10131TIP3   OH251883   5.383   3.907   1.823 -0.2470  0.3096 -0.0655
10131TIP3    H151884   5.474   3.932   1.811 -0.1182 -1.0585 -2.1158
10131TIP3    H251885   5.335   3.959   1.759 -1.1263  2.1550  2.0358
10132TIP3   OH251886   4.685   0.798  17.226 -0.3777  0.2861  0.4374
10132TIP3    H151887   4.723   0.785  17.139 -0.1204  0.5787  0.5034
10132TIP3    H251888   4.594   0.821  17.210  0.0241  1.7412  0.1839
10133TIP3   OH251889   1.955   2.167   1.778 -0.1830 -0.2731  0.7503
10133TIP3    H151890   2.033   2.125   1.816  0.8251 -0.3577 -1.2899
10133TIP3    H251891   1.974   2.170   1.684 -2.2598  0.5719  0.3343
10134TIP3   OH251892   5.722   4.102  13.482  0.0279  0.2705  0.5227
10134TIP3    H151893   5.770   4.170  13.436 -0.8376  1.4779  1.3837
10134TIP3    H251894   5.645   4.146  13.517 -1.9462 -1.7390 -1.1782
10135TIP3   OH251895   6.360   2.502  14.362  0.1546 -0.5156 -0.3160
10135TIP3    H151896   6.298   2.431  14.340  1.3015 -0.8118 -2.8190
10135TIP3    H251897   6.383   2.540  14.277 -0.6164  3.0514  1.0019
10136TIP3   OH251898   4.614   1.018  10.354 -0.1858 -0.4276 -0.5955
10136TIP3    H151899   4.598   0.937  10.403 -0.7050  0.5262  0.8230
10136TIP3    H251900   4.702   1.045  10.381  0.3659 -0.9910 -1.7719
10137TIP3   OH251901   0.639   0.846  16.965  0.4168 -0.8624 -0.0204
10137TIP3    H151902   0.710   0.790  16.933  0.3780 -0.9237  0.0003
10137TIP3    H251903   0.678   0.895  17.037  1.1048  0.8592 -1.5448
10138TIP3   OH251904   2.588   4.356   2.197 -0.0540 -0.7620  0.5663
10138TIP3    H151905   2.643   4.432   2.175 -2.5432  1.6898  2.3986
10138TIP3    H251906   2.525   4.351   2.125 -0.2431 -0.7382  0.7314
10139TIP3   OH251907   4.935   6.720   3.208 -0.2678 -0.1542  0.4580
10139TIP3    H151908   4.903   6.630   3.218 -1.3101  0.3310  1.6928
10139TIP3    H251909   5.000   6.731   3.277 -0.9672  0.3939  1.0362
10140TIP3   OH251910   6.131   0.185   1.543  0.6146  0.5821  0.3730
10140TIP3    H151911   6.117   0.181   1.448  0.7896 -0.2821  0.3765
10140TIP3    H251912   6.212   0.236   1.553  1.0870 -0.0879  0.0109
10141TIP3   OH251913   0.871   3.712   6.184  0.3558  0.4943 -0.2754
10141TIP3    H151914   0.819   3.641   6.221 -1.2515  0.7386 -1.9520
10141TIP3    H251915   0.888   3.771   6.257 -1.9698  0.5116  0.2804
10142TIP3   OH251916   2.268   1.981   0.295 -0.0144  0.4683 -0.1894
10142TIP3    H151917   2.264   2.073   0.271 -1.5860  0.7667  1.1265
10142TIP3    H251918   2.301   1.981   0.385 -0.7301 -0.2146  0.0796
10143TIP3   OH251919   4.046   2.315  12.876  0.1611 -0.3863 -0.3960
10143TIP3    H151920   4.008   2.253  12.939  1.1592 -1.0991 -0.4877
10143TIP3    H251921   3.975   2.332  12.814 -0.4267 -0.6768  0.1795
10144TIP3   OH251922   0.227   0.397   3.750 -0.3366 -0.8696 -0.1164
10144TIP3    H151923   0.284   0.363   3.819 -1.1300  0.7976  1.4036
10144TIP3    H251924   0.167   0.326   3.730 -0.2691 -1.2687  1.1105
10145TIP3   OH251925   0.581   2.218   3.167  0.1014 -0.0029  0.6478
10145TIP3    H151926   0.617   2.305   3.180  1.1682 -0.5122  1.1844
10145TIP3    H251927   0.608   2.193   3.079 -0.0415  0.1294  0.5667
10146TIP3   OH251928   4.774   5.295  17.066  0.4417 -0.2607  0.2431
10146TIP3    H151929   4.847   5.274  17.124  2.7905  1.1803 -2.0228
10146TIP3    H251930   4.785   5.389  17.049 -0.5608 -0.5237 -1.9678
10147TIP3   OH251931   0.725   5.024   3.115  1.1302  0.4636  0.2948
10147TIP3    H151932   0.728   5.056   3.206  1.7913  1.0895  0.0644
10147TIP3    H251933   0.816   5.000   3.096  0.8999 -0.1434 -0.0378
10148TIP3   OH251934   3.242   1.045   2.563  0.3161  0.4427  0.0114
10148TIP3    H151935   3.221   0.957   2.594  0.3337 -0.2018 -1.7810
10148TIP3    H251936   3.189   1.057   2.484 -0.6162  2.5087  0.8967
10149TIP3   OH251937   6.541   5.057  15.655 -0.6495  0.3743  0.3517
10149TIP3    H151938   6.619   5.107  15.633  0.6790 -1.7247  0.1520
10149TIP3    H251939   6.506   5.028  15.571 -0.2284 -0.7533  0.5549
10150TIP3   OH251940   5.305   0.082   0.598  0.2348  0.2835  0.3230
10150TIP3    H151941   5.397   0.080   0.626  0.3713 -0.8666 -0.1720
10150TIP3    H251942   5.255   0.064   0.677  0.5108 -0.6079  0.2991
10151TIP3   OH251943   3.613   2.046  11.931  0.0663  0.4758  0.4353
10151TIP3    H151944   3.704   2.060  11.905 -0.5497  0.9303 -1.5719
10151TIP3    H251945   3.619   2.000  12.015  2.1298  1.3716  0.8217
10152TIP3   OH251946   2.235   4.063   5.253 -0.5832  0.3093  0.1033
10152TIP3    H151947   2.284   4.076   5.335  0.0777 -0.0295 -0.2353
10152TIP3    H251948   2.218   3.969   5.250  0.3377  0.1539 -0.6744
10153TIP3   OH251949   3.812   3.483  11.583 -0.0618 -0.6978 -0.0293
10153TIP3    H151950   3.839   3.543  11.652 -0.3542 -2.3249  1.5498
10153TIP3    H251951   3.860   3.512  11.505  1.2944  0.3642  1.1801
10154TIP3   OH251952   0.595   4.936   2.012 -0.2975  0.1489  0.3714
10154TIP3    H151953   0.568   4.961   1.924 -0.8510 -1.8284 -0.0656
10154TIP3    H251954   0.539   4.861   2.034  1.6233 -1.0611  1.3455
10155TIP3   OH251955   1.835   4.187  13.060 -0.3900  0.2362 -0.0936
10155TIP3    H151956   1.741   4.170  13.049 -0.3460 -0.6192  0.7294
10155TIP3    H251957   1.846   4.199  13.154  0.5731 -1.2984  0.0056
10156TIP3   OH251958   5.696   2.323  15.829 -0.3272 -0.5628  0.1025
10156TIP3    H151959   5.706   2.380  15.905  0.3789  0.4772 -0.7500
10156TIP3    H251960   5.617   2.271  15.847 -1.6363  1.4770  0.3979
10157TIP3   OH251961   0.445   1.388  13.355  0.1517 -0.1625  0.2832
10157TIP3    H151962   0.377   1.455  13.362  0.2014 -0.1778  0.9288
10157TIP3    H251963   0.502   1.404  13.430  0.4331 -0.6261  0.1703
10158TIP3   OH251964   6.369   1.618  14.819 -1.0473  0.2551  1.5171
10158TIP3    H151965   6.299   1.626  14.754 -0.2453 -0.5754  0.5055
10158TIP3    H251966   6.343   1.542  14.872 -0.5095 -0.5893  0.5970
10159TIP3   OH251967   2.220   4.579   3.234  0.4751 -0.5325  0.0595
10159TIP3    H151968   2.187   4.666   3.211 -0.8168 -0.6585  1.3478
10159TIP3    H251969   2.307   4.596   3.271 -0.0811  0.3142  1.0299
10160TIP3   OH251970   6.297   5.255  15.117 -0.3152  0.0983 -0.6045
10160TIP3    H151971   6.321   5.308  15.041  0.6722  0.1933 -0.2398
10160TIP3    H251972   6.372   5.264  15.176 -1.5772  0.9642  0.8800
10161TIP3   OH251973   6.558   5.101   4.563  0.4130 -0.0080  0.4486
10161TIP3    H151974   6.508   5.176   4.533 -1.1095  0.0926  3.1196
10161TIP3    H251975   6.636   5.138   4.604  1.5915 -0.0833 -1.6280
10162TIP3   OH251976   5.907   4.083   5.078  0.4875 -0.0386 -0.2135
10162TIP3    H151977   5.815   4.061   5.090  1.1356 -1.5910  2.3158
10162TIP3    H251978   5.951   3.998   5.072  1.9283  0.6662  0.1457
10163TIP3   OH251979   4.038   0.651  10.591 -0.1237 -0.6722 -0.0911
10163TIP3    H151980   4.045   0.572  10.537  1.4791 -1.2153  0.8894
10163TIP3    H251981   3.978   0.626  10.662  2.6415 -1.9799  1.8522
10164TIP3   OH251982   3.449   3.567  16.974 -0.5112  0.0458  0.0957
10164TIP3    H151983   3.353   3.565  16.973 -0.5818  2.3978 -0.4820
10164TIP3    H251984   3.473   3.525  17.056 -1.9978 -1.6017 -0.2988
10165TIP3   OH251985   5.946   4.721  13.781 -0.0092  0.0876 -0.6482
10165TIP3    H151986   6.033   4.681  13.775 -0.2206 -0.3517 -0.8240
10165TIP3    H251987   5.889   4.650  13.811 -0.8227 -0.3896 -3.1598
10166TIP3   OH251988   3.628   6.128  11.376 -0.2953 -0.3387  0.5048
10166TIP3    H151989   3.540   6.093  11.365  0.1901 -0.7544 -2.8121
10166TIP3    H251990   3.685   6.052  11.363  0.5666 -0.0193  2.3388
10167TIP3   OH251991   4.651   6.304  16.245 -0.1015 -0.0633  0.4688
10167TIP3    H151992   4.593   6.295  16.169  0.1073 -0.4689  0.3551
10167TIP3    H251993   4.593   6.326  16.317 -0.4194 -0.6212  0.3856
10168TIP3   OH251994   1.201   0.270  16.874 -0.3900  0.6197 -0.5480
10168TIP3    H151995   1.251   0.305  16.801  1.0036 -0.9204 -0.3640
10168TIP3    H251996   1.233   0.180  16.885  0.3885  1.2132  2.7745
10169TIP3   OH251997   6.014   4.330  14.490  0.8646 -0.4809 -0.2986
10169TIP3    H151998   5.945   4.382  14.449  0.3920 -0.0639  1.0075
10169TIP3    H251999   6.092   4.384  14.483  0.4028  0.3586  0.9339
10170TIP3   OH252000   5.982   3.483  15.119  0.3268 -0.2565  0.0227
10170TIP3    H152001   5.898   3.495  15.074  0.9400  2.4114 -0.5183
10170TIP3    H252002   5.980   3.548  15.190  2.0707  0.0748 -0.2143
10171TIP3   OH252003   1.440   1.453   1.980  0.5360 -0.0429  0.1092
10171TIP3    H152004   1.506   1.400   1.935  0.9085  0.5133 -0.0116
10171TIP3    H252005   1.472   1.543   1.971 -1.0957  0.4099 -1.4155
10172TIP3   OH252006   1.643   0.752  16.010  0.0510 -0.1445  0.0141
10172TIP3    H152007   1.680   0.666  16.027  2.8376  1.0196  0.1003
10172TIP3    H252008   1.653   0.765  15.916  0.7051  0.5531  0.1753
10173TIP3   OH252009   3.963   5.378  10.884 -0.0355  0.2807 -0.5364
10173TIP3    H152010   3.968   5.399  10.791  0.3339 -1.1477 -0.8538
10173TIP3    H252011   3.903   5.303  10.889 -1.2936  1.3172  0.5503
10174TIP3   OH252012   6.188   1.496  17.035  0.9630 -0.3657  0.0839
10174TIP3    H152013   6.225   1.425  17.088  0.2531 -1.4061 -0.7954
10174TIP3    H252014   6.120   1.535  17.091  3.4681  1.7069  1.8040
10175TIP3   OH252015   6.345   0.459  13.943  0.4842 -0.1575 -0.6724
10175TIP3    H152016   6.424   0.443  13.891  0.1093  1.6973 -1.8679
10175TIP3    H252017   6.273   0.455  13.879 -0.3920 -1.4841  0.3401
10176TIP3   OH252018   0.985   4.755   3.769 -0.2144  0.1156  0.0419
10176TIP3    H152019   1.017   4.766   3.859 -2.9304 -1.7245  1.3034
10176TIP3    H252020   0.921   4.826   3.759  0.1438  0.3635 -0.4567
10177TIP3   OH252021   0.255   1.380   3.793  0.4277  0.8940 -0.6089
10177TIP3    H152022   0.351   1.388   3.796  0.4245  0.7948 -0.2147
10177TIP3    H252023   0.226   1.462   3.754  0.4901  2.3080  2.1888
10178TIP3   OH252024   1.202   4.485   1.909 -0.2919  0.2189 -0.4283
10178TIP3    H152025   1.259   4.408   1.912 -0.1993  0.3365  0.9447
10178TIP3    H252026   1.114   4.450   1.921 -0.2784  0.2926 -0.1111
10179TIP3   OH252027   0.858   3.514   1.024 -0.2982  0.7769 -0.0672
10179TIP3    H152028   0.807   3.510   1.105 -1.1491 -0.6771 -0.6525
10179TIP3    H252029   0.793   3.520   0.954  0.2581 -1.6606 -0.8645
10180TIP3   OH252030   0.014   0.549  12.441 -0.4130  0.7757 -0.1536
10180TIP3    H152031  -0.060   0.606  12.422 -1.9174 -1.2515 -0.5726
10180TIP3    H252032   0.021   0.491  12.365 -0.7344 -1.4413  1.4576
10181TIP3   OH252033   5.119   5.835  15.842 -0.0580 -1.0543  0.1503
10181TIP3    H152034   5.100   5.775  15.770 -0.9276 -1.1589  0.4602
10181TIP3    H252035   5.034   5.872  15.865  0.1618 -1.2752  1.3469
10182TIP3   OH252036   0.031   0.565  16.261  0.2548 -0.2699  0.2999
10182TIP3    H152037  -0.016   0.638  16.301 -0.2231  0.0587 -0.8382
10182TIP3    H252038  -0.004   0.487  16.305 -1.1916 -0.0097 -0.3463
10183TIP3   OH252039   4.470   5.982  14.657 -0.7980  0.0860 -0.1231
10183TIP3    H152040   4.413   6.029  14.717 -2.5818  0.0111 -1.7190
10183TIP3    H252041   4.553   6.030  14.661 -0.2932 -0.9273  3.6349
10184TIP3   OH252042   6.402   1.883  14.409  0.3079 -0.3078  0.6352
10184TIP3    H152043   6.371   1.947  14.345  1.9236 -0.4512 -0.3081
10184TIP3    H252044   6.332   1.817  14.412 -0.0586  0.0144 -0.5199
10185TIP3   OH252045   3.095   3.224   0.326  0.3734  0.0992 -0.2822
10185TIP3    H152046   3.062   3.223   0.236  0.6313  0.3109 -0.3806
10185TIP3    H252047   3.087   3.134   0.356  1.6606 -0.2757 -1.0285
10186TIP3   OH252048   4.476   5.974  10.608  0.1002 -0.5654 -0.4248
10186TIP3    H152049   4.477   5.907  10.539  0.7639 -0.0386 -0.9379
10186TIP3    H252050   4.383   5.983  10.631  0.0739 -2.1607  0.1627
10187TIP3   OH252051   4.364   6.158  14.887  0.3852 -0.0463  0.8106
10187TIP3    H152052   4.392   6.247  14.862 -0.8480  0.4964  1.3268
10187TIP3    H252053   4.275   6.151  14.854  0.7472 -1.3859  0.1042
10188TIP3   OH252054   0.379   5.701   2.149 -0.1407 -0.0099  0.4444
10188TIP3    H152055   0.412   5.636   2.211  0.3873 -0.4197 -0.2674
10188TIP3    H252056   0.365   5.653   2.068  0.6015  0.8210 -0.1977
10189TIP3   OH252057   1.155   2.035  17.171 -0.3060 -0.0040 -0.7945
10189TIP3    H152058   1.182   2.125  17.188  0.1131 -0.1580 -0.6327
10189TIP3    H252059   1.061   2.034  17.189  0.0473 -0.0582  1.1571
10190TIP3   OH252060   6.436   1.725   0.011  0.4549 -0.2952  0.3550
10190TIP3    H152061   6.530   1.739   0.021  0.3065  0.0106  1.3312
10190TIP3    H252062   6.409   1.677   0.089 -0.2560 -0.1014  0.2393
10191TIP3   OH252063   2.105   0.053   5.322 -0.1627  0.3773  0.1071
10191TIP3    H152064   2.171  -0.001   5.278  0.2730 -0.2698  1.5064
10191TIP3    H252065   2.071   0.110   5.254 -0.0699 -1.1323 -1.2408
10192TIP3   OH252066   5.298   6.779   2.528 -0.1883  0.8398  0.2969
10192TIP3    H152067   5.288   6.733   2.611 -2.0297  0.9755  0.1662
10192TIP3    H252068   5.260   6.720   2.463  1.2765  0.7165 -0.4723
10193TIP3   OH252069   2.883   3.450  15.429  0.3371  0.0869  0.1717
10193TIP3    H152070   2.896   3.519  15.364 -0.6959 -0.0862 -0.2426
10193TIP3    H252071   2.924   3.373  15.390 -2.0092 -0.5079 -1.2089
10194TIP3   OH252072   2.469   1.248   5.311 -0.1012 -0.0331  0.1785
10194TIP3    H152073   2.415   1.189   5.259 -0.8173  0.6630  0.1183
10194TIP3    H252074   2.406   1.307   5.353  0.5688  0.3487  0.6515
10195TIP3   OH252075   1.506   0.387   6.088 -0.2398  0.3767 -0.1214
10195TIP3    H152076   1.527   0.436   6.008 -1.8713  1.0390 -0.1549
10195TIP3    H252077   1.506   0.295   6.060 -0.9521  0.6154 -0.9081
10196TIP3   OH252078   6.647   2.588   3.770 -0.3820  0.0337  0.0341
10196TIP3    H152079   6.628   2.629   3.854  0.5862 -1.2093  0.8788
10196TIP3    H252080   6.567   2.539   3.748 -0.7671  0.6592  0.0513
10197TIP3   OH252081   3.183   0.785  14.755  0.4105 -0.8335 -0.3563
10197TIP3    H152082   3.203   0.777  14.848  1.3450  1.2220 -0.3452
10197TIP3    H252083   3.248   0.847  14.722 -1.1043 -0.0626 -1.9804
10198TIP3   OH252084   6.543   0.274   2.426 -0.0874  0.3351 -0.0554
10198TIP3    H152085   6.579   0.362   2.441 -0.2870  0.6133 -1.1826
10198TIP3    H252086   6.612   0.226   2.381 -0.1020  0.0183  0.2618
10199TIP3   OH252087   6.555   1.097  17.223 -0.0184  0.4331  0.1706
10199TIP3    H152088   6.553   1.001  17.227  1.7701  0.3854  0.7268
10199TIP3    H252089   6.523   1.125  17.308 -1.2503  0.3501 -0.2585
10200TIP3   OH252090   5.336   1.963   6.152 -0.3201 -0.6180  0.1031
10200TIP3    H152091   5.314   2.003   6.237 -0.5373 -0.5685  0.0241
10200TIP3    H252092   5.420   2.002   6.128 -0.3452 -0.4978  0.2102
10201TIP3   OH252093   1.377   0.274  12.168 -0.3945 -0.1201 -0.0697
10201TIP3    H152094   1.326   0.201  12.134 -0.7659  0.4009 -0.6512
10201TIP3    H252095   1.398   0.249  12.258  0.5415 -1.4785 -0.6481
10202TIP3   OH252096   1.746   3.447   1.278 -0.2232 -0.2486  0.2193
10202TIP3    H152097   1.834   3.474   1.253  0.2668 -2.3191 -0.4209
10202TIP3    H252098   1.692   3.524   1.264  1.6211  1.3133  1.4329
10203TIP3   OH252099   3.009   1.512   2.864 -0.6030  0.0137 -0.1132
10203TIP3    H152100   3.044   1.594   2.899 -1.0350 -0.6494  1.9007
10203TIP3    H252101   3.082   1.476   2.812  0.0123  1.0480  0.0123
10204TIP3   OH252102   5.200   0.956  16.555 -0.3843 -0.7774 -0.1960
10204TIP3    H152103   5.204   0.978  16.648 -1.0286 -1.4067 -0.0169
10204TIP3    H252104   5.285   0.984  16.520  0.3779 -1.7327  0.8467
10205TIP3   OH252105   5.093   6.795   0.043  0.6541 -0.6196 -0.0465
10205TIP3    H152106   5.134   6.721   0.087  1.4322  0.5425  1.2131
10205TIP3    H252107   5.114   6.871   0.097 -0.5897  0.4586 -1.0208
10206TIP3   OH252108   4.410   0.938  16.330  0.4563  0.2726 -0.0671
10206TIP3    H152109   4.379   0.930  16.240  2.0458  0.5940 -0.6590
10206TIP3    H252110   4.413   1.032  16.347  1.9543  0.2725 -0.3201
10207TIP3   OH252111   6.815   1.744   2.844  0.6098 -0.2150 -0.4544
10207TIP3    H152112   6.799   1.717   2.935 -1.6592  1.4732 -0.3131
10207TIP3    H252113   6.805   1.839   2.845  0.3361 -0.2095 -2.5252
10208TIP3   OH252114   3.041   4.823  16.913  0.3804  0.0751  0.3353
10208TIP3    H152115   3.021   4.752  16.852 -0.1883  0.2169  0.3485
10208TIP3    H252116   3.019   4.903  16.865  0.8283  0.2319  0.3906
10209TIP3   OH252117   1.684   5.215  16.111  0.2211  0.2074 -0.0295
10209TIP3    H152118   1.691   5.146  16.045 -1.9136  0.3633 -0.4565
10209TIP3    H252119   1.774   5.227  16.143  1.0650 -0.7755 -1.9593
10210TIP3   OH252120   4.735   5.898   5.693 -0.4881  0.1588 -0.5301
10210TIP3    H152121   4.765   5.835   5.758 -0.1126 -0.1361 -0.9837
10210TIP3    H252122   4.810   5.957   5.681 -1.0160  1.0006  0.2690
10211TIP3   OH252123   1.111   2.717   2.253 -0.4116  0.1390 -0.1317
10211TIP3    H152124   1.056   2.770   2.310  0.8735  1.6946 -0.3035
10211TIP3    H252125   1.194   2.707   2.300 -0.5724 -1.6255 -0.1616
10212TIP3   OH252126   6.698   3.429   0.708  0.8475  0.8752  0.0659
10212TIP3    H152127   6.726   3.368   0.639 -1.2697  0.9167 -0.8668
10212TIP3    H252128   6.764   3.419   0.777  2.4005  0.0107 -1.4872
10213TIP3   OH252129   1.386   3.353  13.216  0.3271  0.2930 -0.6311
10213TIP3    H152130   1.343   3.292  13.156  0.7979  1.6582 -2.4158
10213TIP3    H252131   1.326   3.361  13.290 -0.6336 -0.8349 -1.2793
10214TIP3   OH252132   1.478   1.587  16.277  0.0074  0.0684  0.2440
10214TIP3    H152133   1.569   1.557  16.270 -1.0082 -2.5940 -2.4935
10214TIP3    H252134   1.473   1.662  16.218  0.0493 -0.8041 -0.8836
10215TIP3   OH252135   0.048   3.225   1.207 -0.9497 -0.2721 -0.0800
10215TIP3    H152136   0.110   3.169   1.159 -1.7818 -1.1428 -0.1496
10215TIP3    H252137   0.097   3.305   1.224 -0.0944 -0.5966 -0.9416
10216TIP3   OH252138   5.362   1.889   0.073 -0.1308  0.0189  0.0852
10216TIP3    H152139   5.329   1.799   0.073  0.4159 -0.1924  1.1154
10216TIP3    H252140   5.293   1.941   0.032 -0.8648 -0.7274  0.3751
10217TIP3   OH252141   2.028   1.144   3.387  0.4907 -0.3813  0.4364
10217TIP3    H152142   2.081   1.221   3.368  1.2674 -0.9354  0.3476
10217TIP3    H252143   2.033   1.090   3.308  0.0927 -0.6032  0.5584
10218TIP3   OH252144   1.191   1.562   0.693  0.0861 -0.5102 -0.0291
10218TIP3    H152145   1.254   1.622   0.652  1.6627 -1.1533  1.4005
10218TIP3    H252146   1.175   1.600   0.779 -1.3185 -0.4884 -0.2891
10219TIP3   OH252147   2.292   4.175   1.465  0.5179  0.3164  0.1014
10219TIP3    H152148   2.244   4.187   1.383  0.6422 -0.8426 -0.1549
10219TIP3    H252149   2.355   4.106   1.445 -1.2160 -1.8874  1.8957
10220TIP3   OH252150   3.372   2.085  14.005  0.2299  0.3556 -0.1377
10220TIP3    H152151   3.370   2.017  13.938 -0.7583 -0.8122  1.0632
10220TIP3    H252152   3.394   2.039  14.086  0.7669  1.6524  0.4620
10221TIP3   OH252153   6.220   3.659  17.227  0.3299  0.2764  0.3205
10221TIP3    H152154   6.217   3.566  17.203  1.0488 -0.0514  1.4307
10221TIP3    H252155   6.272   3.660  17.307 -0.0475  1.6009  0.5441
10222TIP3   OH252156   1.856   1.184  12.741 -0.2522  0.0991 -0.0699
10222TIP3    H152157   1.768   1.147  12.747 -0.1776 -0.2260 -0.9527
10222TIP3    H252158   1.853   1.240  12.664  0.4249 -0.2062 -0.3153
10223TIP3   OH252159   0.077   5.709   5.690  0.0952  0.2047 -0.2705
10223TIP3    H152160   0.019   5.633   5.688  0.2899  0.0768 -2.1183
10223TIP3    H252161   0.028   5.776   5.737 -0.4274 -0.7959  0.6124
10224TIP3   OH252162   5.081   6.813  14.666  0.1882 -0.1264  0.1003
10224TIP3    H152163   5.133   6.893  14.661  0.9766 -0.6441 -0.2414
10224TIP3    H252164   5.118   6.756  14.598  1.5518 -1.8480  2.2027
10225TIP3   OH252165   2.777   0.356  16.689  0.4221  0.1590  0.0267
10225TIP3    H152166   2.866   0.319  16.691  0.4689  0.2053 -1.3304
10225TIP3    H252167   2.788   0.442  16.650 -0.4419 -0.4256 -1.5100
10226TIP3   OH252168   4.091   1.170  16.234 -0.1094  0.4879  0.2641
10226TIP3    H152169   4.128   1.177  16.322  0.9040  1.9394 -0.2561
10226TIP3    H252170   4.007   1.215  16.240 -1.6827 -2.4199  1.3355
10227TIP3   OH252171   2.823   2.999  13.974 -0.2036 -0.4458 -0.5260
10227TIP3    H152172   2.911   3.015  14.010 -0.5881  3.2918 -0.9654
10227TIP3    H252173   2.835   2.930  13.910  2.7291  0.9081 -1.5178
10228TIP3   OH252174   3.501   4.759   2.439 -0.5333  0.5675 -0.1993
10228TIP3    H152175   3.422   4.741   2.490 -0.8833  0.2347 -0.8525
10228TIP3    H252176   3.571   4.767   2.504 -0.4557 -2.5555  0.2086
10229TIP3   OH252177   1.625   6.588  12.440 -0.0375  0.4382 -0.2933
10229TIP3    H152178   1.558   6.651  12.464 -1.3261 -1.1452  0.3670
10229TIP3    H252179   1.648   6.610  12.350 -2.8089 -0.1753 -1.1843
10230TIP3   OH252180   4.063   2.107   5.418  0.2561 -0.3082 -0.5812
10230TIP3    H152181   4.059   2.185   5.362  0.4983  0.8822  1.0139
10230TIP3    H252182   4.138   2.123   5.475 -1.4682 -0.3049  1.7664
10231TIP3   OH252183   2.386   3.678  11.811 -0.0832 -0.4839 -0.3745
10231TIP3    H152184   2.419   3.721  11.732  1.8889 -2.7848 -0.8549
10231TIP3    H252185   2.321   3.616  11.779 -0.0069 -0.7025 -0.1041
10232TIP3   OH252186   6.560   3.433  11.175 -0.3256  0.1305 -0.5133
10232TIP3    H152187   6.605   3.350  11.193 -1.0502 -0.6415 -2.1157
10232TIP3    H252188   6.467   3.411  11.177 -0.5155  0.8283 -1.2976
10233TIP3   OH252189   3.820   2.539   6.183  0.1769 -0.3213  0.1885
10233TIP3    H152190   3.797   2.604   6.116  1.7812  2.0511  1.8885
10233TIP3    H252191   3.912   2.520   6.167  1.1767  1.8934  3.0199
10234TIP3   OH252192   5.267   5.972   3.343  0.3088  0.7130 -0.1988
10234TIP3    H152193   5.280   5.919   3.265 -1.7372  0.3283 -0.3001
10234TIP3    H252194   5.173   5.968   3.360  0.8080  0.1250  2.7487
10235TIP3   OH252195   4.591   5.827  12.285  0.2207 -0.5961 -0.9757
10235TIP3    H152196   4.546   5.846  12.367  0.3694 -0.6108 -0.8901
10235TIP3    H252197   4.601   5.732  12.284  2.6984 -0.3850  0.3072
10236TIP3   OH252198   1.926   5.142   3.744  0.1371  0.2139  0.5111
10236TIP3    H152199   2.001   5.136   3.802  1.6030  1.4035 -1.2164
10236TIP3    H252200   1.961   5.124   3.657 -1.7012  0.1104 -0.2427
10237TIP3   OH252201   2.368   3.186   4.594  0.0979 -0.4797  0.2683
10237TIP3    H152202   2.392   3.113   4.652  1.6844  1.1340  1.7125
10237TIP3    H252203   2.335   3.254   4.653 -1.2470  0.0234 -1.0455
10238TIP3   OH252204   3.806   3.417  16.627 -0.2503  0.2389 -0.5618
10238TIP3    H152205   3.772   3.432  16.539 -1.9239 -0.2878 -0.0294
10238TIP3    H252206   3.787   3.325  16.644 -0.8146  0.5903  0.7274
10239TIP3   OH252207   0.519   5.426   5.191 -0.2539  0.4281 -0.5341
10239TIP3    H152208   0.486   5.512   5.217 -0.6218  0.4055 -0.9165
10239TIP3    H252209   0.513   5.426   5.095  1.4637  0.6584 -0.6520
10240TIP3   OH252210   4.088   4.037  15.258 -0.1054 -0.1944 -0.0434
10240TIP3    H152211   4.002   4.078  15.253  0.6866  1.3748 -1.2708
10240TIP3    H252212   4.130   4.079  15.333  0.5174  0.9178 -0.9947
10241TIP3   OH252213   3.402   5.987   5.997 -0.6747  0.0702  0.4038
10241TIP3    H152214   3.464   5.920   6.026 -0.5267 -0.0247 -0.1189
10241TIP3    H252215   3.360   6.017   6.077 -0.1127 -0.0252  0.7392
10242TIP3   OH252216   0.115   0.837  16.520  0.3181  0.0268 -0.4970
10242TIP3    H152217   0.136   0.757  16.471 -1.6908 -0.4059 -0.7042
10242TIP3    H252218   0.114   0.906  16.455 -0.6020 -0.2481 -0.7812
10243TIP3   OH252219   4.179   0.893   4.230 -0.0566 -0.0848 -0.1314
10243TIP3    H152220   4.238   0.879   4.304 -0.0350  1.6577  0.2081
10243TIP3    H252221   4.175   0.808   4.186  1.9157 -0.4991  0.4225
10244TIP3   OH252222   6.115   0.379   1.309 -0.1124  0.2145 -0.1249
10244TIP3    H152223   6.024   0.407   1.316 -1.4106 -4.0772  1.9386
10244TIP3    H252224   6.154   0.404   1.393  0.3590  1.0848 -0.5932
10245TIP3   OH252225   1.735   0.813  14.664  0.4720 -0.2396  0.2212
10245TIP3    H152226   1.795   0.849  14.730  1.0705  1.1221 -1.0411
10245TIP3    H252227   1.787   0.752  14.614  0.9744  1.3407 -1.2172
10246TIP3   OH252228   4.178   5.754  14.333 -0.3592 -0.1188  0.2591
10246TIP3    H152229   4.225   5.826  14.375 -0.5768  0.9223 -1.2271
10246TIP3    H252230   4.110   5.797  14.281  0.7906 -1.2618 -2.2765
10247TIP3   OH252231   2.160   1.584   6.214  0.3006  0.1774  0.3300
10247TIP3    H152232   2.133   1.627   6.295 -0.1337 -1.1687  0.9197
10247TIP3    H252233   2.118   1.634   6.145 -1.2064 -0.0191  1.0733
10248TIP3   OH252234   3.336   6.471   3.106 -0.6088  0.3861 -0.2134
10248TIP3    H152235   3.290   6.468   3.190  2.3166 -1.8455  1.4012
10248TIP3    H252236   3.276   6.431   3.044 -2.0687  0.3545  1.1876
10249TIP3   OH252237   0.532   5.626  11.871  0.2567 -0.1123  0.3114
10249TIP3    H152238   0.493   5.540  11.857  0.9536 -0.5790  1.2034
10249TIP3    H252239   0.559   5.626  11.963  0.0140  1.1560  0.3881
10250TIP3   OH252240   5.510   6.518   5.702 -0.0340  0.4525  0.2444
10250TIP3    H152241   5.487   6.473   5.621  0.4546 -1.2743  1.0347
10250TIP3    H252242   5.478   6.607   5.690  0.6417  0.4121 -2.1154
10251TIP3   OH252243   1.943   2.885  14.751  0.3183 -0.0048  0.1508
10251TIP3    H152244   1.950   2.879  14.846 -2.0118  0.4249  0.3759
10251TIP3    H252245   1.969   2.974  14.730 -3.5434  1.3691  0.8905
10252TIP3   OH252246   2.510   6.002   0.313  0.8057  0.2901  0.1416
10252TIP3    H152247   2.548   6.077   0.358  0.3248  0.0969  0.8840
10252TIP3    H252248   2.575   5.932   0.323  0.1408 -0.1364  1.6944
10253TIP3   OH252249   0.612   0.307  16.630 -0.8752 -0.7734 -0.5978
10253TIP3    H152250   0.585   0.248  16.701 -2.2414 -0.6527 -1.0110
10253TIP3    H252251   0.595   0.394  16.665  0.9038 -0.5958 -0.0851
10254TIP3   OH252252   4.071   2.946   5.400 -0.0745 -0.3010  0.7026
10254TIP3    H152253   4.123   2.888   5.344  0.8232  0.3808  0.8152
10254TIP3    H252254   4.001   2.890   5.434 -0.0111 -0.9727 -0.2704
10255TIP3   OH252255   2.782   6.614   5.021 -0.1177 -0.1397 -0.1057
10255TIP3    H152256   2.735   6.535   5.048  0.5862 -0.5488 -0.0424
10255TIP3    H252257   2.869   6.582   4.997 -0.2990  0.4063 -1.5389
10256TIP3   OH252258   6.129   4.956  12.973  0.7202  0.1766  0.2304
10256TIP3    H152259   6.166   5.014  12.906 -0.3716  0.7707  0.1413
10256TIP3    H252260   6.059   4.909  12.929  1.1044 -0.6674  0.5086
10257TIP3   OH252261   3.242   0.109   1.959 -0.2600  0.1556  0.0485
10257TIP3    H152262   3.195   0.059   1.892  0.4592  0.1347 -0.4457
10257TIP3    H252263   3.211   0.199   1.947  0.7330  0.3538 -1.0864
10258TIP3   OH252264   3.682   6.386  12.500 -0.9458  0.2774 -0.1268
10258TIP3    H152265   3.742   6.422  12.434 -0.5634  1.3996  0.8161
10258TIP3    H252266   3.647   6.463  12.546 -1.2380 -0.4840  0.9499
10259TIP3   OH252267   0.300   6.204   5.386  0.1524  0.0960 -0.1202
10259TIP3    H152268   0.365   6.162   5.442 -0.5191 -0.7398  0.0552
10259TIP3    H252269   0.253   6.263   5.445  1.2005  1.2224 -0.4016
10260TIP3   OH252270   0.736   4.789  16.318  0.5636 -0.3831  0.2227
10260TIP3    H152271   0.814   4.788  16.374  0.8486 -0.6316 -0.1743
10260TIP3    H252272   0.731   4.701  16.281 -1.2240 -1.0759  2.0454
10261TIP3   OH252273   6.125   2.759  10.708 -0.4429 -0.1814  0.1453
10261TIP3    H152274   6.033   2.741  10.728 -1.1388 -0.3202 -2.9665
10261TIP3    H252275   6.124   2.846  10.667  0.8498 -0.0716  0.3133
10262TIP3   OH252276   3.997   2.630  11.809  0.0968 -0.5282 -0.4710
10262TIP3    H152277   4.015   2.720  11.778 -1.8169  1.4246  3.7778
10262TIP3    H252278   4.082   2.586  11.801  1.5979  2.2381 -0.8013
10263TIP3   OH252279   6.486   2.679  10.648 -0.1318 -0.2830  0.0381
10263TIP3    H152280   6.578   2.658  10.663 -0.4460 -1.3607  0.5627
10263TIP3    H252281   6.478   2.771  10.672  0.3947 -0.7134  2.0321
10264TIP3   OH252282   6.739   0.612  13.436  0.6735  0.1527  0.2194
10264TIP3    H152283   6.783   0.646  13.357  0.2151  1.7529  0.6277
10264TIP3    H252284   6.682   0.543  13.404 -0.2155  1.4307 -1.0029
10265TIP3   OH252285   6.525   3.819   3.092  0.0762  0.3861 -0.3865
10265TIP3    H152286   6.586   3.854   3.156  1.1044  3.7191 -3.0273
10265TIP3    H252287   6.547   3.726   3.085  1.4683  0.4810  2.3586
10266TIP3   OH252288   6.036   1.711  14.067  0.0293 -0.2497 -0.3517
10266TIP3    H152289   6.036   1.742  14.158  2.9542  1.4831 -0.8480
10266TIP3    H252290   5.960   1.753  14.027  1.1635  2.4821  0.2485
10267TIP3   OH252291   1.592   3.925  11.971  0.3442  0.3095 -0.5085
10267TIP3    H152292   1.612   3.986  11.899 -0.4712 -0.7652 -1.6599
10267TIP3    H252293   1.505   3.951  12.001  0.1095 -0.1115 -0.8225
10268TIP3   OH252294   5.632   5.238  14.736  0.0113 -0.0883  0.1280
10268TIP3    H152295   5.604   5.281  14.655  0.5083 -0.9542 -0.5085
10268TIP3    H252296   5.704   5.292  14.768 -2.3707  2.2489  1.8580
10269TIP3   OH252297   0.925   3.347  15.224  0.3821  0.5074 -0.3781
10269TIP3    H152298   1.012   3.351  15.184  0.7283  1.3081  0.4398
10269TIP3    H252299   0.920   3.426  15.279 -1.0782  0.7818 -0.8728
10270TIP3   OH252300   3.212   1.563   5.549 -0.1513 -0.0233  0.3644
10270TIP3    H152301   3.297   1.602   5.528 -0.8164  1.0275 -0.4414
10270TIP3    H252302   3.223   1.470   5.530  0.6674  0.1876 -0.2384
10271TIP3   OH252303   0.202   0.257  11.359  0.0352  0.4526 -0.1468
10271TIP3    H152304   0.175   0.347  11.341 -0.3927 -0.1819 -2.9114
10271TIP3    H252305   0.137   0.225  11.421 -0.5826  1.6294 -0.1566
10272TIP3   OH252306   0.359   5.369   4.717  0.0056 -0.2074  0.0028
10272TIP3    H152307   0.335   5.397   4.629  1.0388 -0.8045 -0.4812
10272TIP3    H252308   0.380   5.451   4.763 -1.3740  0.1736 -0.0415
10273TIP3   OH252309   0.897   2.790  15.503  0.0577 -1.1326 -0.2604
10273TIP3    H152310   0.929   2.871  15.542 -2.2900 -0.4058  0.2180
10273TIP3    H252311   0.828   2.760  15.563 -0.6552 -2.2587 -1.6198
10274TIP3   OH252312   1.742   4.312   2.495 -0.5308 -0.2614  0.0525
10274TIP3    H152313   1.713   4.238   2.549  0.7207 -2.1338 -1.7284
10274TIP3    H252314   1.683   4.311   2.419 -0.8824  0.9485  0.3026
10275TIP3   OH252315   3.578   5.863   4.719  0.1026  0.2774  0.1105
10275TIP3    H152316   3.503   5.880   4.663  0.2834  1.4482  0.2143
10275TIP3    H252317   3.653   5.895   4.668  0.4486 -0.1530  0.3430
10276TIP3   OH252318   0.295   2.312   4.900  0.0459 -0.1538  0.4618
10276TIP3    H152319   0.201   2.297   4.898 -0.0281  0.0147  1.9645
10276TIP3    H252320   0.331   2.228   4.930  0.3605 -0.1730  0.0296
10277TIP3   OH252321   5.301   4.201   0.007 -0.2963  0.1381  0.1118
10277TIP3    H152322   5.282   4.150   0.086 -1.5804 -0.4557 -0.5730
10277TIP3    H252323   5.362   4.148  -0.042 -2.6127 -1.3950 -1.2181
10278TIP3   OH252324   3.442   4.242  17.151  0.0789  0.2286  0.5791
10278TIP3    H152325   3.479   4.303  17.215  1.0826  0.4565 -0.1972
10278TIP3    H252326   3.455   4.286  17.066 -0.8608 -0.2515  0.1759
10279TIP3   OH252327   0.346   4.215   6.131 -0.1752 -0.0045 -0.2710
10279TIP3    H152328   0.321   4.174   6.214 -0.1103  0.2523 -0.1253
10279TIP3    H252329   0.376   4.302   6.155  2.3332 -0.8408 -0.2697
10280TIP3   OH252330   5.760   6.290   3.154  0.0178 -0.2820 -0.6169
10280TIP3    H152331   5.822   6.256   3.090  0.1854 -1.0983 -0.0324
10280TIP3    H252332   5.774   6.237   3.232 -2.5488 -1.5993 -0.9842
10281TIP3   OH252333   1.010   4.528  12.677  0.0347  0.8123 -0.0851
10281TIP3    H152334   1.014   4.560  12.767 -0.0999  1.1309 -0.1925
10281TIP3    H252335   1.086   4.568  12.634 -0.2548  1.1543 -0.2741
10282TIP3   OH252336   6.128   4.030   3.618  0.0744  0.0966 -0.2123
10282TIP3    H152337   6.042   3.990   3.632 -0.1474  0.9244  0.8222
10282TIP3    H252338   6.184   3.957   3.592 -0.2681 -0.9382  1.8954
10283TIP3   OH252339   4.274   4.146   4.989  0.4144 -0.3546  0.0466
10283TIP3    H152340   4.278   4.230   4.942 -2.0125  0.4409  1.2293
10283TIP3    H252341   4.344   4.153   5.054 -0.6212  1.3309  1.0270
10284TIP3   OH252342   2.778   0.659  15.789 -0.0130 -0.3739 -0.1978
10284TIP3    H152343   2.848   0.681  15.728 -2.1336  2.6349 -1.7211
10284TIP3    H252344   2.811   0.684  15.875  1.1442  0.1742 -0.7935
10285TIP3   OH252345   4.837   3.696   3.526  0.2046 -0.2529 -0.1191
10285TIP3    H152346   4.871   3.608   3.542  0.2244 -0.2712 -0.2642
10285TIP3    H252347   4.815   3.697   3.433  0.3239 -0.0621 -0.1444
10286TIP3   OH252348   5.205   1.063  16.143 -0.3258 -0.0390  0.0008
10286TIP3    H152349   5.201   1.086  16.050  1.9113  0.9278  0.1064
10286TIP3    H252350   5.118   1.029  16.163 -0.5582 -1.1457 -2.6579
10287TIP3   OH252351   0.420   3.103   1.349 -0.1963  0.4008 -0.9033
10287TIP3    H152352   0.452   3.193   1.352  0.2754  0.2272 -0.7410
10287TIP3    H252353   0.332   3.108   1.387  1.2059  0.1926  2.5563
10288TIP3   OH252354   3.066   6.247   1.242  0.0416  0.2090 -0.3090
10288TIP3    H152355   3.079   6.179   1.309 -0.5840  0.4558  0.0653
10288TIP3    H252356   3.103   6.209   1.162 -1.2772 -1.0154 -0.3531
10289TIP3   OH252357   6.004   2.073   2.726  0.3106  0.5919  0.1712
10289TIP3    H152358   5.985   1.989   2.685  0.2704  0.9056 -0.4737
10289TIP3    H252359   6.090   2.098   2.691 -0.6101  1.8056 -1.3169
10290TIP3   OH252360   3.430   4.385  13.351  0.0154 -0.8405 -0.1448
10290TIP3    H152361   3.436   4.435  13.433 -0.5450 -0.2739 -0.4426
10290TIP3    H252362   3.455   4.448  13.283 -0.9759 -0.8783 -0.5505
10291TIP3   OH252363   0.645   3.449   4.317 -0.3991 -0.0022 -0.5088
10291TIP3    H152364   0.623   3.358   4.297  1.2626 -0.2223 -1.4620
10291TIP3    H252365   0.692   3.445   4.400 -2.1923  0.2368  0.5228
10292TIP3   OH252366   0.308   6.600   4.477 -0.2193  0.6476 -0.1750
10292TIP3    H152367   0.346   6.596   4.565  2.3727 -0.4275 -1.2829
10292TIP3    H252368   0.226   6.648   4.488 -0.3608 -0.2130  2.9674
10293TIP3   OH252369   2.272   6.607   0.674 -0.1512  0.0825 -0.0613
10293TIP3    H152370   2.253   6.557   0.754 -0.0504  0.1449  0.0008
10293TIP3    H252371   2.280   6.540   0.606 -2.6803  0.1676 -0.5056
10294TIP3   OH252372   3.798   3.001  15.281  0.4700  0.1891 -0.1540
10294TIP3    H152373   3.758   2.928  15.328  0.2324 -0.2388 -1.0178
10294TIP3    H252374   3.832   3.058  15.350  2.6564 -1.8195  0.4774
10295TIP3   OH252375   1.287   1.739  13.484 -0.2632  0.2136 -0.2211
10295TIP3    H152376   1.272   1.830  13.458  1.0966  0.8787  1.1883
10295TIP3    H252377   1.380   1.737  13.509 -0.6389 -1.2341  1.1023
10296TIP3   OH252378   0.917   5.816  15.734 -0.2168 -0.0309 -0.5700
10296TIP3    H152379   0.894   5.904  15.705 -0.0808  0.3726  0.5256
10296TIP3    H252380   0.993   5.829  15.791 -1.5485 -0.5964  1.3944
10297TIP3   OH252381   3.021   4.083  13.729 -0.0557  0.0280 -0.4748
10297TIP3    H152382   2.994   4.044  13.812  0.6853  1.2033  0.3453
10297TIP3    H252383   3.109   4.116  13.747 -0.4392  1.5216 -1.3134
10298TIP3   OH252384   6.810   3.876  14.958  0.2761  0.1394  0.0677
10298TIP3    H152385   6.841   3.788  14.934 -0.3038  0.1248 -0.6799
10298TIP3    H252386   6.819   3.927  14.877  0.3206  0.6868  0.4166
10299TIP3   OH252387   0.521   1.136   4.855  0.3280 -0.4676  0.4051
10299TIP3    H152388   0.552   1.218   4.893  0.9167 -1.1481  1.3938
10299TIP3    H252389   0.564   1.132   4.769  0.9163 -0.1451  0.6878
10300TIP3   OH252390   1.374   5.477   0.091  0.4818 -0.7490  0.3744
10300TIP3    H152391   1.464   5.467   0.122  1.0832 -0.0358 -1.0708
10300TIP3    H252392   1.373   5.434   0.006 -0.4971 -0.5775  0.2910
10301TIP3   OH252393   0.068   1.154  15.623  0.6593  0.2737 -0.1860
10301TIP3    H152394   0.148   1.112  15.593  0.2124 -0.1962 -0.7470
10301TIP3    H252395   0.082   1.171  15.716  1.4332  0.2677 -0.3002
10302TIP3   OH252396   4.206   4.560  16.794  0.1059  0.0098  0.1891
10302TIP3    H152397   4.284   4.513  16.765 -1.1016 -0.3978 -2.5064
10302TIP3    H252398   4.138   4.493  16.799 -0.2646  0.4911  1.8563
10303TIP3   OH252399   0.793   2.985  17.180 -0.3475  0.1772 -0.4050
10303TIP3    H152400   0.762   2.923  17.246  1.0334 -1.5441 -1.3568
10303TIP3    H252401   0.792   3.070  17.225 -0.9155 -0.7262  1.3355
10304TIP3   OH252402   6.203   2.967  14.516  0.2809 -0.2457  0.8649
10304TIP3    H152403   6.238   3.049  14.551 -1.1287  0.7144  0.0701
10304TIP3    H252404   6.157   2.927  14.590 -3.4050  2.1862 -0.0036
10305TIP3   OH252405   3.833   5.060   1.343  0.1349  0.1225 -0.2286
10305TIP3    H152406   3.784   4.983   1.373 -1.5397  1.8041  1.4434
10305TIP3    H252407   3.839   5.049   1.248 -0.9081 -1.6006 -0.1128
10306TIP3   OH252408   3.604   0.152  14.847 -0.0847 -0.0899  0.5808
10306TIP3    H152409   3.641   0.125  14.931  0.8171 -0.7162 -0.0117
10306TIP3    H252410   3.649   0.098  14.782 -1.0876  0.0760 -0.2734
10307TIP3   OH252411   5.977   4.599  11.656  0.3421 -0.2723 -0.5965
10307TIP3    H152412   6.056   4.547  11.670  0.9558  0.1284 -2.4320
10307TIP3    H252413   6.009   4.686  11.631 -0.6463 -0.5230 -2.8458
10308TIP3   OH252414   0.797   6.771  13.059  0.0691  0.5449  0.2207
10308TIP3    H152415   0.703   6.789  13.050 -0.2458 -0.8809  0.5080
10308TIP3    H252416   0.825   6.826  13.132 -0.4389  1.3496 -0.1886
10309TIP3   OH252417   6.143   6.201  17.081 -0.3538 -0.2079 -0.1363
10309TIP3    H152418   6.049   6.196  17.059 -0.3716  0.9466 -0.3611
10309TIP3    H252419   6.149   6.163  17.168 -1.1389  0.3095  0.1531
10310TIP3   OH252420   1.824   5.011   5.540 -0.1387 -0.4206  0.2122
10310TIP3    H152421   1.900   4.996   5.483 -1.1960 -1.3196 -0.9704
10310TIP3    H252422   1.814   4.929   5.588 -1.5302 -1.0051 -1.0389
10311TIP3   OH252423   2.312   4.111   1.013 -0.2520  0.3670  0.2492
10311TIP3    H152424   2.377   4.041   1.006  1.1389  1.6262  0.3885
10311TIP3    H252425   2.258   4.103   0.934 -0.1058 -0.8511  0.2700
10312TIP3   OH252426   4.781   1.941  16.055 -0.2269 -0.0254  0.2140
10312TIP3    H152427   4.825   1.940  16.140  1.8472  0.0981 -0.8167
10312TIP3    H252428   4.691   1.966  16.075  0.7793  2.2469  2.1281
10313TIP3   OH252429   4.345   4.947   2.186 -0.5453 -0.0011  0.1220
10313TIP3    H152430   4.390   4.864   2.166  0.7226  0.8411 -0.5956
10313TIP3    H252431   4.324   4.984   2.100 -0.9526  0.5096  0.4419
10314TIP3   OH252432   4.130   1.204  13.383  0.3789 -0.1398  0.6840
10314TIP3    H152433   4.186   1.152  13.440 -0.4851  0.9127  2.5306
10314TIP3    H252434   4.190   1.261  13.335  0.9563  0.2676  1.8912
10315TIP3   OH252435   2.821   4.613  15.829  0.1186  0.2826 -0.0630
10315TIP3    H152436   2.904   4.567  15.818  0.1315  0.4315 -0.6144
10315TIP3    H252437   2.806   4.656  15.744 -1.5500 -1.4405 -0.6864
10316TIP3   OH252438   4.950   1.073  15.061  0.8364 -0.1972  0.2396
10316TIP3    H152439   5.042   1.102  15.066  0.8534 -0.5271  1.8033
10316TIP3    H252440   4.911   1.103  15.143 -0.4381 -0.1572 -0.3762
10317TIP3   OH252441   1.241   3.044   5.389 -0.0845  0.5708  0.5033
10317TIP3    H152442   1.252   2.949   5.393  2.9321  0.9032  1.6814
10317TIP3    H252443   1.187   3.059   5.311  1.9009 -1.9451 -1.4538
10318TIP3   OH252444   4.614   2.782   5.549  0.0892  0.5979 -0.2861
10318TIP3    H152445   4.593   2.758   5.640 -0.1811 -1.7818 -0.9492
10318TIP3    H252446   4.694   2.734   5.530  0.3578  1.3971 -1.2102
10319TIP3   OH252447   6.168   5.200  11.799 -0.3232 -0.0359 -0.2213
10319TIP3    H152448   6.170   5.286  11.841  0.3879  0.1112 -0.5433
10319TIP3    H252449   6.259   5.183  11.775 -0.3503 -1.1989  0.4742
10320TIP3   OH252450   6.191   2.678  15.470 -0.4653 -0.1061 -0.3108
10320TIP3    H152451   6.284   2.681  15.451 -0.0460  0.6692  1.7352
10320TIP3    H252452   6.181   2.605  15.531 -0.8485  1.1350  1.1471
10321TIP3   OH252453   1.585   0.946   3.308  0.9528  0.6174 -0.7113
10321TIP3    H152454   1.587   0.862   3.263  1.8416  1.1014 -1.5946
10321TIP3    H252455   1.503   0.986   3.280 -0.4788 -0.7993  1.3120
10322TIP3   OH252456   1.679   0.294  15.926  0.3893 -0.2920 -0.6331
10322TIP3    H152457   1.707   0.234  15.857  0.8289 -2.0959  1.0645
10322TIP3    H252458   1.620   0.242  15.981 -0.2150  1.2007  0.1632
10323TIP3   OH252459   2.461   3.029   2.291 -0.3694 -0.6542 -0.1351
10323TIP3    H152460   2.425   3.071   2.213  2.1319 -0.4657 -1.2255
10323TIP3    H252461   2.417   3.072   2.364 -0.8865  0.9551 -1.3690
10324TIP3   OH252462   0.134   6.322  15.295  0.1633 -0.4908 -0.2081
10324TIP3    H152463   0.106   6.284  15.212 -0.5608 -0.3501 -0.0312
10324TIP3    H252464   0.106   6.258  15.361  1.8398 -1.2054 -0.1582
10325TIP3   OH252465   4.270   1.539   1.236 -0.0445 -0.0109  0.2060
10325TIP3    H152466   4.320   1.597   1.179  0.9481 -0.5078  0.5358
10325TIP3    H252467   4.238   1.470   1.178  3.8998 -2.4392  0.7107
10326TIP3   OH252468   4.123   3.332   5.777  0.1126  0.1378  0.2305
10326TIP3    H152469   4.073   3.393   5.723  0.2309 -0.0031 -0.0356
10326TIP3    H252470   4.170   3.276   5.715 -2.3914 -2.2687  0.4087
10327TIP3   OH252471   4.375   0.974  14.309  0.3352  0.2122  0.2620
10327TIP3    H152472   4.326   0.989  14.228  1.7852  4.8509  0.0871
10327TIP3    H252473   4.317   1.005  14.379  0.8294  0.5334  0.5402
10328TIP3   OH252474   1.487   5.329  11.413 -0.5375  0.0004  0.1988
10328TIP3    H152475   1.518   5.320  11.503 -1.2442  4.0302  0.9631
10328TIP3    H252476   1.567   5.324  11.360  0.2466  0.2988  1.3110
10329TIP3   OH252477   0.253   1.244   4.727  0.0242  0.0145 -0.0449
10329TIP3    H152478   0.295   1.289   4.654  0.0054  1.8483  1.0490
10329TIP3    H252479   0.325   1.204   4.775  0.0155 -1.4365 -1.1771
10330TIP3   OH252480   6.122   5.075  10.300  0.4221 -0.6176  0.1502
10330TIP3    H152481   6.124   5.126  10.381 -1.9724 -0.1437 -0.0438
10330TIP3    H252482   6.043   5.021  10.308  0.1259 -0.5271 -1.8766
10331TIP3   OH252483   2.989   3.635  12.835 -0.7248 -0.0834 -0.2724
10331TIP3    H152484   3.014   3.700  12.770 -0.2169 -0.1553 -0.1536
10331TIP3    H252485   2.936   3.571  12.787 -1.7724  0.7689 -0.2466
10332TIP3   OH252486   4.235   4.557  16.006 -0.3095 -0.4804  0.0421
10332TIP3    H152487   4.214   4.483  15.949 -0.2618 -1.3025  1.0789
10332TIP3    H252488   4.152   4.578  16.050 -0.2375 -0.1552  0.0265
10333TIP3   OH252489   3.159   3.495   2.573  0.0313 -0.3198  0.1948
10333TIP3    H152490   3.123   3.568   2.523  0.0885  0.7971  1.7348
10333TIP3    H252491   3.242   3.528   2.607 -0.8782 -0.3297  2.5939
10334TIP3   OH252492   2.736   6.169   0.662 -0.7696 -0.8086  0.1381
10334TIP3    H152493   2.709   6.165   0.570  0.3353 -0.9351 -0.1930
10334TIP3    H252494   2.769   6.081   0.680  1.9820  0.0988 -0.2938
10335TIP3   OH252495   1.437   5.284  13.623  0.2676  0.5681  0.0855
10335TIP3    H152496   1.436   5.254  13.533  0.6674  1.1815 -0.1287
10335TIP3    H252497   1.521   5.331  13.632  0.0150  0.9304  0.6293
10336TIP3   OH252498   2.485   1.450  11.431  0.3640  0.1925  0.0214
10336TIP3    H152499   2.530   1.465  11.348 -0.1979 -0.6376 -0.4399
10336TIP3    H252500   2.545   1.395  11.481  0.6406  0.5759  0.1155
10337TIP3   OH252501   0.983   0.818  12.616  0.4833  0.1959 -0.0646
10337TIP3    H152502   0.958   0.738  12.662  1.2741  0.7627  1.3821
10337TIP3    H252503   1.047   0.789  12.551 -1.4331 -0.7699 -1.5756
10338TIP3   OH252504   4.818   5.862   4.275 -0.3918 -0.1928  0.0270
10338TIP3    H152505   4.829   5.950   4.311 -0.1283  0.0313 -0.5947
10338TIP3    H252506   4.735   5.831   4.312  0.6807 -0.6243  2.1452
10339TIP3   OH252507   4.723   4.205  10.675  0.0804 -0.3575 -0.7652
10339TIP3    H152508   4.734   4.127  10.620  0.6807  0.0761 -1.2666
10339TIP3    H252509   4.806   4.253  10.666  0.6578 -0.8566  1.4422
10340TIP3   OH252510   3.481   4.241   3.491 -0.3239  0.2195 -0.0065
10340TIP3    H152511   3.546   4.242   3.562  0.2418 -0.4934 -0.4993
10340TIP3    H252512   3.411   4.298   3.522  1.6322  2.9911 -0.5179
10341TIP3   OH252513   2.067   2.104  11.102 -0.0647  0.2821  0.1166
10341TIP3    H152514   2.101   2.125  11.189  1.3770  2.0103 -0.8218
10341TIP3    H252515   2.111   2.167  11.043 -4.3867  2.2350 -1.2516
10342TIP3   OH252516   0.167   2.601  14.193 -0.0164 -0.2993 -0.0538
10342TIP3    H152517   0.187   2.508  14.203  0.3399 -0.1636  0.5403
10342TIP3    H252518   0.241   2.636  14.144 -0.7194 -0.5475 -1.3222
10343TIP3   OH252519   0.967   6.671  14.736  0.0246  0.0259 -0.3530
10343TIP3    H152520   0.912   6.610  14.785 -0.1572  1.1657  0.8828
10343TIP3    H252521   0.992   6.622  14.657  0.4011 -1.8801  0.8936
10344TIP3   OH252522   3.166   5.078   2.361  0.5121  0.0003  0.1313
10344TIP3    H152523   3.139   5.114   2.276  0.9902  1.2132  0.4797
10344TIP3    H252524   3.086   5.073   2.412  0.5030  1.0571  0.2401
10345TIP3   OH252525   5.907   3.144  13.519  0.1117  0.0299  0.4101
10345TIP3    H152526   5.907   3.071  13.581  1.2176  0.2916  0.7379
10345TIP3    H252527   5.832   3.128  13.463  0.3596 -1.3849  0.4573
10346TIP3   OH252528   5.686   6.808   0.347 -0.1096 -0.6121  0.0021
10346TIP3    H152529   5.736   6.750   0.289  0.8260  0.4859 -0.3048
10346TIP3    H252530   5.747   6.879   0.368 -0.1648 -1.3768  2.9737
10347TIP3   OH252531   0.246   1.678   4.155  0.1201  0.2851  0.1158
10347TIP3    H152532   0.201   1.621   4.092  0.0738  0.5214 -0.0685
10347TIP3    H252533   0.224   1.767   4.126 -1.5710  0.4132  1.6472
10348TIP3   OH252534   3.608   3.676   4.165  0.5776  0.0449  0.4118
10348TIP3    H152535   3.535   3.620   4.192 -0.7157  2.2599  1.6180
10348TIP3    H252536   3.631   3.645   4.077 -0.9532 -1.5355  0.5579
10349TIP3   OH252537   5.065   2.221  15.489  0.0075  0.1564 -0.0681
10349TIP3    H152538   5.100   2.308  15.469 -0.5724  0.2176 -0.8801
10349TIP3    H252539   5.120   2.160  15.440 -1.3439  0.2965 -1.8073
10350TIP3   OH252540   0.187   0.122  12.326  0.7033  0.0606 -0.6034
10350TIP3    H152541   0.173   0.189  12.259 -0.7838 -1.7300 -2.1593
10350TIP3    H252542   0.136   0.153  12.402  2.2219  1.9892 -0.3577
10351TIP3   OH252543   0.564   6.406   5.552  0.4012 -0.1439  0.4271
10351TIP3    H152544   0.543   6.318   5.522  1.5819  0.2516 -1.5813
10351TIP3    H252545   0.490   6.429   5.608 -1.2595 -1.3536 -1.1926
10352TIP3   OH252546   4.466   0.528  16.341 -0.3143 -0.3346  0.2709
10352TIP3    H152547   4.526   0.529  16.266  3.1622 -1.7798  2.8925
10352TIP3    H252548   4.497   0.598  16.398 -0.8210 -1.3825  1.8720
10353TIP3   OH252549   3.113   1.582   1.336 -0.0069  0.2122  0.2767
10353TIP3    H152550   3.057   1.529   1.392 -0.5198 -0.1927 -0.6045
10353TIP3    H252551   3.182   1.614   1.394 -1.9647  1.9718  1.6876
10354TIP3   OH252552   2.735   0.011  13.804 -0.0462 -0.1550  0.3912
10354TIP3    H152553   2.652  -0.016  13.844 -0.1224 -0.0367  0.3119
10354TIP3    H252554   2.792  -0.066  13.812 -0.2971 -0.3757  0.0788
10355TIP3   OH252555   6.734   0.979   4.259 -0.3978  0.0976  0.1511
10355TIP3    H152556   6.789   0.925   4.202 -0.5932  1.9981 -1.9402
10355TIP3    H252557   6.783   0.984   4.341  0.2889 -2.0631 -0.1034
10356TIP3   OH252558   6.507   2.600   0.638  0.3212 -0.5561 -0.1092
10356TIP3    H152559   6.460   2.668   0.589  0.5466 -0.1492  0.2429
10356TIP3    H252560   6.593   2.596   0.597  0.3102 -0.6334 -0.1266
10357TIP3   OH252561   4.227   6.025   3.209 -0.2726  0.3797 -0.1085
10357TIP3    H152562   4.297   5.960   3.210 -2.8670 -2.6097 -2.0446
10357TIP3    H252563   4.230   6.062   3.121 -1.1337  0.1436 -0.2487
10358TIP3   OH252564   5.441   0.210  17.241 -0.1080 -0.3841  0.0747
10358TIP3    H152565   5.367   0.190  17.298 -0.8541  1.1126 -0.3607
10358TIP3    H252566   5.516   0.214  17.300 -0.4064 -1.6058  0.5572
10359TIP3   OH252567   3.228   3.659   1.049  0.0602  0.2857 -0.1845
10359TIP3    H152568   3.222   3.748   1.014  0.0369 -0.4158 -2.0077
10359TIP3    H252569   3.320   3.636   1.043  0.1420  0.3435  0.7253
10360TIP3   OH252570   1.542   5.125  16.349 -0.5093  0.4344  0.7293
10360TIP3    H152571   1.583   5.135  16.263  1.0368  0.2971  1.4522
10360TIP3    H252572   1.510   5.213  16.371 -0.1836  0.6357  0.3909
10361TIP3   OH252573   2.885   6.171   4.413  0.2091 -0.7220  0.4207
10361TIP3    H152574   2.816   6.122   4.458 -0.1469 -0.3549  0.2726
10361TIP3    H252575   2.839   6.223   4.348  0.7252 -1.2107 -0.3348
10362TIP3   OH252576   0.208   5.166   5.611 -0.3952 -0.5470  0.6193
10362TIP3    H152577   0.261   5.096   5.573  0.5979  0.8748 -0.6650
10362TIP3    H252578   0.134   5.175   5.551  0.8948  1.3307 -0.7566
10363TIP3   OH252579   3.103   3.344  13.851  0.0873 -0.2449 -0.2209
10363TIP3    H152580   3.149   3.345  13.936 -0.4480 -1.1801  0.0903
10363TIP3    H252581   3.036   3.412  13.859  0.6348  0.2990 -0.2346
10364TIP3   OH252582   5.293   4.443   6.306 -0.2072  0.0056 -0.2401
10364TIP3    H152583   5.222   4.498   6.274 -0.4936  1.1023  2.1937
10364TIP3    H252584   5.368   4.501   6.313  0.6170 -0.8697 -1.5998
10365TIP3   OH252585   5.615   2.418  12.739 -0.2385  0.1769  0.0824
10365TIP3    H152586   5.620   2.368  12.657  3.4420 -1.8581  1.4352
10365TIP3    H252587   5.585   2.355  12.804 -0.0381  0.9349  0.9140
10366TIP3   OH252588   6.547   4.473  16.698  0.6223 -0.1035  0.1563
10366TIP3    H152589   6.529   4.557  16.740 -1.6283  0.3639 -1.6562
10366TIP3    H252590   6.560   4.412  16.771 -1.1594  1.1017  1.5085
10367TIP3   OH252591   6.454   1.791   1.887 -0.3143 -0.3560 -0.3849
10367TIP3    H152592   6.473   1.876   1.927  0.2290 -1.6485  2.2071
10367TIP3    H252593   6.540   1.751   1.873 -0.6567 -1.5207  0.7737
10368TIP3   OH252594   6.236   2.004   1.606 -0.0671  0.0720 -1.0432
10368TIP3    H152595   6.145   1.996   1.634  0.2125  1.1125  0.2236
10368TIP3    H252596   6.275   1.919   1.626 -0.0967  0.5004  0.9573
10369TIP3   OH252597   2.210   2.744  14.760 -0.2717 -0.1821 -0.5441
10369TIP3    H152598   2.187   2.656  14.729 -1.0935 -0.1057 -0.1581
10369TIP3    H252599   2.150   2.802  14.714  1.1107  0.3134 -1.7608
10370TIP3   OH252600   0.301   6.319  12.366  0.3317  0.0169  0.6169
10370TIP3    H152601   0.344   6.241  12.402  0.3526  0.2752  1.1556
10370TIP3    H252602   0.358   6.392  12.393 -0.5234  0.3817  1.4790
10371TIP3   OH252603   0.610   5.811   0.396 -0.0691 -0.0137  0.4380
10371TIP3    H152604   0.525   5.822   0.438 -0.1426 -0.1465  0.3234
10371TIP3    H252605   0.620   5.887   0.340  0.1523  0.3110  0.9073
10372TIP3   OH252606   6.212   0.818  11.882  0.1329  0.0556  0.1070
10372TIP3    H152607   6.134   0.788  11.836 -0.5459  1.5368  0.2457
10372TIP3    H252608   6.285   0.793  11.826 -0.5591  0.1484 -0.8451
10373TIP3   OH252609   6.702   1.983   3.549 -0.2031 -0.2859 -0.4481
10373TIP3    H152610   6.755   2.037   3.608 -0.3563 -1.2574  0.6000
10373TIP3    H252611   6.617   2.029   3.544 -0.1414 -0.1282 -0.0327
10374TIP3   OH252612   2.066   2.907   1.883  0.4196 -0.3013  0.1253
10374TIP3    H152613   2.021   2.839   1.833 -2.7601  1.7995 -0.0238
10374TIP3    H252614   2.076   2.980   1.821  5.1943 -1.0635 -0.1885
10375TIP3   OH252615   0.975   6.537  13.670  0.1950 -0.0873  0.0349
10375TIP3    H152616   1.035   6.462  13.665  0.5204  0.1416  0.5006
10375TIP3    H252617   1.033   6.613  13.679 -0.1441  0.1933 -0.1495
10376TIP3   OH252618   2.859   0.415  15.710  0.1686 -0.2904  0.0028
10376TIP3    H152619   2.849   0.449  15.622 -0.5821 -0.6466 -0.0520
10376TIP3    H252620   2.823   0.483  15.767  1.1132  0.1593  0.0752
10377TIP3   OH252621   4.933   5.161   0.463 -0.1315  0.1710 -0.1850
10377TIP3    H152622   4.918   5.240   0.410  1.1698 -0.2955 -1.2730
10377TIP3    H252623   5.013   5.123   0.426 -0.5097 -1.4216  0.6291
10378TIP3   OH252624   1.778   5.690   4.178  0.4462 -0.4672  0.0701
10378TIP3    H152625   1.720   5.765   4.171 -3.0307 -2.8231  2.1830
10378TIP3    H252626   1.805   5.688   4.270 -0.5464 -2.5066  0.3480
10379TIP3   OH252627   2.434   4.352   1.983  0.5053 -0.0764 -0.2421
10379TIP3    H152628   2.366   4.417   1.968  1.3155  1.1053  1.0272
10379TIP3    H252629   2.389   4.268   1.977 -1.1307  0.6930  0.8256
10380TIP3   OH252630   3.054   4.561  16.725  0.1778  0.3946  0.7407
10380TIP3    H152631   3.085   4.621  16.657 -0.7223  1.9599  1.6982
10380TIP3    H252632   2.967   4.534  16.695  0.6339 -0.5633  0.2452
10381TIP3   OH252633   2.362   3.613   2.469  0.4472 -0.2285 -0.5535
10381TIP3    H152634   2.307   3.655   2.402 -0.3573 -2.2785 -1.2057
10381TIP3    H252635   2.368   3.678   2.539 -1.2382  0.7782 -1.3073
10382TIP3   OH252636   1.033   3.891  16.257 -0.3373 -0.3539  0.3761
10382TIP3    H152637   1.020   3.894  16.352  0.2098 -0.4059  0.4556
10382TIP3    H252638   1.127   3.875  16.247 -0.6483 -1.9663 -0.1439
10383TIP3   OH252639   2.531   0.757   6.261 -0.1170  0.1260 -0.1785
10383TIP3    H152640   2.557   0.740   6.170 -1.3664  0.2482 -0.5690
10383TIP3    H252641   2.614   0.769   6.308  0.5769 -0.8068 -1.1262
10384TIP3   OH252642   3.915   1.089  15.060  0.0454  0.1332  0.6590
10384TIP3    H152643   3.925   1.126  15.148 -1.7304  1.3394  0.3740
10384TIP3    H252644   3.829   1.118  15.031  1.2280  1.0983 -2.1294
10385TIP3   OH252645   5.862   5.468   4.252  0.0534 -0.0799 -0.2230
10385TIP3    H152646   5.839   5.441   4.163  1.7421  0.2658 -0.7721
10385TIP3    H252647   5.842   5.562   4.254  2.1790  0.4213 -0.9873
10386TIP3   OH252648   6.442   6.594  11.151 -0.4152  0.1695 -0.1413
10386TIP3    H152649   6.401   6.641  11.079  0.2917 -0.7663 -1.1760
10386TIP3    H252650   6.531   6.629  11.154 -0.6987  0.8124  0.8321
10387TIP3   OH252651   0.801   4.142  17.197  0.0134 -0.3770  0.2956
10387TIP3    H152652   0.776   4.060  17.238 -1.2708 -0.1407  0.0089
10387TIP3    H252653   0.841   4.116  17.114 -0.2590 -0.7145  0.2717
10388TIP3   OH252654   0.864   2.189  14.511  0.3545  0.0237 -0.4758
10388TIP3    H152655   0.841   2.279  14.534 -0.4031 -0.2509 -0.1257
10388TIP3    H252656   0.938   2.166  14.568  0.9422  0.6280 -0.9951
10389TIP3   OH252657   6.625   2.738   5.415  0.2644  1.0094  0.2379
10389TIP3    H152658   6.565   2.786   5.472 -0.3414  0.3923  0.1140
10389TIP3    H252659   6.673   2.681   5.474 -1.1844 -0.4877 -0.0113
10390TIP3   OH252660   0.742   1.108  15.396 -0.2743 -0.1150  0.3041
10390TIP3    H152661   0.694   1.158  15.331 -1.0577 -0.3759  0.6733
10390TIP3    H252662   0.826   1.088  15.355 -0.5036  0.2946 -0.3634
10391TIP3   OH252663   4.886   5.346   2.037  0.1940 -0.4642  0.3338
10391TIP3    H152664   4.905   5.407   2.108 -0.3388 -0.3442  0.3748
10391TIP3    H252665   4.943   5.373   1.966 -1.4448  1.3309 -0.3401
10392TIP3   OH252666   5.701   2.323   4.761  0.2239 -0.4571 -0.2401
10392TIP3    H152667   5.634   2.279   4.814  0.1748 -0.4846 -0.3240
10392TIP3    H252668   5.758   2.366   4.825  1.5532 -2.4480 -0.0495
10393TIP3   OH252669   3.551   2.533   5.988  0.8448  0.3922  0.2405
10393TIP3    H152670   3.627   2.580   5.954 -0.3828  1.5014 -1.0112
10393TIP3    H252671   3.545   2.455   5.933 -0.0447  1.2629 -0.9145
10394TIP3   OH252672   4.715   4.366   4.153 -0.0987 -0.4561  0.2371
10394TIP3    H152673   4.652   4.397   4.218  0.9643  1.7710  0.2552
10394TIP3    H252674   4.695   4.417   4.074  2.0619  0.7499  0.4350
10395TIP3   OH252675   0.853   3.267   3.786 -0.0166  0.6477  0.6252
10395TIP3    H152676   0.762   3.291   3.772  0.0602  0.1120 -0.8651
10395TIP3    H252677   0.869   3.193   3.727  2.2877  2.9129 -1.7567
10396TIP3   OH252678   5.244   4.823  12.726 -0.0346  0.3446  0.0305
10396TIP3    H152679   5.324   4.866  12.757  0.0328 -0.7218  1.3860
10396TIP3    H252680   5.183   4.829  12.800 -1.3662  1.5048 -1.1311
10397TIP3   OH252681   0.518   0.884   3.746  0.3250 -0.2845 -0.4115
10397TIP3    H152682   0.586   0.869   3.680  0.3447 -0.2978 -0.3878
10397TIP3    H252683   0.523   0.807   3.803  2.0491  0.9704  1.1549
10398TIP3   OH252684   1.637   4.976   4.625 -0.7950  0.2349  0.1790
10398TIP3    H152685   1.686   5.057   4.638  1.1407 -0.5315 -2.1659
10398TIP3    H252686   1.704   4.908   4.616 -2.3697 -1.4579  0.8226
10399TIP3   OH252687   6.620   6.753  15.300 -0.8897  0.0203  0.4846
10399TIP3    H152688   6.633   6.825  15.239 -1.3093 -0.5794 -0.3182
10399TIP3    H252689   6.709   6.720  15.317 -0.9987 -1.6913 -2.1070
10400TIP3   OH252690   1.354   2.471   4.908 -0.2193  0.0457  0.2760
10400TIP3    H152691   1.381   2.446   4.996 -0.5433  2.5300  1.1339
10400TIP3    H252692   1.265   2.504   4.919 -0.4093  0.0000 -1.0588
10401TIP3   OH252693   0.229   0.387   1.356  0.0648  0.4764 -0.3253
10401TIP3    H152694   0.213   0.443   1.280  0.2450  1.1208  0.1111
10401TIP3    H252695   0.301   0.428   1.402 -0.4811  0.4633  0.5633
10402TIP3   OH252696   1.353   5.481   1.670 -0.5232  0.2950 -0.1552
10402TIP3    H152697   1.393   5.462   1.755  0.5008 -0.2160 -0.7437
10402TIP3    H252698   1.307   5.564   1.683 -1.4459 -0.4033  1.2516
10403TIP3   OH252699   2.146   5.056   0.650 -0.2177 -0.0195  0.0337
10403TIP3    H152700   2.200   4.978   0.639 -3.6309 -2.1451 -2.8237
10403TIP3    H252701   2.064   5.023   0.685 -1.4471  2.4162 -0.4647
10404TIP3   OH252702   2.276   0.143  12.412 -0.1347  0.4716  0.0641
10404TIP3    H152703   2.351   0.098  12.373 -0.4664 -0.9845  1.0196
10404TIP3    H252704   2.206   0.133  12.348 -0.1047 -0.0866  0.1144
10405TIP3   OH252705   6.735   6.237   4.862  0.1166 -0.2189  0.3800
10405TIP3    H152706   6.719   6.263   4.771  0.5057 -1.1417  0.0452
10405TIP3    H252707   6.657   6.187   4.887  0.7424 -1.4123 -0.0036
10406TIP3   OH252708   2.391   0.329   2.274 -0.4941 -0.5484 -0.3212
10406TIP3    H152709   2.460   0.265   2.255 -0.0273 -0.1801  0.0928
10406TIP3    H252710   2.343   0.291   2.347  1.1736  0.5723  1.4219
10407TIP3   OH252711   4.444   1.200   6.168 -0.5659 -0.0153 -0.0578
10407TIP3    H152712   4.451   1.165   6.257 -1.4786 -0.4517 -0.1523
10407TIP3    H252713   4.464   1.125   6.111 -4.0258 -0.8452 -0.2931
10408TIP3   OH252714   2.135   1.557  13.204  0.8088 -0.4344  0.5249
10408TIP3    H152715   2.138   1.514  13.118  0.2951  2.4572 -0.9986
10408TIP3    H252716   2.225   1.583  13.220  0.7260 -0.0431  0.3611
10409TIP3   OH252717   0.702   4.043  14.925  0.1565 -0.2077 -0.1134
10409TIP3    H152718   0.720   4.004  14.839  2.2639  0.1545  0.1357
10409TIP3    H252719   0.773   4.105  14.939 -0.8989  0.7179  1.3278
10410TIP3   OH252720   0.760   2.453   4.550  0.3758  0.1729 -0.6796
10410TIP3    H152721   0.786   2.369   4.589 -0.2426 -0.0665 -0.7724
10410TIP3    H252722   0.741   2.431   4.459  1.0435  0.5770 -0.9150
10411TIP3   OH252723   1.928   6.171   2.646 -0.0581  0.4559 -0.8341
10411TIP3    H152724   1.993   6.221   2.598  0.5436 -1.5165 -2.1094
10411TIP3    H252725   1.947   6.079   2.626 -0.2775 -0.3990  2.5486
10412TIP3   OH252726   1.952   5.502   2.488  0.0681  0.1424 -0.0512
10412TIP3    H152727   1.891   5.491   2.415  0.5775  0.4975 -0.5390
10412TIP3    H252728   2.025   5.552   2.451 -0.8518  2.6001  1.3584
10413TIP3   OH252729   1.829   1.050  14.485  0.3935  0.1482 -0.1915
10413TIP3    H152730   1.767   1.114  14.450 -0.1890 -0.3105  0.0014
10413TIP3    H252731   1.780   0.968  14.487  1.2571 -0.3832 -0.7854
10414TIP3   OH252732   4.781   4.157   1.620 -0.2606  0.7197 -0.4485
10414TIP3    H152733   4.781   4.205   1.702  0.4783 -0.3956  0.2164
10414TIP3    H252734   4.874   4.151   1.596 -0.2692 -1.1683 -0.0466
10415TIP3   OH252735   6.009   1.364  12.863  0.3519 -0.2751 -0.7077
10415TIP3    H152736   6.091   1.330  12.827  0.3026 -0.9425 -0.2051
10415TIP3    H252737   6.012   1.458  12.846  2.3704  0.1154  1.4855
10416TIP3   OH252738   5.384   3.420  12.298  0.2467  0.4677  0.2395
10416TIP3    H152739   5.338   3.430  12.381  0.7183 -1.9858  0.8504
10416TIP3    H252740   5.316   3.425  12.231 -0.6991 -1.3627  1.0242
10417TIP3   OH252741   5.300   3.461   2.930 -0.4340 -0.0334  0.4265
10417TIP3    H152742   5.362   3.472   3.002  2.0079 -1.1681 -1.4070
10417TIP3    H252743   5.304   3.544   2.882  2.4719 -1.3005 -1.7116
10418TIP3   OH252744   0.759   6.498  16.789 -0.0513 -0.0226  0.7715
10418TIP3    H152745   0.733   6.410  16.818  3.7033 -1.5620 -0.2799
10418TIP3    H252746   0.819   6.529  16.857  0.3918  0.8140  0.0073
10419TIP3   OH252747   6.676   4.566   6.031 -0.5589  0.8392  0.0601
10419TIP3    H152748   6.604   4.514   6.066  0.6947  0.2418  1.8102
10419TIP3    H252749   6.712   4.612   6.106  0.0305  2.2148 -1.0295
10420TIP3   OH252750   4.869   0.435  12.027 -0.3900  0.2680 -0.3273
10420TIP3    H152751   4.914   0.409  12.108  0.9961 -0.4372 -1.3015
10420TIP3    H252752   4.870   0.531  12.029  1.2609  0.2695 -0.3615
10421TIP3   OH252753   1.491   5.620   2.092 -0.9635  0.1810  0.0045
10421TIP3    H152754   1.455   5.703   2.060 -0.6532  0.4701  0.4093
10421TIP3    H252755   1.525   5.640   2.179 -0.7414 -0.3347  0.0370
10422TIP3   OH252756   3.136   1.393   0.302 -0.3051 -0.0896 -0.4391
10422TIP3    H152757   3.186   1.466   0.337 -3.0157  1.5288  0.2674
10422TIP3    H252758   3.044   1.419   0.315 -1.3905 -4.1952  1.1227
10423TIP3   OH252759   2.398   5.142  10.990 -0.5623 -0.1436 -0.0148
10423TIP3    H152760   2.414   5.220  11.044  0.0730 -1.3937  1.6502
10423TIP3    H252761   2.462   5.148  10.919  0.4038  0.1674  0.8643
10424TIP3   OH252762   0.337   2.605  11.410  0.0465 -0.1223  0.3974
10424TIP3    H152763   0.260   2.661  11.403 -0.5092 -0.4996  2.9077
10424TIP3    H252764   0.386   2.621  11.330 -1.7962  1.3934 -0.4691
10425TIP3   OH252765   4.900   1.573  12.069 -0.4095 -0.0683 -0.1435
10425TIP3    H152766   4.838   1.503  12.053  0.1301 -0.5116 -0.3287
10425TIP3    H252767   4.936   1.594  11.982  0.0225 -0.1213  0.0181
10426TIP3   OH252768   3.250   0.627  16.526  0.5384  0.0295 -0.1030
10426TIP3    H152769   3.224   0.673  16.606  0.2908 -1.2455  0.5660
10426TIP3    H252770   3.176   0.638  16.466  1.2791  2.1556 -0.6837
10427TIP3   OH252771   3.554   1.857  12.967 -0.1668  0.0563  0.2268
10427TIP3    H152772   3.548   1.832  12.875  0.8153  0.1349  0.1345
10427TIP3    H252773   3.634   1.909  12.972 -1.3581  1.9109  0.7028
10428TIP3   OH252774   5.196   2.828   0.653  0.3484  0.3189 -0.1188
10428TIP3    H152775   5.120   2.853   0.601 -0.5990 -0.0182  1.0745
10428TIP3    H252776   5.167   2.836   0.744  1.4967 -0.5460  0.3472
10429TIP3   OH252777   5.044   4.449   4.733  0.1195  0.3589 -0.6885
10429TIP3    H152778   4.954   4.440   4.699 -0.4628  1.4111  0.5228
10429TIP3    H252779   5.051   4.541   4.756 -0.5192 -0.7668  4.6788
10430TIP3   OH252780   6.120   0.421  11.396  0.8303 -0.0491  0.0687
10430TIP3    H152781   6.098   0.328  11.394  2.5872 -0.5063  0.6884
10430TIP3    H252782   6.045   0.465  11.357 -0.0831 -1.7198 -0.0830
10431TIP3   OH252783   3.978   6.434  15.009 -0.3477 -0.0589 -0.0655
10431TIP3    H152784   4.001   6.422  14.917 -1.6512 -2.8205 -0.0735
10431TIP3    H252785   3.909   6.501  15.007 -0.9708 -0.7195 -1.1905
10432TIP3   OH252786   2.837   4.789  13.224  0.3295 -0.3475  0.1939
10432TIP3    H152787   2.778   4.797  13.299  2.4632  1.3964  1.7478
10432TIP3    H252788   2.781   4.800  13.147 -1.6956 -0.9867  1.5563
10433TIP3   OH252789   2.301   3.415   3.566  0.2153 -0.2035 -0.1732
10433TIP3    H152790   2.227   3.359   3.587  0.2355  0.8823  3.1206
10433TIP3    H252791   2.374   3.355   3.555 -0.8370 -1.1856 -2.1190
10434TIP3   OH252792   3.251   1.538   2.124 -0.3513 -0.0219 -0.1548
10434TIP3    H152793   3.317   1.501   2.183 -0.3820  1.5778  0.9073
10434TIP3    H252794   3.198   1.594   2.180 -1.9770 -0.4795 -1.2097
10435TIP3   OH252795   5.507   4.665   4.059  0.5477  0.4460 -0.1941
10435TIP3    H152796   5.516   4.760   4.064 -0.4599  0.5232  0.4209
10435TIP3    H252797   5.551   4.633   4.138 -0.8580  0.5538  0.6649
10436TIP3   OH252798   2.671   0.646  11.099  0.0564 -0.1875 -0.2039
10436TIP3    H152799   2.686   0.710  11.030  0.5264 -1.8574 -1.6944
10436TIP3    H252800   2.609   0.689  11.159  1.0037  1.9466 -0.6976
10437TIP3   OH252801   3.301   4.602   5.010  0.4151 -0.4486  0.9680
10437TIP3    H152802   3.280   4.517   5.050  1.7779  0.0118  2.7419
10437TIP3    H252803   3.391   4.591   4.979  0.8552  0.5833  1.8738
10438TIP3   OH252804   3.565   2.764   0.888 -0.3114  0.0586  0.3317
10438TIP3    H152805   3.633   2.793   0.949 -1.0545 -0.2308  1.3045
10438TIP3    H252806   3.539   2.678   0.920  0.9258 -1.1494 -1.7595
10439TIP3   OH252807   3.367   1.327  16.771 -0.1407 -0.1652 -0.2615
10439TIP3    H152808   3.366   1.329  16.675 -1.8070 -0.2928 -0.2568
10439TIP3    H252809   3.343   1.237  16.793 -1.1710  0.2396  0.2888
10440TIP3   OH252810   1.771   4.979  15.969  0.1555 -0.1816  0.3272
10440TIP3    H152811   1.678   4.965  15.950  0.8748 -2.6588 -1.6274
10440TIP3    H252812   1.812   4.983  15.883  1.9736  0.1949  1.1918
10441TIP3   OH252813   4.925   4.023   3.890  0.7599  0.0252 -0.3392
10441TIP3    H152814   4.884   3.981   3.814  0.6223  0.2970 -0.4164
10441TIP3    H252815   4.982   4.089   3.853 -1.1916  1.8666 -0.1576
10442TIP3   OH252816   0.635   5.335   3.542 -0.4814  0.2651  0.2547
10442TIP3    H152817   0.692   5.407   3.568  1.5701 -0.9741 -0.6592
10442TIP3    H252818   0.671   5.304   3.459 -1.4863 -1.6289  0.4793
10443TIP3   OH252819   2.473   6.699  11.290 -0.2602 -0.4481  0.5803
10443TIP3    H152820   2.451   6.775  11.236 -0.9086  0.5418  2.1800
10443TIP3    H252821   2.568   6.706  11.304 -0.2033 -0.3316  0.1500
10444TIP3   OH252822   4.911   5.779  11.586 -0.0403 -0.2767  0.3040
10444TIP3    H152823   4.864   5.711  11.635  1.3013 -1.1685  0.3925
10444TIP3    H252824   4.853   5.801  11.514 -1.5012  0.1369  1.5736
10445TIP3   OH252825   5.111   0.466  16.807  0.4127 -0.1799  0.0758
10445TIP3    H152826   5.186   0.419  16.769  0.9225  0.5293  0.1929
10445TIP3    H252827   5.051   0.397  16.835  0.2829 -0.7335 -1.5098
10446TIP3   OH252828   5.839   6.242   1.763 -0.8095 -0.2292  0.4429
10446TIP3    H152829   5.877   6.327   1.740 -2.3941  0.5721  0.7588
10446TIP3    H252830   5.807   6.207   1.680  1.1096 -1.1722  0.0777
10447TIP3   OH252831   1.821   4.347   0.199  0.3575 -0.0003 -0.4553
10447TIP3    H152832   1.893   4.289   0.175  1.1947  0.4717  0.8812
10447TIP3    H252833   1.857   4.404   0.266 -0.9150  1.0493 -0.6443
10448TIP3   OH252834   5.710   3.576   3.710 -0.1528  0.8522  0.3431
10448TIP3    H152835   5.620   3.545   3.725 -0.1253  0.7568  0.3107
10448TIP3    H252836   5.760   3.497   3.694 -0.3094  0.9897 -0.9378
10449TIP3   OH252837   3.380   5.475   1.270  0.1367  0.4748 -0.5142
10449TIP3    H152838   3.444   5.459   1.201  0.0446  1.3826 -0.8170
10449TIP3    H252839   3.316   5.405   1.261  0.1761  0.5416 -1.2910
10450TIP3   OH252840   4.772   2.083  13.100 -0.5743  0.2678  0.4154
10450TIP3    H152841   4.718   2.104  13.176  0.0556  1.1068  0.6378
10450TIP3    H252842   4.814   2.166  13.076  0.5116 -0.3438  0.1560
10451TIP3   OH252843   5.746   2.086  14.018 -0.2908  0.3732 -0.1816
10451TIP3    H152844   5.689   2.126  13.954  0.3067  0.1700 -0.8500
10451TIP3    H252845   5.759   2.153  14.085 -0.7612  0.6483 -0.3695
10452TIP3   OH252846   3.596   4.896   0.632 -0.6769 -0.1707 -0.6705
10452TIP3    H152847   3.588   4.873   0.540 -1.1303  0.3589 -0.7667
10452TIP3    H252848   3.662   4.965   0.635  0.0826 -0.9055 -0.4792
10453TIP3   OH252849   6.472   4.873   2.058  0.2371  0.5634 -0.0618
10453TIP3    H152850   6.407   4.896   2.125  1.4467 -0.5177  1.5326
10453TIP3    H252851   6.433   4.799   2.011 -0.2698  0.7940 -0.0042
10454TIP3   OH252852   0.378   5.764   2.683 -0.5562  0.2287 -0.0732
10454TIP3    H152853   0.399   5.817   2.606 -1.8844  2.0922  0.8027
10454TIP3    H252854   0.436   5.799   2.752  1.5103 -2.2422 -0.4800
10455TIP3   OH252855   2.687   5.419  16.776 -0.1414 -0.2193  0.0266
10455TIP3    H152856   2.594   5.397  16.771 -0.4404  1.0421 -0.1213
10455TIP3    H252857   2.724   5.387  16.695 -0.1343 -2.1716  0.7879
10456TIP3   OH252858   4.928   6.304   3.470  0.7467  0.2540 -0.6966
10456TIP3    H152859   4.852   6.246   3.467 -0.1756  1.3272  0.9421
10456TIP3    H252860   4.993   6.257   3.523  0.4468  0.1893 -0.3829
10457TIP3   OH252861   4.295   3.018  14.942  0.6980 -0.2704 -0.2834
10457TIP3    H152862   4.291   3.092  14.881  1.2097  0.4501  0.5491
10457TIP3    H252863   4.366   2.963  14.908  2.2091  1.0428  0.6530
10458TIP3   OH252864   5.917   1.561   4.993  0.0765 -0.2765  0.5138
10458TIP3    H152865   5.895   1.653   4.979 -0.0993 -0.3301  0.4376
10458TIP3    H252866   5.907   1.521   4.906  1.3741 -0.1134  0.2695
10459TIP3   OH252867   5.462   5.819  11.151  0.1470 -0.5021  0.4964
10459TIP3    H152868   5.428   5.747  11.205  2.5783 -2.1989 -0.1451
10459TIP3    H252869   5.556   5.801  11.144  0.6755  2.3493 -0.3090
10460TIP3   OH252870   4.299   1.007  13.834  0.1115  0.0139 -0.1549
10460TIP3    H152871   4.345   1.060  13.899  0.4357 -1.0369  0.4752
10460TIP3    H252872   4.207   1.030  13.845  0.1278 -0.4520  0.9290
10461TIP3   OH252873   3.353   5.179  15.125  0.4081  0.1806  0.4954
10461TIP3    H152874   3.351   5.192  15.030  0.3028 -1.0368  0.3169
10461TIP3    H252875   3.441   5.207  15.151  0.6886 -0.1489 -0.0759
10462TIP3   OH252876   5.792   5.652  12.255  0.2498 -0.1160 -0.0237
10462TIP3    H152877   5.878   5.643  12.213  1.4209  1.6055  1.8870
10462TIP3    H252878   5.809   5.707  12.332 -2.2218 -1.3779  1.4831
10463TIP3   OH252879   4.745   1.625  12.877 -0.2837 -0.5188 -0.2417
10463TIP3    H152880   4.681   1.600  12.944 -0.9919  0.5765 -0.4868
10463TIP3    H252881   4.735   1.558  12.809  0.8043 -1.9288  0.9580
10464TIP3   OH252882   1.674   1.544   6.352 -0.1378 -0.4657  0.0422
10464TIP3    H152883   1.613   1.475   6.380 -0.8417  1.1748  2.7534
10464TIP3    H252884   1.708   1.580   6.434  0.7087  1.9767 -1.3532
10465TIP3   OH252885   5.044   0.728  12.889 -0.4382 -0.0118  0.4271
10465TIP3    H152886   4.973   0.776  12.933  0.2714  0.6951  0.7966
10465TIP3    H252887   5.016   0.636  12.894  0.2282 -0.1076  3.4920
10466TIP3   OH252888   2.825   5.962  11.320  0.2571  0.2880  0.0323
10466TIP3    H152889   2.780   6.027  11.265  0.2464  0.6087  0.4188
10466TIP3    H252890   2.834   5.885  11.263  2.2919  1.3852 -1.1907
10467TIP3   OH252891   2.080   1.078  13.662 -1.1175  0.7429 -0.3947
10467TIP3    H152892   2.122   1.081  13.748 -1.6039 -1.2698 -0.0536
10467TIP3    H252893   2.148   1.046  13.603 -2.3213 -3.3928  0.3237
10468TIP3   OH252894   0.144   4.151   6.474 -1.0459 -0.1453 -0.2336
10468TIP3    H152895   0.115   4.221   6.415 -0.3541 -0.1271 -0.5576
10468TIP3    H252896   0.187   4.197   6.546 -1.9113 -0.1661  0.2973
10469TIP3   OH252897   1.801   3.726  11.853  0.2549 -0.0878  0.2991
10469TIP3    H152898   1.803   3.757  11.762 -1.2178  0.3813  0.4036
10469TIP3    H252899   1.876   3.768  11.894  1.4158 -0.9441 -0.8972
10470TIP3   OH252900   6.758   4.370  12.138  0.2412 -0.6194 -0.6411
10470TIP3    H152901   6.697   4.443  12.129  0.3322 -0.2520  1.4252
10470TIP3    H252902   6.705   4.297  12.168  0.8485 -0.1572  1.6811
10471TIP3   OH252903   3.732   2.779  15.050  0.2954 -0.3767 -0.2930
10471TIP3    H152904   3.782   2.857  15.076  0.4970 -0.1136 -1.4395
10471TIP3    H252905   3.763   2.760  14.962 -0.2271 -1.3831 -0.2614
10472TIP3   OH252906   1.137   2.260  12.476 -0.8597  0.0948 -0.6672
10472TIP3    H152907   1.150   2.263  12.382 -2.3247 -0.0636 -0.8864
10472TIP3    H252908   1.155   2.169  12.500 -0.5215  0.1281 -0.7933
10473TIP3   OH252909   3.810   4.987  12.816  0.1280 -0.2907 -0.0500
10473TIP3    H152910   3.724   5.011  12.782  0.2132  1.5537  0.9570
10473TIP3    H252911   3.803   4.999  12.911  1.1793 -1.1454  0.1465
10474TIP3   OH252912   3.248   5.261   6.655  0.2415 -0.1133  0.0200
10474TIP3    H152913   3.265   5.225   6.568 -1.6137 -2.3307  0.5362
10474TIP3    H252914   3.208   5.347   6.638  0.5420 -0.2234 -1.2906
10475TIP3   OH252915   5.449   2.213   3.234 -0.0856  0.1064 -0.0203
10475TIP3    H152916   5.545   2.221   3.236 -0.2778  2.4805  0.6453
10475TIP3    H252917   5.433   2.135   3.180  2.2506 -1.3043  1.2645
10476TIP3   OH252918   5.853   6.219   2.199 -0.3500  0.3664 -0.0250
10476TIP3    H152919   5.936   6.264   2.183 -0.2093  0.5234  1.1267
10476TIP3    H252920   5.877   6.143   2.251 -0.6468 -0.8245 -1.5923
10477TIP3   OH252921   6.744   1.612   4.308 -0.8834  0.1158  0.2016
10477TIP3    H152922   6.806   1.618   4.381 -0.2609 -0.9863 -0.2299
10477TIP3    H252923   6.769   1.533   4.262 -2.6006 -0.3185 -0.0162
10478TIP3   OH252924   3.883   2.939  11.232 -0.9526  0.2703  0.2586
10478TIP3    H152925   3.930   2.892  11.163 -1.6264 -3.6095  2.2859
10478TIP3    H252926   3.812   2.984  11.186  0.3325  0.1478 -1.9157
10479TIP3   OH252927   3.647   1.653   4.708  0.3816 -0.1709 -0.3279
10479TIP3    H152928   3.632   1.563   4.677 -2.2302 -0.6498  2.1007
10479TIP3    H252929   3.563   1.698   4.691  1.2535  1.4771 -0.3558
10480TIP3   OH252930   3.994   6.433  13.721  0.0043  0.1997 -0.8724
10480TIP3    H152931   3.978   6.347  13.681  0.0859 -0.1056 -0.2498
10480TIP3    H252932   4.027   6.487  13.649  1.4512 -0.7296 -0.9058
10481TIP3   OH252933   5.962   3.782  13.044 -0.2859 -0.3942 -0.0347
10481TIP3    H152934   6.045   3.821  13.015 -0.4802  1.1028  1.3098
10481TIP3    H252935   5.900   3.802  12.974 -0.5310  2.3343  0.8974
10482TIP3   OH252936   0.533   2.269   4.545 -1.3631 -0.1353  0.8847
10482TIP3    H152937   0.533   2.310   4.631 -0.3838  2.3017 -0.2363
10482TIP3    H252938   0.621   2.232   4.535 -1.4800 -0.4278  0.9353
10483TIP3   OH252939   1.237   3.118  13.178 -0.2234 -0.5220  0.2232
10483TIP3    H152940   1.209   3.048  13.236  0.3696 -2.3866 -1.6725
10483TIP3    H252941   1.253   3.075  13.094  0.5836  1.8122 -0.8754
10484TIP3   OH252942   5.769   3.627  16.440 -0.6660 -0.0221 -0.1922
10484TIP3    H152943   5.808   3.554  16.393 -1.7727 -1.0201  0.3961
10484TIP3    H252944   5.842   3.686  16.460  0.0609 -0.4485 -1.6022
10485TIP3   OH252945   6.084   6.630  12.440  0.0471  0.0929 -0.3647
10485TIP3    H152946   6.052   6.704  12.492 -0.2897 -1.1720  1.2620
10485TIP3    H252947   6.179   6.635  12.446  0.0441  0.7906 -0.8407
10486TIP3   OH252948   3.635   2.491   2.255 -0.5692 -0.5193  0.2445
10486TIP3    H152949   3.689   2.428   2.207  2.0045  1.5371  0.3043
10486TIP3    H252950   3.643   2.464   2.346 -1.6798 -1.6745  0.0174
10487TIP3   OH252951   5.047   2.843  14.989 -0.2550  0.5692  0.5168
10487TIP3    H152952   5.028   2.936  14.979 -0.9982  0.4559  0.8124
10487TIP3    H252953   5.081   2.835  15.079  1.0070  0.7393  0.0621
10488TIP3   OH252954   3.438   1.551  16.915 -0.5900 -0.3320  0.2336
10488TIP3    H152955   3.388   1.474  16.887 -1.2841 -0.3175  1.4255
10488TIP3    H252956   3.378   1.599  16.972  0.0204  0.8268 -0.0912
10489TIP3   OH252957   3.107   5.688  12.288 -0.4548 -0.0704 -0.0255
10489TIP3    H152958   3.198   5.715  12.289 -0.4732 -0.0118  0.7667
10489TIP3    H252959   3.061   5.757  12.336 -0.9774  0.1157 -0.7843
10490TIP3   OH252960   4.652   5.751  16.342  0.4586  0.6193  0.6665
10490TIP3    H152961   4.723   5.734  16.281  0.5408  2.1272  0.3149
10490TIP3    H252962   4.685   5.721  16.426  0.5641 -0.9452  0.0765
10491TIP3   OH252963   5.214   1.466   6.411  0.1247  0.0828 -0.0444
10491TIP3    H152964   5.164   1.411   6.471  1.5185 -0.1054  0.9623
10491TIP3    H252965   5.193   1.556   6.437 -1.4300  0.0303 -1.0888
10492TIP3   OH252966   4.408   5.452  16.965 -0.3154 -0.2867  0.0918
10492TIP3    H152967   4.340   5.410  16.912  0.3998 -0.5138 -0.6539
10492TIP3    H252968   4.474   5.480  16.902 -0.5195  1.4720  0.6491
10493TIP3   OH252969   3.824   1.114  14.711  0.1219 -0.5949  0.1037
10493TIP3    H152970   3.806   1.208  14.706  3.0293 -0.1153 -2.1260
10493TIP3    H252971   3.767   1.076  14.644  1.7128  0.0511 -1.6604
10494TIP3   OH252972   2.373   3.542  13.609  0.0157 -0.5967 -0.2433
10494TIP3    H152973   2.338   3.618  13.563 -1.2662 -0.6623  0.6172
10494TIP3    H252974   2.369   3.565  13.701  0.2633 -1.4408 -0.0126
10495TIP3   OH252975   5.711   0.096  13.391  0.1594 -0.4687  0.1868
10495TIP3    H152976   5.797   0.134  13.374 -0.7627  0.7124 -1.9197
10495TIP3    H252977   5.690   0.126  13.480  1.1956  0.6211  0.0848
10496TIP3   OH252978   0.259   2.305   1.243 -0.0788 -0.1299  0.5084
10496TIP3    H152979   0.334   2.330   1.296  0.4296  3.5958 -1.8018
10496TIP3    H252980   0.183   2.335   1.294  0.2911  1.2784  0.2414
10497TIP3   OH252981   5.587   3.390  11.384  0.1632  0.1877  0.1604
10497TIP3    H152982   5.622   3.470  11.345 -0.1466  1.1852  1.8349
10497TIP3    H252983   5.494   3.393  11.364 -0.0778  0.9367  1.3144
10498TIP3   OH252984   6.799   2.975   5.319 -0.1044  0.8577 -0.2798
10498TIP3    H152985   6.877   2.918   5.315  1.1122  2.4686  0.0526
10498TIP3    H252986   6.732   2.920   5.360  1.3141 -0.0573  0.9002
10499TIP3   OH252987   0.538   6.683   1.337  0.7950 -0.0927  0.0059
10499TIP3    H152988   0.616   6.738   1.331  0.3314  0.5403 -0.3233
10499TIP3    H252989   0.507   6.676   1.247 -0.2246  0.6902  0.2837
10500TIP3   OH252990   4.113   5.074  16.263 -0.0954 -0.4387 -0.1897
10500TIP3    H152991   4.097   4.980  16.259 -2.1386 -0.0475 -2.8058
10500TIP3    H252992   4.170   5.092  16.188 -0.9046  0.5915 -0.5762
10501TIP3   OH252993   3.655   6.124   2.729  0.3436  0.5744 -1.0974
10501TIP3    H152994   3.693   6.077   2.804 -2.7182 -1.9205 -1.0191
10501TIP3    H252995   3.700   6.089   2.653  0.8553  0.4110 -0.7231
10502TIP3   OH252996   0.478   3.541   5.983 -0.2313 -0.2548 -0.0181
10502TIP3    H152997   0.434   3.625   5.999  2.3022  1.3082 -0.9718
10502TIP3    H252998   0.570   3.558   6.004 -0.0259 -3.4892  2.1503
10503TIP3   OH252999   5.460   0.805   2.594  0.6343  0.2245  0.3169
10503TIP3    H153000   5.492   0.877   2.648  2.9180 -0.7838  0.3974
10503TIP3    H253001   5.538   0.773   2.548 -0.6556 -1.0641 -1.0521
10504TIP3   OH253002   2.188   5.541   4.732  0.4856  0.1183  0.0058
10504TIP3    H153003   2.149   5.593   4.802  0.1009 -0.1203 -0.0340
10504TIP3    H253004   2.250   5.484   4.777  0.0319 -0.2335  0.1849
10505TIP3   OH253005   4.153   4.109   6.394  0.3179 -0.0668  0.4297
10505TIP3    H153006   4.100   4.038   6.358  0.8989  0.3316 -1.2539
10505TIP3    H253007   4.094   4.184   6.396  0.3190 -0.0602  0.2125
10506TIP3   OH253008   2.469   4.244  13.786  0.6559  0.6223 -0.0616
10506TIP3    H153009   2.522   4.169  13.814 -1.9547 -0.6029  1.8073
10506TIP3    H253010   2.424   4.214  13.707  1.3983  1.0715 -0.6662
10507TIP3   OH253011   2.445   3.982   2.236  0.1111 -0.4695  0.0243
10507TIP3    H153012   2.539   3.999   2.244  0.1853 -0.3866 -0.9458
10507TIP3    H253013   2.432   3.965   2.143 -1.0578  0.8185 -0.0562
10508TIP3   OH253014   1.745   5.532   1.675  0.8146  0.4667  0.1040
10508TIP3    H153015   1.668   5.585   1.655  0.3044 -0.1545  0.3942
10508TIP3    H253016   1.808   5.553   1.606  0.7514  1.7084  0.4111
10509TIP3   OH253017   2.843   4.983   4.721 -0.0820  0.0653  0.5350
10509TIP3    H153018   2.831   4.908   4.779 -0.8165 -0.4715 -0.3003
10509TIP3    H253019   2.912   4.955   4.661 -1.0618 -0.3473 -0.4203
10510TIP3   OH253020   2.161   0.772   3.357 -0.5195 -0.2102 -0.3530
10510TIP3    H153021   2.220   0.725   3.416  0.5334  0.3206 -0.9660
10510TIP3    H253022   2.131   0.848   3.408 -0.1607 -0.1331 -0.2541
10511TIP3   OH253023   0.783   6.401   2.358  0.5025  0.4194 -0.1472
10511TIP3    H153024   0.768   6.313   2.392 -2.2324  0.1112 -2.0582
10511TIP3    H253025   0.878   6.408   2.353  0.8132 -1.7214  1.7995
10512TIP3   OH253026   3.290   6.359  10.538 -0.0495 -0.0270 -0.3088
10512TIP3    H153027   3.293   6.425  10.469 -0.4669 -2.3227 -2.6079
10512TIP3    H253028   3.375   6.365  10.582  0.4840  1.0132 -1.4791
10513TIP3   OH253029   4.478   3.890   3.528 -0.4970  0.4500 -0.2357
10513TIP3    H153030   4.477   3.937   3.611  0.0659 -0.2566  0.1798
10513TIP3    H253031   4.498   3.799   3.552 -0.2987  0.2479 -1.1445
10514TIP3   OH253032   2.123   2.908  16.260 -0.5324  0.0200  0.3923
10514TIP3    H153033   2.085   2.903  16.348 -0.0083 -1.4566  0.5591
10514TIP3    H253034   2.165   2.823  16.248 -1.6355 -0.2341 -1.7834
10515TIP3   OH253035   3.724   2.911   3.733  0.0580 -0.3796  0.1370
10515TIP3    H153036   3.711   2.849   3.804  0.4733  0.2667  0.7875
10515TIP3    H253037   3.736   2.995   3.777  1.1542 -0.1098 -0.6579
10516TIP3   OH253038   6.812   5.681  10.894  0.0254  0.5762  0.0178
10516TIP3    H153039   6.753   5.672  10.819 -0.4115  1.9145  0.1821
10516TIP3    H253040   6.895   5.644  10.864  0.3532  2.6198 -1.7386
10517TIP3   OH253041   1.046   2.694  12.612 -0.3394 -0.3883  0.0861
10517TIP3    H153042   1.046   2.628  12.681 -1.7013 -0.8313 -0.3240
10517TIP3    H253043   1.093   2.768  12.650  0.5056 -1.2783  0.8391
10518TIP3   OH253044   3.492   3.738   1.012  0.0651  0.3372  0.3432
10518TIP3    H153045   3.534   3.767   1.093  0.9962  0.0713 -0.0503
10518TIP3    H253046   3.463   3.819   0.970  0.4422  0.5374  0.4686
10519TIP3   OH253047   5.565   4.128  16.936  0.1468  0.5172 -0.1121
10519TIP3    H153048   5.617   4.124  16.856 -0.5936  0.2134 -0.5925
10519TIP3    H253049   5.478   4.157  16.907 -0.1705  0.2729  0.5568
10520TIP3   OH253050   1.152   5.801   4.387 -0.1425 -0.7296 -0.0650
10520TIP3    H153051   1.106   5.856   4.450 -0.6228 -0.4054 -0.6867
10520TIP3    H253052   1.193   5.733   4.439  0.5663  0.3026  0.7232
10521TIP3   OH253053   6.491   1.701   3.020 -0.4661 -0.5380  0.0591
10521TIP3    H153054   6.543   1.623   3.001  1.2373  0.6655 -0.3314
10521TIP3    H253055   6.458   1.687   3.109 -1.0138 -2.1434 -0.3786
10522TIP3   OH253056   1.960   2.086  16.384  0.8569  0.1549  0.2664
10522TIP3    H153057   1.915   2.141  16.319 -0.4107 -1.1069  0.0569
10522TIP3    H253058   1.908   2.006  16.389  1.1524  0.0635  2.5790
10523TIP3   OH253059   3.469   6.027   4.516  0.1517 -0.0492 -0.4551
10523TIP3    H153060   3.489   6.118   4.539  0.3937 -0.5066  1.1961
10523TIP3    H253061   3.497   6.019   4.425  0.5510  1.4051 -0.4733
10524TIP3   OH253062   1.393   1.564  11.794 -0.7076 -0.4311 -0.1841
10524TIP3    H153063   1.384   1.532  11.883  0.6700  0.8533  0.4465
10524TIP3    H253064   1.467   1.515  11.758 -0.3536  0.0582 -0.1331
10525TIP3   OH253065   3.380   0.149  15.691  0.4565 -0.1597  0.2925
10525TIP3    H153066   3.294   0.191  15.680  0.4804  0.3495  1.9318
10525TIP3    H253067   3.443   0.216  15.665  0.4006 -0.2153  0.0061
10526TIP3   OH253068   0.634   1.865   4.601  0.6227 -0.1398  0.1036
10526TIP3    H153069   0.668   1.894   4.516  0.5212 -1.1687 -0.3007
10526TIP3    H253070   0.713   1.855   4.655  0.9433 -1.7501 -0.5950
10527TIP3   OH253071   5.070   1.174   5.047 -0.9513  0.4249 -0.5295
10527TIP3    H153072   5.122   1.105   5.088 -2.0718  0.6287  1.2996
10527TIP3    H253073   5.122   1.203   4.973  0.5601 -0.8386  0.0210
10528TIP3   OH253074   3.753   1.347   3.823 -0.3748 -0.1839 -0.1808
10528TIP3    H153075   3.778   1.255   3.830  0.3701  0.0829  0.6897
10528TIP3    H253076   3.745   1.377   3.913 -1.0939  0.4810 -0.4604
10529TIP3   OH253077   5.588   6.497  12.417  0.1217 -0.1822 -0.2322
10529TIP3    H153078   5.663   6.455  12.460  0.7145  1.2344  0.1545
10529TIP3    H253079   5.607   6.489  12.323  0.7874  0.1972 -0.1391
10530TIP3   OH253080   5.714   3.016  13.318  0.4475 -0.1376 -0.1192
10530TIP3    H153081   5.712   2.956  13.243  0.6783  0.8094 -0.8862
10530TIP3    H253082   5.635   2.994  13.369 -0.3425  0.0191 -1.2636
10531TIP3   OH253083   1.000   0.112   0.130 -0.1750  0.3475 -0.0444
10531TIP3    H153084   1.004   0.198   0.089 -1.0854 -0.3521 -1.6299
10531TIP3    H253085   1.091   0.090   0.150 -0.0038  1.9437  0.9396
10532TIP3   OH253086   6.037   6.791   4.045  0.4515  0.6399  0.3444
10532TIP3    H153087   6.055   6.869   4.097 -0.0727  1.8360 -1.2480
10532TIP3    H253088   6.031   6.822   3.955 -1.2782 -0.9914 -0.1436
10533TIP3   OH253089   5.636   5.580  15.036  0.1366 -0.0709 -0.2048
10533TIP3    H153090   5.644   5.649  15.102  0.3593  0.0835 -0.3955
10533TIP3    H253091   5.543   5.555  15.038  0.4266 -1.1360  1.2565
10534TIP3   OH253092   3.991   0.875   1.393 -0.4048  0.0978  0.4517
10534TIP3    H153093   3.945   0.851   1.313 -0.4098 -1.5828  0.9399
10534TIP3    H253094   4.043   0.952   1.369  0.4598 -1.0478 -1.4642
10535TIP3   OH253095   2.839   5.036   4.024  0.3305 -0.6501  0.2751
10535TIP3    H153096   2.760   5.072   3.982  0.2693  0.4070  1.2729
10535TIP3    H253097   2.910   5.093   3.993  0.3424 -0.1103  1.2907
10536TIP3   OH253098   1.392   6.535  13.373  0.5432  0.3138  0.2532
10536TIP3    H153099   1.305   6.497  13.361  0.0248  1.9384 -1.3150
10536TIP3    H253100   1.387   6.583  13.455  0.4742 -0.9604  1.0073
10537TIP3   OH253101   1.193   2.950  14.304 -0.3580 -0.1133 -0.5218
10537TIP3    H153102   1.126   2.891  14.270 -0.2703  0.1498 -1.1460
10537TIP3    H253103   1.256   2.958  14.233  1.2107 -1.7025  0.6480
10538TIP3   OH253104   5.314   3.838  15.872  0.3744  0.1959 -0.1497
10538TIP3    H153105   5.360   3.882  15.943 -0.1893 -1.2179  1.1235
10538TIP3    H253106   5.275   3.761  15.913 -0.5751 -0.2508 -1.8451
10539TIP3   OH253107   2.919   0.137  15.957 -0.2621  0.3792  0.8115
10539TIP3    H153108   2.842   0.164  16.006 -0.0255  3.3208 -0.3411
10539TIP3    H253109   2.993   0.173  16.006  0.2146  0.0132  0.3686
10540TIP3   OH253110   5.712   0.982   5.670  0.2883 -0.7016  0.4290
10540TIP3    H153111   5.645   0.914   5.660  0.8472 -1.2748  0.6013
10540TIP3    H253112   5.661   1.063   5.683 -0.3856 -0.8981 -0.8944
10541TIP3   OH253113   2.998   2.451   3.416 -0.5941 -0.1565  0.1859
10541TIP3    H153114   2.915   2.433   3.460  0.0820  0.0457  1.5680
10541TIP3    H253115   3.059   2.388   3.452  0.9217  2.4856  2.4580
10542TIP3   OH253116   5.917   5.996  15.129  0.5170  0.5207  0.5222
10542TIP3    H153117   5.944   5.967  15.216  1.2769  0.5806  0.3065
10542TIP3    H253118   5.823   5.979  15.126  0.5425  0.2617  1.2545
10543TIP3   OH253119   3.377   3.937   5.863  0.7089 -0.0978  0.0104
10543TIP3    H153120   3.340   3.915   5.778 -0.5743  0.5121  0.4038
10543TIP3    H253121   3.338   3.874   5.924  2.1036 -0.9393  0.0637
10544TIP3   OH253122   3.847   6.784  17.089 -0.0295  0.6727  0.6636
10544TIP3    H153123   3.752   6.787  17.102 -0.0213  0.6068  0.7402
10544TIP3    H253124   3.881   6.855  17.143 -0.1425  1.5210 -0.3662
10545TIP3   OH253125   6.733   0.241  12.082 -0.1096 -0.6331 -0.1650
10545TIP3    H153126   6.729   0.224  12.176 -0.4193  0.0854 -0.0439
10545TIP3    H253127   6.806   0.188  12.050  1.8505  1.3288  0.9516
10546TIP3   OH253128   6.526   3.588  15.212 -0.3741 -0.3552  0.2828
10546TIP3    H153129   6.585   3.513  15.202  1.1376  0.5143  2.4641
10546TIP3    H253130   6.584   3.664  15.215 -1.7407  0.6979  0.4879
10547TIP3   OH253131   2.996   1.973  12.393  0.0283  0.4369  0.5705
10547TIP3    H153132   3.022   1.940  12.479 -2.2279  1.6156  1.7292
10547TIP3    H253133   3.078   2.005  12.355  1.3004 -1.4070  1.6642
10548TIP3   OH253134   2.674   3.582   4.508 -0.3341 -0.0642  0.3849
10548TIP3    H153135   2.647   3.490   4.503  0.0042 -0.2871  2.2762
10548TIP3    H253136   2.769   3.579   4.504 -0.3870  0.4997 -3.1108
10549TIP3   OH253137   3.015   3.281  13.591 -0.0165  0.3960 -0.5370
10549TIP3    H153138   3.052   3.283  13.679  0.2668 -1.6753 -0.5853
10549TIP3    H253139   3.090   3.269  13.534 -0.2881  0.9361 -1.0121
10550TIP3   OH253140   5.746   6.817  12.897  0.4688 -0.3270 -1.0967
10550TIP3    H153141   5.780   6.870  12.969 -0.6353  0.2959 -1.0247
10550TIP3    H253142   5.670   6.866  12.865  0.9949 -0.5579 -2.7409
10551TIP3   OH253143   3.188   1.801   3.175 -0.5394  0.0202 -0.0470
10551TIP3    H153144   3.224   1.713   3.165 -0.5089 -0.0338  0.5729
10551TIP3    H253145   3.196   1.821   3.268  0.5094  1.1312 -0.3574
10552TIP3   OH253146   4.936   5.172   2.972 -0.5750 -0.1767  0.6018
10552TIP3    H153147   4.901   5.261   2.959 -0.6466 -0.0107  1.8853
10552TIP3    H253148   4.920   5.128   2.888 -3.1275  0.1561  0.8672
10553TIP3   OH253149   5.279   3.728   3.516 -0.1688 -0.0545  0.4843
10553TIP3    H153150   5.339   3.780   3.571 -0.1160 -0.2594  0.6234
10553TIP3    H253151   5.201   3.782   3.509  0.4321  0.6956 -0.5939
10554TIP3   OH253152   2.886   4.322   3.125  0.0130 -0.5781 -0.3940
10554TIP3    H153153   2.906   4.265   3.051  1.8014 -1.6059  0.8526
10554TIP3    H253154   2.960   4.312   3.184  0.0686  2.6053  0.1420
10555TIP3   OH253155   0.335   0.157   4.619 -0.0301 -0.4973  0.1108
10555TIP3    H153156   0.386   0.097   4.674 -0.8948 -0.5127  0.8935
10555TIP3    H253157   0.398   0.187   4.553  1.2748  0.2234  1.6302
10556TIP3   OH253158   6.643   6.231  13.868  0.8364  0.4459  0.7062
10556TIP3    H153159   6.696   6.167  13.820  3.4779  1.4290  2.1677
10556TIP3    H253160   6.707   6.278  13.922 -1.6157  1.5000  2.7710
10557TIP3   OH253161   5.907   1.510  13.864 -0.6082  0.2867 -0.0188
10557TIP3    H153162   5.863   1.464  13.793 -0.8763  0.5211 -0.0064
10557TIP3    H253163   5.844   1.576  13.892 -0.5685  0.0755  0.5567
10558TIP3   OH253164   2.312   4.195  14.300 -0.6920 -0.5849  0.4958
10558TIP3    H153165   2.353   4.124  14.251 -0.4184 -0.7375  0.9509
10558TIP3    H253166   2.351   4.190  14.387 -0.8472 -0.0287  0.5987
10559TIP3   OH253167   3.987   3.178   0.416 -0.4759  0.0020  0.2534
10559TIP3    H153168   3.924   3.181   0.345 -0.0404  1.2059 -0.0942
10559TIP3    H253169   3.934   3.156   0.493 -1.3595  1.1208 -0.0080
10560TIP3   OH253170   3.003   1.151  13.912 -0.2194 -0.1964  0.2729
10560TIP3    H153171   3.022   1.113  13.826 -0.4622  0.2185  0.0312
10560TIP3    H253172   2.908   1.142  13.922 -0.3401  0.7145  0.0278
10561TIP3   OH253173   2.947   4.293  14.269 -0.1704 -0.3597  0.1174
10561TIP3    H153174   2.869   4.320  14.220  0.1303 -0.2673 -0.3122
10561TIP3    H253175   2.932   4.201  14.288 -0.6906 -0.1752  0.6145
10562TIP3   OH253176   4.770   0.040   3.498  0.5154 -0.5124  0.1256
10562TIP3    H153177   4.709   0.022   3.569  1.1191 -1.5990  0.3961
10562TIP3    H253178   4.828  -0.037   3.497  1.6277  0.3186 -0.3663
10563TIP3   OH253179   1.080   1.274   3.448  0.3228  0.0271  0.1829
10563TIP3    H153180   1.056   1.183   3.430 -1.0029  0.5829 -0.9565
10563TIP3    H253181   1.142   1.268   3.521 -0.7143 -1.6986  0.9686
10564TIP3   OH253182   5.233   1.575   1.733 -0.8620  0.5734  0.5275
10564TIP3    H153183   5.215   1.638   1.663 -1.1417  1.1037  1.0696
10564TIP3    H253184   5.248   1.630   1.810  0.9354  0.0703  0.5619
10565TIP3   OH253185   3.100   5.225  11.388  0.3633 -0.6063  0.0595
10565TIP3    H153186   3.092   5.318  11.367  1.4758 -0.8745 -1.6726
10565TIP3    H253187   3.161   5.191  11.322 -0.8972 -2.7872 -0.0239
10566TIP3   OH253188   2.607   2.426   4.183 -0.0944 -0.1763  0.2172
10566TIP3    H153189   2.590   2.518   4.168  0.3944 -0.2999 -1.2031
10566TIP3    H253190   2.695   2.423   4.219 -0.5820 -0.0035  1.4308
10567TIP3   OH253191   4.212   0.031   3.806 -0.0184  0.1840 -0.1709
10567TIP3    H153192   4.232  -0.051   3.851  0.4327  0.3262 -0.1111
10567TIP3    H253193   4.150   0.006   3.738 -1.4666  0.1182  1.1337
10568TIP3   OH253194   6.380   2.392  11.777  0.7046 -0.0370  1.0703
10568TIP3    H153195   6.431   2.350  11.846  1.1618 -1.5646 -0.1548
10568TIP3    H253196   6.293   2.354  11.785  1.0842 -1.1785  0.0448
10569TIP3   OH253197   5.130   1.111  10.867  0.4331 -0.3999 -0.2452
10569TIP3    H153198   5.219   1.078  10.857  0.5193 -0.4750  0.7047
10569TIP3    H253199   5.140   1.206  10.866  0.5552 -0.4067  0.0347
10570TIP3   OH253200   1.254   2.140  14.066 -0.1985 -0.1594  0.1303
10570TIP3    H153201   1.297   2.153  13.982  0.0713  1.3077  0.4881
10570TIP3    H253202   1.178   2.085  14.046  1.0311 -1.5819 -0.7267
10571TIP3   OH253203   3.342   0.002  13.180  0.1543  0.6730 -0.6213
10571TIP3    H153204   3.416   0.047  13.222 -1.4655  1.5747  1.3708
10571TIP3    H253205   3.350  -0.089  13.211  0.6133  0.6989 -0.6587
10572TIP3   OH253206   4.050   1.032  11.573  0.0423  0.2375 -0.1074
10572TIP3    H153207   4.005   1.112  11.547  1.4324  1.6179  1.5638
10572TIP3    H253208   3.991   0.992  11.637 -1.3603 -0.9048 -2.0667
10573TIP3   OH253209   4.670   5.822  15.001 -0.5640  0.1753  0.1774
10573TIP3    H153210   4.682   5.901  14.948 -1.9458  0.2033 -0.1037
10573TIP3    H253211   4.651   5.754  14.937  0.3159 -0.3269  0.4471
10574TIP3   OH253212   1.913   0.611   4.643  0.0248 -0.4205  1.1520
10574TIP3    H153213   1.939   0.660   4.564 -0.8122 -1.4706  0.2146
10574TIP3    H253214   1.996   0.588   4.684  0.5333 -1.3420 -0.3460
10575TIP3   OH253215   6.141   0.632   0.267 -0.1632  0.1229  0.3210
10575TIP3    H153216   6.123   0.726   0.262  2.5857  0.6954  0.6916
10575TIP3    H253217   6.119   0.608   0.357 -0.6714  0.4279  0.2839
10576TIP3   OH253218   5.369   3.205   4.814 -0.2753  0.8013  0.1845
10576TIP3    H153219   5.279   3.194   4.783 -0.0279  0.3931 -0.3870
10576TIP3    H253220   5.365   3.181   4.906 -0.6307  0.1990  0.0147
10577TIP3   OH253221   0.728   4.215  12.963  0.2504 -0.2476  0.0180
10577TIP3    H153222   0.698   4.295  13.006  0.9318 -0.4569  0.8883
10577TIP3    H253223   0.743   4.241  12.872 -1.3276  0.1606 -0.1360
10578TIP3   OH253224   5.579   2.563   0.138 -0.1747 -0.4135  0.6878
10578TIP3    H153225   5.604   2.640   0.190 -0.0702 -0.5645  0.8627
10578TIP3    H253226   5.611   2.489   0.189 -0.7663 -0.5984  0.7865
10579TIP3   OH253227   2.547   5.093  13.191 -0.6365  0.2340  0.3478
10579TIP3    H153228   2.561   5.068  13.100 -0.5120 -0.3267  0.5135
10579TIP3    H253229   2.522   5.011  13.234  0.7254  0.1981  1.1079
10580TIP3   OH253230   5.639   1.857  16.961  0.3678 -0.2923  0.1226
10580TIP3    H153231   5.654   1.809  17.042  0.2249  2.5053  1.8891
10580TIP3    H253232   5.690   1.810  16.895  1.8434 -1.6700  2.1912
10581TIP3   OH253233   4.635   4.205  15.790 -0.1020  0.2420 -0.0150
10581TIP3    H153234   4.596   4.131  15.743  0.4539 -0.1337  0.1131
10581TIP3    H253235   4.709   4.231  15.735  0.1541  0.2243  0.3239
10582TIP3   OH253236   2.669   1.721   5.285  0.3208  0.3274  0.3567
10582TIP3    H153237   2.665   1.630   5.253  0.8245  0.6773 -0.7370
10582TIP3    H253238   2.684   1.773   5.206  1.2802  1.2539  1.1327
10583TIP3   OH253239   0.055   2.377  14.646 -0.1555 -0.5241  0.6742
10583TIP3    H153240  -0.036   2.398  14.626  0.1219  1.5537  1.4791
10583TIP3    H253241   0.050   2.297  14.698 -1.4756 -0.7490  0.2217
10584TIP3   OH253242   1.465   4.373  12.194 -0.0282 -0.1853  0.4866
10584TIP3    H153243   1.515   4.332  12.123 -0.1653 -0.8374  0.7585
10584TIP3    H253244   1.376   4.381  12.159 -0.0517 -0.3267  0.5145
10585TIP3   OH253245   3.395   0.419  16.402  0.6737  0.8128  0.6242
10585TIP3    H153246   3.371   0.482  16.470  0.1839  0.1178  1.0941
10585TIP3    H253247   3.320   0.361  16.396  0.8517  0.6726 -0.2833
10586TIP3   OH253248   4.049   0.732   2.334 -0.4775 -0.6240 -0.0238
10586TIP3    H153249   4.073   0.643   2.357 -1.5243 -0.9064  0.0274
10586TIP3    H253250   3.977   0.754   2.394  0.4667  0.6308  0.6631
10587TIP3   OH253251   0.103   2.974  14.078 -0.0781  0.5471 -0.1811
10587TIP3    H153252   0.044   2.924  14.135  0.3506 -1.4874 -1.4669
10587TIP3    H253253   0.045   3.033  14.030 -0.7801  0.1947  0.2194
10588TIP3   OH253254   1.893   3.706  15.285 -0.6752 -0.2372  0.1861
10588TIP3    H153255   1.910   3.631  15.341  3.0984  1.4559  1.4773
10588TIP3    H253256   1.979   3.736  15.258 -2.1660  2.6235 -1.6535
10589TIP3   OH253257   0.326   0.231   0.524  0.0389  0.0286 -0.2131
10589TIP3    H153258   0.390   0.248   0.592 -0.7459 -1.6931  0.9863
10589TIP3    H253259   0.244   0.215   0.571 -0.5375 -1.1058 -1.5544
10590TIP3   OH253260   4.873   5.170  16.068  0.1964  0.0743 -0.2810
10590TIP3    H153261   4.881   5.077  16.091 -1.0830 -0.1381 -0.6416
10590TIP3    H253262   4.963   5.202  16.066  0.8573 -1.8172 -2.8657
10591TIP3   OH253263   1.100   3.307  13.004 -0.3309  0.0545 -0.6081
10591TIP3    H153264   1.109   3.213  13.015  0.9307  0.3417  0.9382
10591TIP3    H253265   1.153   3.328  12.927 -2.0278 -0.7132 -2.0311
10592TIP3   OH253266   4.235   6.084   2.946  0.0833 -0.3723 -0.0232
10592TIP3    H153267   4.177   6.069   2.871 -0.2615 -0.5364  0.2733
10592TIP3    H253268   4.309   6.026   2.931  0.6066  0.4886 -0.8659
10593TIP3   OH253269   2.675   2.196   6.826 -0.3886  0.0566  0.4346
10593TIP3    H153270   2.769   2.189   6.806 -0.2082 -1.2184  1.6813
10593TIP3    H253271   2.633   2.135   6.766 -0.5995  1.7999 -1.2352
10594TIP3   OH253272   3.397   0.918  14.646  1.0718 -0.0139 -0.2392
10594TIP3    H153273   3.486   0.923  14.609  1.2132 -1.6601 -0.1819
10594TIP3    H253274   3.346   0.873  14.579  0.8004 -0.9840  0.5929
10595TIP3   OH253275   3.785   0.566   4.628  0.7146  0.2442  0.4883
10595TIP3    H153276   3.839   0.500   4.672  0.4643  0.1129  0.5995
10595TIP3    H253277   3.734   0.606   4.698  0.6937  0.3945  0.3877
10596TIP3   OH253278   4.356   1.148   4.679  0.4758  0.4360  0.0531
10596TIP3    H153279   4.399   1.227   4.711 -2.1222  1.8625  0.1571
10596TIP3    H253280   4.384   1.079   4.739  0.2056  1.9528  1.9622
10597TIP3   OH253281   2.749   0.629  14.069  0.2162 -0.1106  0.7391
10597TIP3    H153282   2.810   0.691  14.031  0.3839 -1.0932 -0.6265
10597TIP3    H253283   2.793   0.544  14.063 -0.1929 -0.4489  2.1558
10598TIP3   OH253284   2.828   3.861   5.197 -0.6154 -0.1937 -0.0011
10598TIP3    H153285   2.790   3.944   5.227 -2.2068  0.0779 -2.6745
10598TIP3    H253286   2.754   3.801   5.193 -0.0897 -0.7458 -1.5130
10599TIP3   OH253287   2.608   5.347  16.463  0.8675  0.3311  0.1034
10599TIP3    H153288   2.691   5.395  16.461  1.4497 -0.6701  0.1970
10599TIP3    H253289   2.598   5.312  16.374  1.0887 -0.4731  0.3940
10600TIP3   OH253290   2.086   1.394   1.242 -0.1797  0.0013 -0.7525
10600TIP3    H153291   2.020   1.440   1.192  0.4360 -0.6160 -2.1474
10600TIP3    H253292   2.037   1.352   1.313 -0.9612  1.3899 -0.4368
10601TIP3   OH253293   1.257   0.469  11.761  0.8292  0.2206 -0.3951
10601TIP3    H153294   1.336   0.416  11.774  0.2611  0.0185  2.5201
10601TIP3    H253295   1.287   0.559  11.769  0.7329  0.1354  1.0066
10602TIP3   OH253296   1.264   4.044   5.816  0.5564 -0.3994  0.0077
10602TIP3    H153297   1.241   4.128   5.855  0.2914 -0.5346  0.1439
10602TIP3    H253298   1.180   4.005   5.792  0.7881  0.5121 -2.4582
10603TIP3   OH253299   2.546   5.863  16.231  0.6561  0.1421  0.6065
10603TIP3    H153300   2.569   5.873  16.139 -1.0065  0.4024  0.2048
10603TIP3    H253301   2.546   5.952  16.267  0.4052  0.1315  0.6330
10604TIP3   OH253302   6.777   2.922  16.781 -0.0930  0.1817 -0.1164
10604TIP3    H153303   6.688   2.948  16.806 -0.3704  2.1522 -2.8989
10604TIP3    H253304   6.769   2.897  16.688  2.0304 -0.8334 -0.0478
10605TIP3   OH253305   5.252   0.626   1.586  0.0865 -0.3073 -0.2532
10605TIP3    H153306   5.347   0.636   1.595  0.1825 -1.0381 -0.3967
10605TIP3    H253307   5.220   0.621   1.676  0.2771 -0.8179 -0.2087
10606TIP3   OH253308   5.489   2.295  11.485 -0.0425 -0.5858 -0.3830
10606TIP3    H153309   5.492   2.203  11.509 -2.4733 -1.5886 -3.6369
10606TIP3    H253310   5.460   2.296  11.394  1.0221  3.3561 -0.8001
10607TIP3   OH253311   6.644   1.166   3.929 -0.2255 -0.3470  0.0879
10607TIP3    H153312   6.614   1.162   3.838 -1.3805  2.5713  0.2908
10607TIP3    H253313   6.641   1.259   3.951  1.8976 -0.8113  2.5247
10608TIP3   OH253314   6.591   4.393   1.065 -0.0905  0.0804  0.2600
10608TIP3    H153315   6.525   4.462   1.062  0.1634  0.3293  0.3754
10608TIP3    H253316   6.658   4.422   1.003 -0.3408 -0.4294 -0.2538
10609TIP3   OH253317   3.229   6.608  15.893  0.2086  0.4412 -0.1891
10609TIP3    H153318   3.277   6.546  15.948  0.7675  1.2036  0.1971
10609TIP3    H253319   3.231   6.571  15.806  1.2043  0.2938 -0.1072
10610TIP3   OH253320   6.699   4.848   5.305  0.4190  0.2346  0.1448
10610TIP3    H153321   6.779   4.900   5.294  1.5826 -1.3795  0.7323
10610TIP3    H253322   6.718   4.791   5.379 -0.8685 -0.9604 -0.4286
10611TIP3   OH253323   5.063   6.432  16.781  0.2149 -0.6199  0.2360
10611TIP3    H153324   5.099   6.509  16.824 -0.4378 -0.1980  0.0436
10611TIP3    H253325   5.130   6.404  16.719  0.9864 -0.9825  1.2261
10612TIP3   OH253326   3.792   5.954   2.511 -0.2157 -0.0137  0.0939
10612TIP3    H153327   3.761   5.864   2.520 -0.1648  0.1669  2.4621
10612TIP3    H253328   3.850   5.952   2.435 -0.0273 -2.0343  0.2598
10613TIP3   OH253329   5.578   2.562  11.755 -0.4135  0.2791 -0.4831
10613TIP3    H153330   5.657   2.548  11.702 -0.8287  0.0681 -1.0533
10613TIP3    H253331   5.598   2.639  11.808 -0.0273  0.5491 -1.0154
10614TIP3   OH253332   0.096   0.593   2.183  0.1827  0.2075 -0.2223
10614TIP3    H153333   0.189   0.570   2.193  0.3238  0.6400 -0.5479
10614TIP3    H253334   0.067   0.613   2.272  0.9007  1.9730 -0.3744
10615TIP3   OH253335   0.147   4.752   2.887  0.2675 -0.1975 -0.0755
10615TIP3    H153336   0.183   4.796   2.963 -0.5373  0.2990  0.0302
10615TIP3    H253337   0.086   4.687   2.924 -0.9602  0.8004 -0.3114
10616TIP3   OH253338   1.470   0.142  14.891 -0.4757  0.2220  0.2633
10616TIP3    H153339   1.510   0.228  14.885  0.8658 -0.4252 -0.4365
10616TIP3    H253340   1.488   0.101  14.806 -1.0355 -0.7647  0.6035
10617TIP3   OH253341   2.332   6.281  12.976 -0.6131 -0.0858  0.2466
10617TIP3    H153342   2.385   6.237  13.043  1.8061 -0.9154 -2.1335
10617TIP3    H253343   2.393   6.339  12.931 -2.2744  0.6591 -1.0975
10618TIP3   OH253344   6.042   3.646  15.362 -0.2912 -0.3932 -0.0592
10618TIP3    H153345   6.100   3.717  15.332 -1.4055 -0.3028 -2.1012
10618TIP3    H253346   6.097   3.591  15.417  1.0293  1.1641  0.2071
10619TIP3   OH253347   4.992   6.256   4.876 -0.0194 -0.0265 -0.0568
10619TIP3    H153348   4.926   6.191   4.850 -0.4085  0.4916 -0.3697
10619TIP3    H253349   4.952   6.301   4.951 -0.5028  1.0541 -0.9532
10620TIP3   OH253350   1.754   2.747   6.000 -0.4980  0.4743  0.8666
10620TIP3    H153351   1.709   2.740   5.916  0.7628  0.5688  0.1708
10620TIP3    H253352   1.769   2.656   6.027 -1.0454  0.4430  1.0763
10621TIP3   OH253353   1.610   5.757  12.382  0.7552 -0.3187  0.2302
10621TIP3    H153354   1.622   5.665  12.402 -2.9977 -0.7340  0.9565
10621TIP3    H253355   1.627   5.802  12.465 -0.6214 -0.6943  0.7337
10622TIP3   OH253356   4.971   4.255   6.197  0.0774  0.0313 -0.2646
10622TIP3    H153357   4.888   4.211   6.217  0.1330 -0.7544 -1.6777
10622TIP3    H253358   5.027   4.185   6.162  0.4240  1.0798 -1.8423
10623TIP3   OH253359   6.424   4.551   0.465  0.3694  0.2116 -0.4927
10623TIP3    H153360   6.435   4.507   0.550  0.7114 -0.3588 -0.8250
10623TIP3    H253361   6.369   4.491   0.414 -0.5243  0.9359 -0.3997
10624TIP3   OH253362   6.533   1.324  13.144 -0.0819 -0.0480  0.3419
10624TIP3    H153363   6.576   1.292  13.223 -0.4723 -0.7487  0.2724
10624TIP3    H253364   6.518   1.246  13.091 -0.9881  0.2594  0.1399
10625TIP3   OH253365   3.825   1.235  16.317 -0.5197 -0.5706  0.6200
10625TIP3    H153366   3.796   1.303  16.256 -0.1451 -1.0931 -0.1554
10625TIP3    H253367   3.744   1.190  16.343 -0.6913 -0.2928  0.5701
10626TIP3   OH253368   1.941   1.514   2.820  0.0009 -0.2749 -0.1575
10626TIP3    H153369   1.892   1.443   2.778  0.8173 -1.0477  0.1614
10626TIP3    H253370   1.899   1.525   2.905 -0.2401 -0.2508 -0.2778
10627TIP3   OH253371   0.137   1.559   2.377 -0.7207 -0.5673  0.7076
10627TIP3    H153372   0.205   1.625   2.365 -2.4800  1.3195  0.8944
10627TIP3    H253373   0.085   1.591   2.451 -0.4793 -3.1521  2.0777
10628TIP3   OH253374   2.529   6.081   4.896  0.0961  0.2559  0.9728
10628TIP3    H153375   2.442   6.055   4.927 -0.2793 -0.5457 -0.6774
10628TIP3    H253376   2.524   6.176   4.890 -1.3819  0.0903 -1.0702
10629TIP3   OH253377   2.765   1.912  16.883  0.6204  0.4789 -0.7666
10629TIP3    H153378   2.681   1.894  16.841  0.1530  1.0393 -0.1007
10629TIP3    H253379   2.761   1.865  16.966  0.7215  0.9780 -0.4750
10630TIP3   OH253380   6.657   2.319   3.144 -1.0139  0.3097 -0.4676
10630TIP3    H153381   6.580   2.272   3.114 -0.6548  0.1252 -1.1352
10630TIP3    H253382   6.656   2.402   3.095 -0.3240 -0.0700 -1.1439
10631TIP3   OH253383   6.170   6.447  13.790 -0.1385 -0.0621 -0.3649
10631TIP3    H153384   6.264   6.450  13.771 -0.2720  0.4371 -0.9750
10631TIP3    H253385   6.161   6.380  13.857  0.7479  0.4402  0.2638
10632TIP3   OH253386   0.867   0.595   3.519 -0.2557  0.5380  0.4765
10632TIP3    H153387   0.883   0.623   3.429 -4.4997  0.2974 -0.4696
10632TIP3    H253388   0.883   0.500   3.518  0.5849  0.6758  0.2342
10633TIP3   OH253389   3.407   5.252  12.839  0.1797 -0.4569  0.2566
10633TIP3    H153390   3.393   5.216  12.926  1.4914  0.1900  0.7573
10633TIP3    H253391   3.453   5.334  12.854 -0.5160  0.1749 -0.9961
10634TIP3   OH253392   1.900   1.822  16.261  0.1841 -0.1539  0.7426
10634TIP3    H153393   1.845   1.827  16.183 -0.5866  0.7190  1.3347
10634TIP3    H253394   1.988   1.808  16.227 -0.0877  0.6252 -0.3025
10635TIP3   OH253395   0.812   2.098  14.826  0.8365 -0.1568  0.1860
10635TIP3    H153396   0.750   2.171  14.820 -0.2594 -1.2312 -2.7702
10635TIP3    H253397   0.891   2.131  14.782  0.5890 -0.4799 -0.5116
10636TIP3   OH253398   2.311   6.708  12.540 -0.2370 -0.1965  0.4506
10636TIP3    H153399   2.261   6.790  12.548  1.9302  0.8642  4.0255
10636TIP3    H253400   2.256   6.643  12.583 -0.6567 -0.0484  0.1518
10637TIP3   OH253401   5.459   4.830  13.213  0.2510 -0.2768 -0.3533
10637TIP3    H153402   5.441   4.737  13.203  2.9159 -0.8341 -0.2719
10637TIP3    H253403   5.418   4.853  13.296  0.9871 -1.7605  0.4356
10638TIP3   OH253404   4.819   2.488   6.053  0.0370 -0.1587 -0.0165
10638TIP3    H153405   4.785   2.414   6.004 -0.9387  0.3020 -0.0416
10638TIP3    H253406   4.742   2.525   6.098  0.7705 -0.1136  1.2420
10639TIP3   OH253407   0.678   1.458  16.760 -0.0871 -0.1356  0.0582
10639TIP3    H153408   0.745   1.425  16.820 -1.1810 -1.0601  0.7962
10639TIP3    H253409   0.658   1.383  16.704  0.0804  0.3783 -0.6787
10640TIP3   OH253410   1.984   5.580  12.417 -0.0748 -0.4243  0.0259
10640TIP3    H153411   1.977   5.657  12.474 -1.5589 -0.0445 -0.6467
10640TIP3    H253412   1.916   5.520  12.450 -2.5891  0.7538 -2.7540
10641TIP3   OH253413   5.714   6.409  12.194 -0.3619  0.2682  0.4701
10641TIP3    H153414   5.766   6.330  12.203 -1.0106 -0.3623 -1.0463
10641TIP3    H253415   5.775   6.481  12.212  0.3634 -0.5594  1.3069
10642TIP3   OH253416   5.911   6.634   1.535 -0.2031  0.0987  0.5264
10642TIP3    H153417   5.875   6.548   1.513  1.0617  0.1754 -1.9873
10642TIP3    H253418   5.995   6.615   1.577 -0.0467  0.1271  0.2198
10643TIP3   OH253419   2.787   2.118  16.681 -0.4879 -0.1247 -0.2087
10643TIP3    H153420   2.708   2.097  16.631 -1.4112  0.3534  1.0351
10643TIP3    H253421   2.781   2.064  16.760  0.6882 -0.4655 -0.3434
10644TIP3   OH253422   4.968   3.204   5.912 -0.1208  0.0048  0.0610
10644TIP3    H153423   4.962   3.115   5.946  1.9204  0.1326  0.8121
10644TIP3    H253424   4.969   3.259   5.990 -1.0318  0.6877 -0.3939
10645TIP3   OH253425   2.911   3.691  10.468 -0.5002 -0.1393  0.4300
10645TIP3    H153426   2.984   3.743  10.435 -1.4769 -0.0611 -1.6852
10645TIP3    H253427   2.869   3.748  10.533 -0.3420  0.9156 -0.3702
10646TIP3   OH253428   0.379   3.700   5.571  0.5205  0.6359 -0.0304
10646TIP3    H153429   0.442   3.732   5.636  0.6496 -0.6505  0.4954
10646TIP3    H253430   0.340   3.622   5.612 -0.4189  0.6270 -0.9168
10647TIP3   OH253431   4.840   5.119  15.295  0.4411  0.1419  0.2375
10647TIP3    H153432   4.800   5.122  15.382 -0.2721  1.8918 -0.1107
10647TIP3    H253433   4.934   5.112  15.311  0.2517 -0.2996  1.1410
10648TIP3   OH253434   2.609   0.763   2.606  0.1413 -0.1934  0.4514
10648TIP3    H153435   2.634   0.678   2.644 -1.1812  0.2797  2.4500
10648TIP3    H253436   2.564   0.809   2.677 -0.4585  1.6167 -1.0574
10649TIP3   OH253437   6.269   4.882   2.265  0.2590 -0.2254  0.0747
10649TIP3    H153438   6.252   4.974   2.285 -3.0814 -0.7493 -0.0634
10649TIP3    H253439   6.224   4.833   2.335  0.2824 -1.7800 -0.9570
10650TIP3   OH253440   1.290   2.719   2.761 -0.2483  0.3138  0.0305
10650TIP3    H153441   1.361   2.671   2.718 -0.3217  0.7821 -0.6158
10650TIP3    H253442   1.321   2.809   2.766 -0.8328  0.5370 -0.3317
10651TIP3   OH253443   0.329   2.203   6.441  0.3772  0.3781 -0.0755
10651TIP3    H153444   0.271   2.255   6.496  0.3864  0.0538  0.2414
10651TIP3    H253445   0.392   2.165   6.502  1.3582  1.2890 -0.4891
10652TIP3   OH253446   3.792   0.998  12.818 -0.2176 -0.1292  0.0002
10652TIP3    H153447   3.751   1.043  12.892 -3.1394 -1.9667 -0.4064
10652TIP3    H253448   3.835   0.922  12.857 -0.0758 -0.0465  0.0095
10653TIP3   OH253449   4.759   2.332  15.369 -0.0954 -0.0078 -0.4516
10653TIP3    H153450   4.790   2.254  15.323 -0.0970  0.2302 -0.8524
10653TIP3    H253451   4.748   2.303  15.460 -0.4028 -0.5641 -0.6581
10654TIP3   OH253452   2.608   4.251   0.865 -0.0034 -0.0551  0.1482
10654TIP3    H153453   2.603   4.266   0.960  1.9353 -1.5189  0.5210
10654TIP3    H253454   2.644   4.332   0.830  1.2060 -0.2345  0.9342
10655TIP3   OH253455   6.656   0.878  11.545 -0.1876 -0.2768  0.1138
10655TIP3    H153456   6.744   0.840  11.555 -0.4047 -0.5602  0.9351
10655TIP3    H253457   6.671   0.972  11.540  0.4921 -0.4761 -3.2373
10656TIP3   OH253458   3.667   0.470  16.442  0.0213 -0.0036  0.1812
10656TIP3    H153459   3.675   0.392  16.498 -0.4736  0.5658  1.0529
10656TIP3    H253460   3.580   0.462  16.402 -0.0037  0.0598  0.2230
10657TIP3   OH253461   0.753   4.426  17.185  0.4278  0.1569  0.0596
10657TIP3    H153462   0.773   4.438  17.092  0.5199  1.6748  0.2740
10657TIP3    H253463   0.795   4.343  17.208 -0.8804 -1.0379 -1.6255
10658TIP3   OH253464   0.543   4.700  14.877 -0.0724 -0.8397  0.3736
10658TIP3    H153465   0.449   4.687  14.890 -0.1663 -0.0570  0.4953
10658TIP3    H253466   0.549   4.766  14.808  0.3845 -0.8806  0.3711
10659TIP3   OH253467   3.623   2.822  12.281 -0.1096  0.9192 -0.1689
10659TIP3    H153468   3.711   2.816  12.245 -0.1015 -2.2970  0.2101
10659TIP3    H253469   3.567   2.841  12.205  0.5984  0.2582 -0.8629
10660TIP3   OH253470   1.090   3.812   0.732 -0.4100 -0.2461  0.0649
10660TIP3    H153471   1.067   3.814   0.825 -1.9276 -0.6131 -0.2890
10660TIP3    H253472   1.135   3.729   0.720  1.9511  0.8587  0.9431
10661TIP3   OH253473   1.056   4.178  13.662 -0.3326 -0.3782  0.4866
10661TIP3    H153474   1.035   4.104  13.604  1.6619 -1.5417  1.2039
10661TIP3    H253475   1.126   4.145  13.718  0.6998  2.1235  0.7183
10662TIP3   OH253476   2.532   3.191  12.907 -0.3296 -0.4380 -0.3617
10662TIP3    H153477   2.441   3.161  12.901  0.0127 -1.6060  0.2027
10662TIP3    H253478   2.528   3.267  12.965 -0.7573 -1.3529  0.8317
10663TIP3   OH253479   4.670   2.007   2.650 -0.0056 -0.3660  0.0268
10663TIP3    H153480   4.716   2.077   2.696  1.1537 -1.1570  0.1062
10663TIP3    H253481   4.654   1.940   2.717 -0.3087 -0.5667 -0.2425
10664TIP3   OH253482   1.693   2.716   2.914  0.0857 -0.3321  0.0200
10664TIP3    H153483   1.617   2.675   2.956 -0.2731 -0.2059 -0.4998
10664TIP3    H253484   1.732   2.770   2.983  0.9586 -2.0593  0.9076
10665TIP3   OH253485   0.017   5.734  14.487  0.1745 -0.4414 -0.2647
10665TIP3    H153486  -0.059   5.788  14.508 -0.3819 -0.5923 -1.7629
10665TIP3    H253487   0.008   5.716  14.393  1.4711 -1.3863 -0.2290
10666TIP3   OH253488   1.475   4.004  13.274  0.3685  0.4315 -0.2249
10666TIP3    H153489   1.464   3.914  13.243  1.4069 -0.4362  1.8608
10666TIP3    H253490   1.398   4.020  13.329  1.5033 -0.1357  1.5664
10667TIP3   OH253491   1.665   0.442   5.065  0.1959  0.1664  0.1201
10667TIP3    H153492   1.682   0.402   5.150 -0.2215  1.2120  0.6984
10667TIP3    H253493   1.608   0.380   5.020  0.9461 -0.6971  0.3399
10668TIP3   OH253494   1.170   4.841   2.051 -0.5193  0.6667 -0.1782
10668TIP3    H153495   1.147   4.806   1.965  0.8063  1.6356 -0.9483
10668TIP3    H253496   1.257   4.805   2.069 -1.5369 -0.9953  1.5946
10669TIP3   OH253497   3.863   1.028   0.803 -0.4091  0.0697  0.0721
10669TIP3    H153498   3.860   0.946   0.755  0.0585 -0.9223  1.6892
10669TIP3    H253499   3.784   1.028   0.857  0.7493 -0.4450  1.8288
10670TIP3   OH253500   5.195   6.527   3.030 -0.0471  0.4179 -0.1596
10670TIP3    H153501   5.105   6.495   3.030 -0.7487  2.2771 -1.7571
10670TIP3    H253502   5.242   6.467   3.087 -2.1714 -0.9468  0.2045
10671TIP3   OH253503   2.148   0.973  12.490  0.0171 -0.5386 -0.4039
10671TIP3    H153504   2.182   0.891  12.453 -0.9542 -1.7877  1.3358
10671TIP3    H253505   2.225   1.016  12.528  0.3499 -1.2557 -0.2559
10672TIP3   OH253506   3.245   3.211  13.122  0.7212 -0.3919  1.0467
10672TIP3    H153507   3.191   3.185  13.047 -0.8793 -0.5436  2.2320
10672TIP3    H253508   3.266   3.303  13.106  0.9215 -0.6017  0.0978
10673TIP3   OH253509   6.281   1.616  13.086 -0.1031 -0.3477 -0.3581
10673TIP3    H153510   6.221   1.574  13.147  2.1583 -2.8709  0.1851
10673TIP3    H253511   6.304   1.699  13.128 -0.1034 -1.1730  1.2981
10674TIP3   OH253512   6.467   4.431  15.606  0.1004  0.1311  0.5422
10674TIP3    H153513   6.507   4.517  15.621  1.0973  0.7153 -4.4945
10674TIP3    H253514   6.374   4.445  15.626  0.2778  2.3890 -0.0285
10675TIP3   OH253515   2.634   1.481   3.974 -0.3661  0.0202  0.4495
10675TIP3    H153516   2.662   1.418   3.907  1.0698 -0.4454  1.4467
10675TIP3    H253517   2.581   1.545   3.927  0.0346 -0.6958 -1.0023
10676TIP3   OH253518   5.221   5.714  11.753 -0.1317  0.4709  0.0607
10676TIP3    H153519   5.307   5.755  11.742 -0.6961  1.7838  0.4728
10676TIP3    H253520   5.234   5.624  11.723  1.3769  0.6595  0.0774
10677TIP3   OH253521   1.791   0.302   2.189 -0.2021 -0.3160 -0.0234
10677TIP3    H153522   1.843   0.267   2.116  0.7519  1.3579 -0.1710
10677TIP3    H253523   1.730   0.364   2.147  0.4120  0.7189  0.6107
10678TIP3   OH253524   2.869   1.294   4.184  0.3859  0.6539 -0.2026
10678TIP3    H153525   2.825   1.330   4.261 -0.4065  0.7459 -0.6887
10678TIP3    H253526   2.915   1.369   4.146  0.3371  0.7276 -0.1181
10679TIP3   OH253527   3.857   4.349   2.938  0.2780 -0.1535 -0.5865
10679TIP3    H153528   3.820   4.285   2.998  3.1632 -2.1817 -0.8954
10679TIP3    H253529   3.832   4.434   2.975 -2.9780 -1.4176  0.1975
10680TIP3   OH253530   6.802   5.390  13.711  0.2136 -0.0259 -0.0711
10680TIP3    H153531   6.824   5.301  13.685 -0.9848 -0.7199  1.2483
10680TIP3    H253532   6.762   5.381  13.797 -0.2134  1.7553 -0.0681
10681TIP3   OH253533   1.274   1.751  12.643 -0.2422  0.4944  0.1473
10681TIP3    H153534   1.330   1.782  12.713  0.1940 -0.0594  0.0486
10681TIP3    H253535   1.242   1.666  12.674  1.4469 -0.6385 -1.0991
10682TIP3   OH253536   3.155   2.149  15.283 -0.6566 -0.5934 -0.1641
10682TIP3    H153537   3.121   2.206  15.353  1.8940 -0.2555  0.8676
10682TIP3    H253538   3.083   2.090  15.263 -2.5997  1.5327  0.3614
10683TIP3   OH253539   2.540   3.455  14.186 -0.1364 -0.3927 -0.0473
10683TIP3    H153540   2.536   3.383  14.122 -0.9438  0.1310 -0.5968
10683TIP3    H253541   2.458   3.447  14.235 -0.6530  0.7248 -0.7282
10684TIP3   OH253542   1.599   2.501   1.480 -0.3791 -0.2493 -0.1037
10684TIP3    H153543   1.671   2.555   1.512  0.6576 -0.4012 -2.0961
10684TIP3    H253544   1.548   2.559   1.423 -1.8371 -0.1441  1.2845
10685TIP3   OH253545   4.719   5.892   4.814 -0.3703 -0.2579  0.1684
10685TIP3    H153546   4.688   5.811   4.854 -0.7138  0.1628  0.7661
10685TIP3    H253547   4.791   5.921   4.870 -1.3036  0.6990  0.8986
10686TIP3   OH253548   1.806   6.142   2.377 -0.1604 -0.3778 -0.1924
10686TIP3    H153549   1.766   6.075   2.433  3.0132 -2.1018  0.1344
10686TIP3    H253550   1.863   6.191   2.436  0.2665  0.2851 -1.1521
10687TIP3   OH253551   5.858   4.817   1.276 -0.0762 -0.5669  0.6889
10687TIP3    H153552   5.882   4.908   1.256  1.4711 -1.1665 -0.2410
10687TIP3    H253553   5.827   4.820   1.366 -1.4876  1.1434  0.1864
10688TIP3   OH253554   4.229   3.859  15.756 -0.3599 -0.0231  0.0085
10688TIP3    H153555   4.262   3.865  15.845 -0.3030 -1.2142  0.0737
10688TIP3    H253556   4.306   3.845  15.701 -0.5206 -0.5387 -0.0900
10689TIP3   OH253557   0.085   3.946   5.668  0.3555 -0.3214  0.9610
10689TIP3    H153558   0.138   4.024   5.653 -2.3088  1.1459 -1.4485
10689TIP3    H253559   0.054   3.955   5.758  1.0478  0.7654  1.1016
10690TIP3   OH253560   4.480   0.518  15.177 -0.4285 -0.2449  0.8490
10690TIP3    H153561   4.567   0.555  15.193 -0.0335 -1.1940  0.9424
10690TIP3    H253562   4.430   0.590  15.138  0.7899 -0.0792 -0.4552
10691TIP3   OH253563   6.276   1.904  13.706  0.3335  0.1135 -0.1565
10691TIP3    H153564   6.186   1.873  13.710  0.0140  1.1691  1.5809
10691TIP3    H253565   6.327   1.826  13.683 -0.9096 -0.7446 -0.0694
10692TIP3   OH253566   5.233   3.983  15.145 -0.5907 -0.0777 -0.2846
10692TIP3    H153567   5.155   4.038  15.146 -0.5550 -0.0314 -0.0871
10692TIP3    H253568   5.290   4.022  15.210 -0.2710  0.0734 -0.6519
10693TIP3   OH253569   0.205   6.779  11.553 -0.3027  0.0219  0.2896
10693TIP3    H153570   0.168   6.732  11.478 -0.5347 -0.3080  0.6104
10693TIP3    H253571   0.193   6.719  11.627 -2.4787  1.4007  1.1107
10694TIP3   OH253572   6.660   6.016  12.777 -0.2781  0.1836 -0.2145
10694TIP3    H153573   6.639   5.949  12.841 -0.2901 -0.5075 -0.9354
10694TIP3    H253574   6.645   6.099  12.823  0.7796 -0.2902  1.0225
10695TIP3   OH253575   2.299   2.088  13.840  0.3718 -0.6857 -0.2460
10695TIP3    H153576   2.317   2.004  13.797  5.1430 -0.3653  0.8317
10695TIP3    H253577   2.386   2.124  13.859 -1.5588  3.9609  0.4050
10696TIP3   OH253578   5.109   2.880   3.638  0.2312 -0.6657 -0.0347
10696TIP3    H153579   5.139   2.885   3.547 -0.8050  0.1627 -0.3369
10696TIP3    H253580   5.092   2.786   3.652  2.5047 -1.0856  0.0074
10697TIP3   OH253581   5.882   3.505  13.471  0.5778 -0.1322 -0.1985
10697TIP3    H153582   5.828   3.493  13.393 -0.7726 -0.0738  0.7164
10697TIP3    H253583   5.968   3.470  13.446 -0.2999 -1.6566 -1.1738
10698TIP3   OH253584   6.771   5.694   1.692  0.2124 -0.9042 -0.0616
10698TIP3    H153585   6.792   5.613   1.739 -0.2791 -0.0919  1.6041
10698TIP3    H253586   6.800   5.764   1.751  0.8341  0.1478 -1.5725
10699TIP3   OH253587   1.201   5.474  13.463  0.3582 -0.6851 -0.0285
10699TIP3    H153588   1.210   5.389  13.420 -0.1155 -0.0202 -1.4725
10699TIP3    H253589   1.129   5.462  13.525  0.2935 -1.3409 -0.2243
10700TIP3   OH253590   0.072   2.730  13.622  0.6344 -0.4863  0.3603
10700TIP3    H153591   0.059   2.638  13.598 -3.3849 -0.0801  0.5942
10700TIP3    H253592   0.056   2.733  13.716  1.3106  0.3864  0.4592
10701TIP3   OH253593   6.529   5.538  11.982 -0.1135 -0.1468 -0.1880
10701TIP3    H153594   6.474   5.524  11.905  0.0264 -3.8145  0.3152
10701TIP3    H253595   6.614   5.566  11.946 -1.1172  1.7917 -1.1338
10702TIP3   OH253596   5.869   5.730  11.603 -0.2559 -0.9050 -0.3387
10702TIP3    H153597   5.791   5.743  11.658  0.7309  1.6524  0.5234
10702TIP3    H253598   5.859   5.793  11.532  0.9526 -0.6322 -0.2811
10703TIP3   OH253599   4.689   4.926   4.063 -0.2811  0.2635 -0.0879
10703TIP3    H153600   4.691   4.915   4.158  2.1600  0.9906 -0.0121
10703TIP3    H253601   4.727   5.013   4.048  2.1360 -1.0176 -1.8403
10704TIP3   OH253602   1.798   1.272   2.715  0.0239  0.0527  0.0738
10704TIP3    H153603   1.867   1.213   2.685  0.6434  1.2210 -0.8296
10704TIP3    H253604   1.749   1.294   2.635  0.6782  1.8823  0.1576
10705TIP3   OH253605   6.481   1.973   5.956 -0.3612  0.2748 -0.4656
10705TIP3    H153606   6.446   2.039   5.896 -0.3562  0.5410 -0.1798
10705TIP3    H253607   6.470   2.012   6.043 -1.2569 -0.5133 -0.2184
10706TIP3   OH253608   3.941   4.275  14.393 -0.2018 -0.2665  0.1496
10706TIP3    H153609   4.020   4.302  14.440 -0.6394 -1.2165  1.4623
10706TIP3    H253610   3.946   4.321  14.309  2.4189 -1.3643 -0.3374
10707TIP3   OH253611   1.212   3.436  14.500 -0.0209  0.0551  0.6132
10707TIP3    H153612   1.243   3.388  14.577 -2.4203  0.6909  2.0290
10707TIP3    H253613   1.250   3.523  14.509  0.2867 -0.0915  0.7145
10708TIP3   OH253614   2.423   1.867  12.158 -0.3710  0.1481  0.4290
10708TIP3    H153615   2.338   1.838  12.125 -1.1077  1.5243  1.0730
10708TIP3    H253616   2.452   1.934  12.096 -0.2281  0.4004  0.7654
10709TIP3   OH253617   5.310   5.513   5.975 -0.7025  0.2862  0.2687
10709TIP3    H153618   5.272   5.427   5.961  0.1374  0.0530 -0.6461
10709TIP3    H253619   5.391   5.497   6.024 -2.0604  0.8298  2.7197
10710TIP3   OH253620   0.794   4.621   2.736 -0.2535  0.2632  0.1580
10710TIP3    H153621   0.772   4.601   2.645 -1.1772  1.3438  0.1345
10710TIP3    H253622   0.710   4.637   2.779  0.3167  2.6856  0.4711
10711TIP3   OH253623   1.692   0.980   5.621  0.1602  0.7370 -0.5501
10711TIP3    H153624   1.679   1.069   5.589 -2.1973  0.3556 -0.8033
10711TIP3    H253625   1.664   0.982   5.713 -2.8305 -0.3215 -1.3530
10712TIP3   OH253626   1.307   2.814   0.654  0.5328  0.6357 -0.1034
10712TIP3    H153627   1.292   2.734   0.604  1.2425 -0.4547  1.3849
10712TIP3    H253628   1.401   2.829   0.647  0.4775  1.0450  0.0530
10713TIP3   OH253629   3.697   3.667   3.886 -0.3817  0.4538 -0.4011
10713TIP3    H153630   3.708   3.593   3.826 -0.6710  0.3063 -0.2731
10713TIP3    H253631   3.637   3.726   3.840 -1.0180  0.0968 -0.0342
10714TIP3   OH253632   6.712   3.167  12.135 -0.0424  0.4135  0.4589
10714TIP3    H153633   6.743   3.252  12.167  0.2113  0.4716  0.0649
10714TIP3    H253634   6.708   3.177  12.039 -1.2464  0.3950  0.4947
10715TIP3   OH253635   0.383   5.578  15.976 -0.4166  0.0908 -0.2347
10715TIP3    H153636   0.442   5.526  15.920 -0.4015  0.2775 -0.3934
10715TIP3    H253637   0.385   5.534  16.061 -1.7433 -1.1753 -0.8469
10716TIP3   OH253638   1.730   1.847   4.116  0.1682 -0.4137 -0.4261
10716TIP3    H153639   1.821   1.851   4.089  0.2408  2.2215  0.1331
10716TIP3    H253640   1.686   1.803   4.043  1.7480 -1.0172 -1.0372
10717TIP3   OH253641   5.239   2.073   1.768  0.3419  0.0317  0.5534
10717TIP3    H153642   5.245   2.161   1.806 -0.9644  0.1550  0.5069
10717TIP3    H253643   5.250   2.087   1.674  2.4551 -0.1385  0.7701
10718TIP3   OH253644   1.883   0.790   5.617  0.4408 -0.0432 -0.2267
10718TIP3    H153645   1.812   0.854   5.613 -0.1035 -0.4711  1.8334
10718TIP3    H253646   1.938   0.810   5.542 -0.8825  1.4599 -0.8240
10719TIP3   OH253647   0.391   1.974  14.404 -0.5207  0.0088  0.1611
10719TIP3    H153648   0.334   2.032  14.455 -0.1799  0.8403 -0.4058
10719TIP3    H253649   0.333   1.903  14.376 -1.0805  0.3963  0.3271
10720TIP3   OH253650   5.703   2.762  15.969 -0.7150  0.6146 -0.4332
10720TIP3    H153651   5.706   2.708  15.889 -0.2933 -0.3139  0.1925
10720TIP3    H253652   5.650   2.838  15.945 -0.5429  0.3733 -1.6171
10721TIP3   OH253653   3.216   5.032   5.005  0.0805  0.3477  0.4708
10721TIP3    H153654   3.171   4.956   5.042  2.2710 -0.7615  0.9163
10721TIP3    H253655   3.163   5.057   4.930 -0.0792 -2.3141 -0.3457
10722TIP3   OH253656   4.407   2.539  16.082 -0.2847 -0.7578  0.0258
10722TIP3    H153657   4.344   2.525  16.152 -0.0748 -0.3731  0.2895
10722TIP3    H253658   4.492   2.543  16.127 -0.1069 -0.9285 -0.2912
10723TIP3   OH253659   1.895   1.632  17.065  0.3408 -0.3248  0.4076
10723TIP3    H153660   1.924   1.705  17.011 -1.3546 -0.7704 -1.1479
10723TIP3    H253661   1.916   1.554  17.014 -2.3658 -0.7061 -0.1746
10724TIP3   OH253662   0.817   0.057  16.326  0.1940  0.6807  0.0972
10724TIP3    H153663   0.816   0.140  16.280 -0.7389  0.7271  0.1962
10724TIP3    H253664   0.758   0.069  16.400  0.4908  0.1130  0.4332
10725TIP3   OH253665   4.184   1.911  16.507 -0.3114  0.6833 -0.3462
10725TIP3    H153666   4.142   1.995  16.526  1.3637  1.6878 -0.9458
10725TIP3    H253667   4.206   1.875  16.593  1.3755  2.1451 -0.1365
10726TIP3   OH253668   5.535   5.649   2.229  0.1498  0.1133  0.1087
10726TIP3    H153669   5.540   5.656   2.324 -1.1081 -0.7285  0.2558
10726TIP3    H253670   5.495   5.732   2.201 -0.4359 -0.0536  0.4257
10727TIP3   OH253671   3.258   0.308   2.368  0.6244  0.0864 -0.8079
10727TIP3    H153672   3.278   0.215   2.376  0.5611 -0.0329 -1.9901
10727TIP3    H253673   3.336   0.347   2.329  0.7535  0.5740 -0.0682
10728TIP3   OH253674   5.130   0.101  12.839  0.0389  0.3204 -0.0818
10728TIP3    H153675   5.183   0.172  12.803  0.1065 -0.2468 -1.1120
10728TIP3    H253676   5.113   0.043  12.765 -1.7061  0.2958  0.2985
10729TIP3   OH253677   3.207   1.294   3.511  0.6747 -0.0670  0.0785
10729TIP3    H153678   3.298   1.303   3.539  1.0213  0.0031 -1.0314
10729TIP3    H253679   3.207   1.219   3.452  0.1715  0.4404 -0.5751
10730TIP3   OH253680   0.859   0.491  13.165 -0.3262 -0.3550  0.4417
10730TIP3    H153681   0.777   0.465  13.208 -1.9688  2.6434 -0.6852
10730TIP3    H253682   0.918   0.513  13.237 -0.7150 -1.9574  1.2712
10731TIP3   OH253683   4.229   0.694  16.290 -0.1050  0.5453  0.1958
10731TIP3    H153684   4.301   0.640  16.323 -0.0788  2.0319  2.7547
10731TIP3    H253685   4.265   0.738  16.213  1.7178  1.1547  1.3598
10732TIP3   OH253686   3.405   1.792   3.675  0.1883  0.1805 -0.9190
10732TIP3    H153687   3.385   1.772   3.584  1.7565 -0.4712 -1.1298
10732TIP3    H253688   3.326   1.765   3.723  0.3904 -1.9944 -1.7513
10733TIP3   OH253689   4.841   6.317  13.259 -0.3160 -0.2233  0.1520
10733TIP3    H153690   4.905   6.388  13.263 -0.6574  0.0903  0.0965
10733TIP3    H253691   4.892   6.240  13.236 -0.0657  0.1725 -0.6461
10734TIP3   OH253692   3.142   0.426   6.826 -0.6446  0.5015 -0.0574
10734TIP3    H153693   3.086   0.467   6.891 -2.5644 -1.9104 -0.0857
10734TIP3    H253694   3.110   0.460   6.742  0.5778  2.1518  0.1258
10735TIP3   OH253695   2.242   1.712   1.105  0.2238 -0.0609  0.3862
10735TIP3    H153696   2.276   1.798   1.131 -0.5032  0.6467 -0.9669
10735TIP3    H253697   2.245   1.660   1.185  1.4837  0.9599  1.0194
10736TIP3   OH253698   0.869   0.681   6.284  0.5566 -0.0899 -0.1643
10736TIP3    H153699   0.873   0.756   6.343  0.5697 -1.1588  1.2076
10736TIP3    H253700   0.845   0.607   6.340  0.7338 -1.1542 -1.4643
10737TIP3   OH253701   4.574   2.826  14.958  1.2064  0.1053 -0.1532
10737TIP3    H153702   4.620   2.909  14.975  0.9035  0.1780  0.3255
10737TIP3    H253703   4.644   2.765  14.935  1.4368  0.4834 -0.4672
10738TIP3   OH253704   4.792   6.210   1.342 -0.1046 -0.4716 -0.1111
10738TIP3    H153705   4.720   6.189   1.402  0.4435 -0.8154  0.4296
10738TIP3    H253706   4.839   6.282   1.385  0.2395 -0.6636 -0.1625
10739TIP3   OH253707   1.954   0.876   0.035  0.3223 -0.4262  0.2022
10739TIP3    H153708   2.007   0.900  -0.041 -0.1554  0.9647  0.2986
10739TIP3    H253709   1.982   0.787   0.056  0.3375 -0.8869 -1.7024
10740TIP3   OH253710   3.314   3.191  16.290 -0.1470 -0.4083 -0.2850
10740TIP3    H153711   3.248   3.136  16.248  1.3251 -3.0043  0.6840
10740TIP3    H253712   3.386   3.195  16.227  0.4674 -1.0860  0.3541
10741TIP3   OH253713   3.807   4.310   6.127  0.0364  0.0228 -0.1580
10741TIP3    H153714   3.725   4.348   6.158  0.1015 -0.6920  0.9156
10741TIP3    H253715   3.799   4.217   6.146  0.9547 -0.0992 -0.3517
10742TIP3   OH253716   6.093   5.318   0.868  0.1100  0.0679  0.0770
10742TIP3    H153717   6.127   5.246   0.921 -1.3244 -1.5727 -1.1956
10742TIP3    H253718   5.998   5.307   0.869 -0.1079  1.6422 -0.5712
10743TIP3   OH253719   2.294   3.843   3.324  0.6804 -0.1956 -0.2073
10743TIP3    H153720   2.230   3.824   3.393  0.5796  1.6357  0.2510
10743TIP3    H253721   2.376   3.857   3.371  0.5439  1.3609 -0.4050
10744TIP3   OH253722   0.390   4.211  11.901 -0.0456 -0.4008 -0.2066
10744TIP3    H153723   0.329   4.139  11.886  1.6678 -2.0441  0.3857
10744TIP3    H253724   0.348   4.266  11.967 -1.3919 -0.8201 -0.7011
10745TIP3   OH253725   4.615   0.648  11.538 -0.8637 -0.0068 -0.1966
10745TIP3    H153726   4.639   0.648  11.445  2.6756  0.1897  0.6250
10745TIP3    H253727   4.669   0.580  11.576 -2.1948  0.0143  1.7574
10746TIP3   OH253728   1.021   2.527   1.878 -0.1250  0.1728 -0.1091
10746TIP3    H153729   1.111   2.495   1.885  0.1249  0.9083  0.0649
10746TIP3    H253730   0.974   2.456   1.834  0.1635 -0.9111  1.3208
10747TIP3   OH253731   0.654   3.987   3.394  0.3331 -0.3067  0.4412
10747TIP3    H153732   0.635   3.918   3.458  0.7736 -0.4116  0.4645
10747TIP3    H253733   0.715   4.045   3.441  0.4666 -0.2540  0.2019
10748TIP3   OH253734   5.352   1.230   0.248  0.5609 -0.5348 -0.7730
10748TIP3    H153735   5.335   1.263   0.160  0.6682 -0.3934 -0.7417
10748TIP3    H253736   5.427   1.172   0.237  0.5021 -0.6065 -0.7938
10749TIP3   OH253737   0.314   5.809  12.948 -0.3248 -0.1942  0.6407
10749TIP3    H153738   0.292   5.896  12.917  0.8520  0.1808  0.8245
10749TIP3    H253739   0.323   5.819  13.043 -3.2666 -1.1875  1.0490
10750TIP3   OH253740   4.865   4.496  15.987  0.8863 -0.0700  0.5424
10750TIP3    H153741   4.957   4.492  16.011  1.1008  1.2343 -0.0345
10750TIP3    H253742   4.823   4.432  16.045  1.9268  0.4225  1.8772
10751TIP3   OH253743   4.072   6.775   2.721 -0.1292  0.2332 -0.4013
10751TIP3    H153744   4.085   6.681   2.734 -1.4766  0.2222  0.9864
10751TIP3    H253745   4.016   6.801   2.794 -0.2963  1.9924 -1.1560
10752TIP3   OH253746   5.771   3.462  15.774 -0.5800 -0.0033 -0.4943
10752TIP3    H153747   5.848   3.459  15.831 -1.2249 -0.2589  0.3696
10752TIP3    H253748   5.806   3.452  15.686  0.4640  0.7729 -0.1740
10753TIP3   OH253749   0.096   6.811  13.542  0.2074 -0.1069 -0.1601
10753TIP3    H153750   0.068   6.858  13.621  1.2230  0.4783 -0.1379
10753TIP3    H253751   0.062   6.864  13.469  1.6851  0.8757 -0.1393
10754TIP3   OH253752   2.619   0.617   5.653 -0.0582 -0.0796 -0.0238
10754TIP3    H153753   2.613   0.712   5.645  2.7504 -0.0782 -2.8499
10754TIP3    H253754   2.704   0.601   5.693  0.1891 -1.4436 -1.0450
10755TIP3   OH253755   2.007   3.673   1.731 -0.3606  0.4398  0.1720
10755TIP3    H153756   1.919   3.701   1.705 -0.5273 -1.7305 -1.7475
10755TIP3    H253757   1.991   3.604   1.796 -0.1483 -0.8144 -1.0719
10756TIP3   OH253758   1.142   4.840   0.954  0.1665  0.1523 -0.0959
10756TIP3    H153759   1.151   4.831   0.859  1.8497  1.5542 -0.0933
10756TIP3    H253760   1.207   4.778   0.989  0.4486  0.5736  0.1211
10757TIP3   OH253761   6.503   5.834   3.025  0.4037  0.1118 -0.1771
10757TIP3    H153762   6.539   5.827   3.113 -0.6851  0.3935  0.3083
10757TIP3    H253763   6.533   5.919   2.993  0.5922  0.1208  0.0286
10758TIP3   OH253764   4.859   6.520  14.326  0.5968  0.2965  0.2938
10758TIP3    H153765   4.909   6.457  14.378 -1.8371 -0.9119  1.2657
10758TIP3    H253766   4.923   6.556  14.264  2.3249 -2.2395  0.5212
10759TIP3   OH253767   3.292   1.924  13.267 -0.2247  0.0703  0.5618
10759TIP3    H153768   3.255   1.842  13.234 -2.2325  0.4426  1.7407
10759TIP3    H253769   3.325   1.969  13.190  0.8066 -1.7830 -0.1189
10760TIP3   OH253770   3.046   5.525  14.948 -0.7895  0.0370 -0.0106
10760TIP3    H153771   3.079   5.493  15.032 -1.3485  1.1197  0.6398
10760TIP3    H253772   2.965   5.476  14.934 -1.7102  1.1864  1.0436
10761TIP3   OH253773   4.229   4.894   0.741 -0.4170  0.0373 -0.2471
10761TIP3    H153774   4.261   4.916   0.653 -0.2175 -0.2322 -0.2436
10761TIP3    H253775   4.134   4.884   0.730 -0.5974  1.5486 -0.1132
10762TIP3   OH253776   4.210   1.054  16.625  0.0155  0.3130  0.5933
10762TIP3    H153777   4.151   1.020  16.558  1.5091 -0.9016 -0.1564
10762TIP3    H253778   4.202   1.149  16.619 -0.5848  0.1832 -0.6599
10763TIP3   OH253779   2.251   1.925   0.570 -0.2745  0.6843  0.1483
10763TIP3    H153780   2.315   1.992   0.594  0.8987 -0.5292  0.4709
10763TIP3    H253781   2.217   1.893   0.653  0.9140 -0.7800  0.0752
10764TIP3   OH253782   5.592   1.124  12.739  0.3996 -0.2756  0.2198
10764TIP3    H153783   5.561   1.215  12.734  0.4173 -0.2133  1.2107
10764TIP3    H253784   5.685   1.129  12.717  0.2784 -0.1305 -0.2736
10765TIP3   OH253785   4.998   4.613   3.029 -0.5167  0.0607  0.2405
10765TIP3    H153786   5.042   4.694   3.056 -0.0105  0.2169 -1.0046
10765TIP3    H253787   4.907   4.639   3.016 -0.0595  0.8197 -1.6799
10766TIP3   OH253788   6.600   4.040  17.230 -0.4705 -0.1767  0.1440
10766TIP3    H153789   6.607   4.075  17.141 -1.7765 -0.2211  0.0027
10766TIP3    H253790   6.685   4.056  17.269 -0.2928  1.0253 -0.6912
10767TIP3   OH253791   3.645   1.504  16.204 -0.4219  0.2008  0.2827
10767TIP3    H153792   3.651   1.578  16.144 -0.0582  0.3413  0.4917
10767TIP3    H253793   3.590   1.441  16.157 -1.1610  0.8075  0.3237
10768TIP3   OH253794   1.250   3.687  16.273 -0.3126 -0.4606  0.3340
10768TIP3    H153795   1.287   3.759  16.323  0.5683 -0.0964 -0.7979
10768TIP3    H253796   1.268   3.710  16.182  2.4397 -3.3662  0.0332
10769TIP3   OH253797   4.979   1.423   2.470 -0.1310  0.1157  0.3015
10769TIP3    H153798   5.015   1.335   2.484 -1.4973 -0.2637  1.4861
10769TIP3    H253799   5.002   1.471   2.549  1.7741  1.2502 -0.8985
10770TIP3   OH253800   1.075   3.988   1.992  0.4656 -0.1078  0.3432
10770TIP3    H153801   0.997   4.032   2.025  1.0797 -0.0314  1.7423
10770TIP3    H253802   1.042   3.912   1.945 -0.4909  0.4902  0.0325
10771TIP3   OH253803   0.833   5.354   3.042  0.1362  0.2816 -0.0941
10771TIP3    H153804   0.741   5.358   3.018  0.3358  2.8214 -0.5456
10771TIP3    H253805   0.876   5.315   2.966 -0.0895  2.4321 -1.3585
10772TIP3   OH253806   0.005   1.696  12.380  0.2129 -0.1970  0.1319
10772TIP3    H153807  -0.083   1.725  12.405  0.5249  1.8221 -0.9981
10772TIP3    H253808   0.062   1.731  12.448  0.3031 -0.3349  0.1282
10773TIP3   OH253809   5.096   6.090   2.289  0.0106  0.2380  0.2925
10773TIP3    H153810   5.061   6.013   2.246  1.0218  1.1565 -2.2452
10773TIP3    H253811   5.191   6.080   2.284  0.1474  0.7047  1.6994
10774TIP3   OH253812   6.552   0.919  11.997 -0.0395 -0.0343 -0.0751
10774TIP3    H153813   6.589   0.892  12.081 -0.5210 -1.1773 -0.2188
10774TIP3    H253814   6.596   1.002  11.976  1.4981 -0.7345  0.3586
10775TIP3   OH253815   3.998   2.370   5.165 -0.3566  0.2514  0.1762
10775TIP3    H153816   4.092   2.353   5.175 -0.6443 -1.4611  0.0793
10775TIP3    H253817   3.979   2.348   5.074 -1.0248 -0.3342  0.4495
10776TIP3   OH253818   6.132   2.721   2.802 -0.7384 -0.5803  0.4236
10776TIP3    H153819   6.091   2.646   2.845 -0.7975  0.6478  2.5661
10776TIP3    H253820   6.065   2.789   2.802  0.0200  0.1766  0.4505
10777TIP3   OH253821   3.922   2.251   0.692 -0.4816 -0.8241  0.1602
10777TIP3    H153822   3.899   2.161   0.713 -0.9979 -0.6999  0.1259
10777TIP3    H253823   3.843   2.301   0.709 -0.6645 -0.6039 -1.3016
10778TIP3   OH253824   0.781   0.628  16.427  0.0904 -0.2959 -0.2789
10778TIP3    H153825   0.827   0.615  16.344  0.8913  2.9177 -0.3899
10778TIP3    H253826   0.849   0.623  16.494 -0.0529  0.2608 -0.0866
10779TIP3   OH253827   6.704   4.867  16.339  0.1027 -0.4724  0.1711
10779TIP3    H153828   6.714   4.857  16.434 -0.9589 -0.6231  0.2787
10779TIP3    H253829   6.612   4.847  16.323  0.1088  0.2355 -0.8086
10780TIP3   OH253830   0.728   0.333  15.018 -0.3203  0.0729  0.1649
10780TIP3    H153831   0.760   0.411  14.974  0.5627 -0.8099 -0.7731
10780TIP3    H253832   0.665   0.295  14.956 -0.1569 -0.3922  0.2853
10781TIP3   OH253833   6.359   1.431   0.202 -0.0642  0.1278  0.0790
10781TIP3    H153834   6.280   1.422   0.254  0.3379  0.1868  0.7115
10781TIP3    H253835   6.355   1.360   0.139  0.7556 -1.6219  1.9478
10782TIP3   OH253836   0.300   1.924  12.343 -0.5663 -0.3096 -0.2024
10782TIP3    H153837   0.253   1.932  12.426 -2.1929 -0.9581 -1.0355
10782TIP3    H253838   0.339   1.837  12.345  1.8532  0.7663  1.1044
10783TIP3   OH253839   5.686   5.251   0.247 -0.0870 -0.1302 -0.5176
10783TIP3    H153840   5.732   5.184   0.196  0.0133 -0.1931 -0.3485
10783TIP3    H253841   5.701   5.332   0.199 -0.3128 -0.2481 -0.7913
10784TIP3   OH253842   6.172   6.635   1.387 -0.1332 -0.2024  0.0038
10784TIP3    H153843   6.136   6.547   1.382 -2.2524  0.5326  1.6204
10784TIP3    H253844   6.108   6.690   1.342 -0.0756  0.8519  1.1798
10785TIP3   OH253845   1.088   3.694  13.885 -0.0966  0.1643  0.2956
10785TIP3    H153846   1.174   3.731  13.902  0.4022 -0.8125 -0.0776
10785TIP3    H253847   1.055   3.669  13.971  0.3902 -0.3210  0.3452
10786TIP3   OH253848   1.564   3.613  14.309 -0.4545 -0.3344 -0.2934
10786TIP3    H153849   1.653   3.634  14.336 -0.4495 -0.1278 -0.4722
10786TIP3    H253850   1.563   3.518  14.304 -0.2716 -0.3425 -0.2011
10787TIP3   OH253851   3.137   2.722   5.862  0.4784 -0.2620  0.3973
10787TIP3    H153852   3.155   2.634   5.829 -0.8282 -1.4110  2.6474
10787TIP3    H253853   3.221   2.755   5.891  1.1005 -0.4597 -1.1278
10788TIP3   OH253854   3.203   2.168   0.509 -0.3995 -0.4411  0.0690
10788TIP3    H153855   3.230   2.215   0.589  0.0600 -2.1813  0.9686
10788TIP3    H253856   3.285   2.153   0.462 -0.5664 -0.1892 -0.2993
10789TIP3   OH253857   3.072   4.565   5.267  0.4928 -0.1267  0.0455
10789TIP3    H153858   2.977   4.579   5.267  0.2425 -1.5518 -2.0735
10789TIP3    H253859   3.109   4.650   5.244 -0.2689  0.4118  0.7832
10790TIP3   OH253860   4.168   3.252  13.540  0.5246 -0.1158 -0.1104
10790TIP3    H153861   4.084   3.207  13.543  0.5448 -0.1796 -0.4800
10790TIP3    H253862   4.194   3.248  13.448  0.6702  0.3845 -0.0910
10791TIP3   OH253863   2.267   6.263   2.051  0.5240 -0.1646  0.0876
10791TIP3    H153864   2.228   6.288   1.967  0.0088 -0.4770  0.2298
10791TIP3    H253865   2.226   6.321   2.114  0.6578 -0.1569  0.1652
10792TIP3   OH253866   1.425   6.549  12.012  0.0480 -0.0915 -1.0024
10792TIP3    H153867   1.424   6.524  11.920 -2.0851  2.7559 -1.8081
10792TIP3    H253868   1.335   6.576  12.031  1.1470  2.3601  1.0304
10793TIP3   OH253869   4.559   6.138  15.086 -0.2168  0.5130 -0.4806
10793TIP3    H153870   4.653   6.158  15.084  0.0286 -0.5760  0.1278
10793TIP3    H253871   4.524   6.180  15.008  0.7325  1.1495 -0.5719
10794TIP3   OH253872   4.520   5.392  14.900 -0.3433  0.6886  0.0213
10794TIP3    H153873   4.427   5.413  14.896 -0.3530  0.6875  0.2618
10794TIP3    H253874   4.529   5.335  14.976 -0.3036 -0.1266 -0.5800
10795TIP3   OH253875   4.464   5.025  14.962  0.3757  0.0467 -0.0182
10795TIP3    H153876   4.446   5.017  14.868 -0.6762 -1.0212  0.2602
10795TIP3    H253877   4.389   4.983  15.004  0.4701  1.1886  1.3217
10796TIP3   OH253878   3.844   3.196   2.539  0.4787  0.1658  0.5451
10796TIP3    H153879   3.928   3.207   2.494  0.7944 -1.5871  0.6701
10796TIP3    H253880   3.782   3.174   2.469  1.0692 -3.0515  0.9769
10797TIP3   OH253881   3.488   2.889  12.047 -0.1751 -0.3827 -0.3378
10797TIP3    H153882   3.521   2.960  11.990  1.3717 -0.1632  0.7850
10797TIP3    H253883   3.444   2.829  11.987  2.4475 -0.7487 -1.9936
10798TIP3   OH253884   2.394   4.776   3.754  0.3133 -0.3283 -0.0411
10798TIP3    H153885   2.357   4.777   3.842 -0.0231  1.0197 -0.1810
10798TIP3    H253886   2.402   4.684   3.732 -0.2392 -0.6668  1.1394
10799TIP3   OH253887   5.238   4.402   1.065  0.3067 -0.3849  1.2885
10799TIP3    H153888   5.305   4.425   1.130  0.1119  1.6639  0.8064
10799TIP3    H253889   5.158   4.444   1.097 -0.3228 -1.2964  0.9166
10800TIP3   OH253890   3.091   2.946   2.542  0.6946  0.0500 -0.0180
10800TIP3    H153891   3.008   2.993   2.546  0.1154 -1.0714  1.7319
10800TIP3    H253892   3.102   2.926   2.449 -1.7028 -0.9991 -0.1340
10801TIP3   OH253893   6.420   5.756  10.903  0.2191 -0.3626  0.2920
10801TIP3    H153894   6.395   5.711  10.823  1.0358 -0.3854  0.0406
10801TIP3    H253895   6.346   5.812  10.924 -0.1250 -0.5922 -0.3081
10802TIP3   OH253896   4.529   2.538  16.764  0.0144  0.1384  0.3588
10802TIP3    H153897   4.614   2.535  16.721  1.1487  2.0672  2.3671
10802TIP3    H253898   4.483   2.461  16.731  2.1342 -0.3614 -1.5554
10803TIP3   OH253899   5.385   2.508   6.145  0.5735  0.1987 -0.2317
10803TIP3    H153900   5.410   2.465   6.063 -1.3429  1.6502 -1.6237
10803TIP3    H253901   5.289   2.506   6.144  0.5188  1.1249  1.5148
10804TIP3   OH253902   2.355   1.475   5.472 -0.2368 -0.7296  0.5072
10804TIP3    H153903   2.268   1.508   5.494 -1.0019 -1.2933 -1.5237
10804TIP3    H253904   2.409   1.553   5.458 -1.5235 -0.2902 -2.3352
10805TIP3   OH253905   6.539   4.221   0.458  0.2540 -0.2243 -0.7374
10805TIP3    H153906   6.524   4.180   0.373 -0.5280 -0.7228 -0.3621
10805TIP3    H253907   6.567   4.149   0.515  1.4069  0.2193 -0.7273
10806TIP3   OH253908   2.899   4.421   0.363 -0.6332  0.6129 -0.4463
10806TIP3    H153909   2.940   4.339   0.337 -0.1875  0.8030 -0.3410
10806TIP3    H253910   2.951   4.489   0.320  0.8898  0.9977  1.9210
10807TIP3   OH253911   2.701   5.461   4.951 -0.2192  0.0733 -0.0331
10807TIP3    H153912   2.700   5.392   4.884  0.1130 -0.4344  0.4817
10807TIP3    H253913   2.786   5.504   4.941 -0.6293  0.7559 -0.6948
10808TIP3   OH253914   4.927   3.393  10.643  0.0130  0.0425 -0.9248
10808TIP3    H153915   4.936   3.487  10.662 -0.7294 -0.0030 -0.2846
10808TIP3    H253916   4.894   3.390  10.553  0.2716  0.3845 -1.0324
10809TIP3   OH253917   1.173   3.343   1.475  0.4298  0.0975  0.4702
10809TIP3    H153918   1.125   3.263   1.495 -0.7008  0.3831 -1.0181
10809TIP3    H253919   1.161   3.355   1.381  1.8023  1.2386  0.4272
10810TIP3   OH253920   4.782   2.185   3.648  0.0945  0.5648  0.3281
10810TIP3    H153921   4.767   2.102   3.604 -2.2037 -0.2496  2.5411
10810TIP3    H253922   4.755   2.170   3.738  2.9295  2.7330  1.6332
10811TIP3   OH253923   3.462   2.326   5.273 -0.0626  0.2199  0.0398
10811TIP3    H153924   3.421   2.261   5.330  2.3357  0.8635  2.5837
10811TIP3    H253925   3.555   2.303   5.273  0.2646  1.4343 -2.0258
10812TIP3   OH253926   1.024   5.014  15.871 -0.0284 -0.4302  0.6267
10812TIP3    H153927   1.032   4.933  15.920 -0.8505  0.6627  2.6014
10812TIP3    H253928   0.956   5.064  15.916  2.1141  2.4005  0.9144
10813TIP3   OH253929   5.917   5.699  14.639  0.7485 -0.1301 -0.1911
10813TIP3    H153930   5.971   5.632  14.680  0.5522 -0.2624 -0.1546
10813TIP3    H253931   5.843   5.711  14.698 -0.2256 -1.2759 -1.1626
10814TIP3   OH253932   6.284   1.506  12.064  0.0756  0.0815 -0.7298
10814TIP3    H153933   6.282   1.600  12.085 -1.5663 -0.0427 -0.2613
10814TIP3    H253934   6.240   1.465  12.138  1.9138 -1.2027 -0.3158
10815TIP3   OH253935   2.019   5.106  16.325 -0.2991  0.3152  0.2304
10815TIP3    H153936   2.084   5.096  16.256 -2.5718  3.5371 -2.5775
10815TIP3    H253937   2.041   5.189  16.367 -0.8462 -0.0424  1.2322
10816TIP3   OH253938   4.081   0.371   3.869 -0.2917 -0.2133  0.2635
10816TIP3    H153939   4.016   0.420   3.919 -0.9228 -1.3195  0.5424
10816TIP3    H253940   4.029   0.311   3.815  0.4163  0.3029 -1.0178
10817TIP3   OH253941   2.591   1.496  15.125  0.6485 -0.6157  0.4813
10817TIP3    H153942   2.621   1.542  15.047  3.4556 -1.3286  1.0819
10817TIP3    H253943   2.520   1.440  15.094  2.2558 -1.4910 -1.7314
10818TIP3   OH253944   5.951   3.421  16.315 -0.4689  0.0821  0.0087
10818TIP3    H153945   5.953   3.472  16.235  0.2973  1.0669  0.6482
10818TIP3    H253946   6.041   3.393  16.330 -0.6361 -0.2589  0.4207
10819TIP3   OH253947   2.062   0.369   3.585 -0.0058  0.2381 -0.5767
10819TIP3    H153948   2.086   0.291   3.636  1.8107  0.0994 -1.5828
10819TIP3    H253949   1.968   0.361   3.572  0.1031 -1.6573 -0.4168
10820TIP3   OH253950   3.581   5.685  16.256 -0.9701  0.6374 -0.2137
10820TIP3    H153951   3.600   5.759  16.199  0.2105 -0.5518 -1.4004
10820TIP3    H253952   3.598   5.608  16.203  3.1416 -0.5558  2.5813
10821TIP3   OH253953   5.206   3.678   0.707  0.3335  0.4398  0.0123
10821TIP3    H153954   5.270   3.732   0.754  1.1035 -1.1151  0.7654
10821TIP3    H253955   5.259   3.615   0.657 -0.5291  0.9901 -1.6398
10822TIP3   OH253956   3.900   5.275  16.311  0.2876 -0.0863 -0.6132
10822TIP3    H153957   3.814   5.235  16.326  0.8099 -0.0381  3.1161
10822TIP3    H253958   3.954   5.204  16.277 -0.5940 -0.7396 -0.6903
10823TIP3   OH253959   4.957   2.204  13.757  1.1849 -0.2874 -0.5769
10823TIP3    H153960   4.973   2.167  13.844  1.0306  1.8575  0.4069
10823TIP3    H253961   4.886   2.151  13.721  2.0175 -1.9188  0.1480
10824TIP3   OH253962   1.979   6.657  14.481 -0.1062  0.1505  0.2707
10824TIP3    H153963   2.009   6.586  14.423 -0.0982 -0.9860  1.6302
10824TIP3    H253964   2.057   6.682  14.531 -0.6011 -0.4093  1.3478
10825TIP3   OH253965   4.811   6.193  17.287  0.6313  0.2520  0.1060
10825TIP3    H153966   4.872   6.265  17.302  0.3101  0.6016 -0.2846
10825TIP3    H253967   4.781   6.204  17.197 -1.0751  0.8946  0.7451
10826TIP3   OH253968   0.831   3.299   4.888 -0.4529  0.1755 -0.3801
10826TIP3    H153969   0.791   3.229   4.837 -1.5726 -0.0473  0.7854
10826TIP3    H253970   0.785   3.378   4.861  0.3625  0.3808 -1.2096
10827TIP3   OH253971   2.120   5.470   5.687  0.4661  0.7659 -0.8620
10827TIP3    H153972   2.046   5.523   5.715  0.4550  1.7276 -2.6474
10827TIP3    H253973   2.125   5.484   5.592  2.1578 -0.2671 -0.9436
10828TIP3   OH253974   5.446   3.976  16.093 -0.2861 -0.0090  0.2978
10828TIP3    H153975   5.495   3.906  16.136 -1.9181 -0.2613  1.7810
10828TIP3    H253976   5.406   4.026  16.165 -2.3156  0.1064 -0.8754
10829TIP3   OH253977   1.043   1.648   2.999 -0.3455 -0.0148 -0.2020
10829TIP3    H153978   1.132   1.661   2.966 -0.4595  0.1687 -0.4367
10829TIP3    H253979   1.055   1.612   3.087 -0.0352  0.5397 -0.0181
10830TIP3   OH253980   0.325   5.607  11.668  0.4775  0.2513 -0.3350
10830TIP3    H153981   0.413   5.641  11.653  0.5350  0.1787 -0.1630
10830TIP3    H253982   0.269   5.659  11.610  0.7032 -0.0777 -0.8514
10831TIP3   OH253983   2.003   3.992   5.831 -0.1705  0.2473  0.0395
10831TIP3    H153984   2.021   4.042   5.911  1.2182  1.2801 -0.8771
10831TIP3    H253985   2.083   3.940   5.817 -0.1684  0.5017 -0.9690
10832TIP3   OH253986   1.124   6.512  13.343  0.7687  0.2298  0.3126
10832TIP3    H153987   1.130   6.607  13.350  3.1196  0.2273 -1.0081
10832TIP3    H253988   1.065   6.497  13.269 -1.2400  0.5945  1.7945
10833TIP3   OH253989   3.095   0.789   6.206 -0.2823 -0.1844 -0.7949
10833TIP3    H153990   3.087   0.792   6.301  0.4142  1.7845 -0.7882
10833TIP3    H253991   3.070   0.699   6.183  0.7202 -1.0395  1.3425
10834TIP3   OH253992   4.792   0.961  12.451 -0.3459 -0.6233 -0.4221
10834TIP3    H153993   4.851   0.963  12.376  0.8608 -0.7859  0.5048
10834TIP3    H253994   4.844   0.920  12.521 -2.7455 -4.1549 -0.5912
10835TIP3   OH253995   0.946   3.468   5.664  0.3326 -0.3314  0.0213
10835TIP3    H153996   0.981   3.461   5.753  1.2260 -3.2564 -0.5036
10835TIP3    H253997   0.878   3.401   5.660 -1.0750  1.1365 -0.8946
10836TIP3   OH253998   5.430   5.908   1.681  0.1595 -0.5729 -0.2955
10836TIP3    H153999   5.474   5.870   1.605 -0.2080  0.2860 -0.9451
10836TIP3    H254000   5.339   5.877   1.674 -0.0574  0.1318 -0.6352
10837TIP3   OH254001   6.520   0.366  16.771  1.1124 -0.0199 -0.0022
10837TIP3    H154002   6.598   0.422  16.770  1.2535 -0.2091 -1.6768
10837TIP3    H254003   6.470   0.393  16.694 -0.5363  0.1569  1.1194
10838TIP3   OH254004   3.895   2.325  11.577 -0.1361 -0.3392  0.0219
10838TIP3    H154005   3.885   2.309  11.671 -1.7904 -3.4468 -0.6395
10838TIP3    H254006   3.962   2.263  11.549 -0.6004 -0.3270 -1.1232
10839TIP3   OH254007   3.201   3.424   4.443 -0.3476  0.2375  0.4535
10839TIP3    H154008   3.167   3.335   4.444  1.1155 -0.3395 -0.1761
10839TIP3    H254009   3.162   3.463   4.364 -0.9180  0.1360  0.6816
10840TIP3   OH254010   0.772   6.130   3.997 -0.0987 -0.1369  0.0912
10840TIP3    H154011   0.716   6.183   3.941 -0.5422 -1.4439 -0.7074
10840TIP3    H254012   0.823   6.076   3.937  2.3068  1.2761  0.7870
10841TIP3   OH254013   4.325   5.195   6.019  0.5865 -0.4485  0.5806
10841TIP3    H154014   4.415   5.215   5.992 -0.2045  1.2067 -0.8911
10841TIP3    H254015   4.306   5.111   5.978  0.5654  0.4660 -1.3504
10842TIP3   OH254016   3.051   3.258  11.069  0.4655  0.0579 -0.2854
10842TIP3    H154017   3.067   3.164  11.076 -2.7311 -0.4861  0.7643
10842TIP3    H254018   2.956   3.267  11.081  0.8795  3.5361  0.9781
10843TIP3   OH254019   6.707   6.019   0.040  0.0777  0.0040  0.1564
10843TIP3    H154020   6.690   6.009  -0.054 -0.9238  5.0527 -0.3343
10843TIP3    H254021   6.630   5.981   0.083 -1.2870  1.1555 -1.2327
10844TIP3   OH254022   5.167   5.403   0.995  0.2578 -0.1250  0.1557
10844TIP3    H154023   5.261   5.396   1.010  0.2097 -0.9139  0.1234
10844TIP3    H254024   5.144   5.323   0.948 -0.3080  0.3983 -0.4677
10845TIP3   OH254025   4.448   5.609   3.707  0.5745 -0.4819 -0.3407
10845TIP3    H154026   4.463   5.567   3.623  0.4982 -1.6296  0.2075
10845TIP3    H254027   4.446   5.537   3.770  0.2957  0.3319  0.5989
10846TIP3   OH254028   2.223   3.757  14.747  0.0146  0.0268 -0.3233
10846TIP3    H154029   2.170   3.678  14.732 -0.7040  0.9101 -2.6940
10846TIP3    H254030   2.304   3.725  14.787 -0.2829 -1.9175 -1.2341
10847TIP3   OH254031   5.099   6.254   0.632  0.4546 -0.1232  0.3574
10847TIP3    H154032   5.014   6.214   0.613  0.7488 -0.9968  0.8822
10847TIP3    H254033   5.123   6.221   0.718  1.7586 -0.6084 -0.1890
10848TIP3   OH254034   5.690   3.104   6.010  0.3606  0.1526  0.2041
10848TIP3    H154035   5.763   3.102   6.071  0.4147 -1.1146  0.1239
10848TIP3    H254036   5.730   3.118   5.924  0.3315  1.3986  0.3909
10849TIP3   OH254037   5.413   2.951   0.839 -0.1186 -0.3154  0.0262
10849TIP3    H154038   5.446   3.026   0.789  1.2623 -0.6515  0.4137
10849TIP3    H254039   5.374   2.990   0.917 -0.5223  0.0877 -0.3748
10850TIP3   OH254040   5.606   3.993   0.756  0.1177 -0.3620 -0.3336
10850TIP3    H154041   5.570   4.040   0.680 -0.9400 -1.9342 -0.8251
10850TIP3    H254042   5.661   3.925   0.718  0.0740 -0.7643  0.3254
10851TIP3   OH254043   3.176   2.973   0.199 -0.7116 -0.4962 -0.2513
10851TIP3    H154044   3.213   2.917   0.267 -0.5836 -0.0678  0.0363
10851TIP3    H254045   3.148   2.913   0.131  0.2388 -0.8442 -0.3386
10852TIP3   OH254046   5.757   4.922  11.982 -0.2158 -0.1737  0.2020
10852TIP3    H154047   5.790   4.833  11.986  0.0575 -0.0504  0.7646
10852TIP3    H254048   5.706   4.932  12.063 -0.2401  0.1756  0.1445
10853TIP3   OH254049   1.763   3.937  15.182  0.3054 -0.0061  0.3098
10853TIP3    H154050   1.787   3.890  15.262  0.1232 -1.1438 -0.2983
10853TIP3    H254051   1.785   3.877  15.111  0.0181  0.8058 -0.4740
10854TIP3   OH254052   2.362   6.723   3.642  0.2697 -0.0541 -0.4483
10854TIP3    H154053   2.320   6.795   3.690  1.4045 -0.2953  0.9563
10854TIP3    H254054   2.340   6.739   3.550 -0.9364  1.1087  0.0280
10855TIP3   OH254055   3.783   1.425  14.843 -0.8820 -0.2666 -0.1216
10855TIP3    H154056   3.807   1.515  14.865  1.4177 -0.7977 -0.2531
10855TIP3    H254057   3.771   1.382  14.927  1.9623 -0.7840  0.0933
10856TIP3   OH254058   4.075   4.717   1.841  0.5854 -0.0147  0.6440
10856TIP3    H154059   4.099   4.726   1.749 -1.8033  0.3241  0.0239
10856TIP3    H254060   4.141   4.658   1.877  1.3617 -0.4120 -1.3586
10857TIP3   OH254061   6.787   5.165  12.013  0.9510  0.1761  0.0828
10857TIP3    H154062   6.847   5.094  12.034  0.9287 -0.3070 -1.4373
10857TIP3    H254063   6.757   5.146  11.924 -0.7280  0.9236  0.4724
10858TIP3   OH254064   3.913   0.812  14.152  0.2579  0.0643 -0.0314
10858TIP3    H154065   3.879   0.896  14.184  1.2319  0.5452 -0.2218
10858TIP3    H254066   4.001   0.807  14.190  0.6290 -0.3445 -0.9349
10859TIP3   OH254067   1.685   6.409  11.483 -0.6964  0.3306  0.0966
10859TIP3    H154068   1.741   6.470  11.436 -0.4291  0.3009  0.3744
10859TIP3    H254069   1.741   6.372  11.551 -0.6290 -0.8084 -0.5611
10860TIP3   OH254070   1.134   2.918  11.497 -0.1653  0.4417 -0.2889
10860TIP3    H154071   1.131   3.008  11.528 -3.2464 -0.5603  2.6317
10860TIP3    H254072   1.047   2.902  11.461  0.1422 -1.5668 -0.1970
10861TIP3   OH254073   5.133   1.482  14.435  0.4499  0.5517  0.0314
10861TIP3    H154074   5.073   1.555  14.418  3.8007  3.0237 -1.8589
10861TIP3    H254075   5.180   1.507  14.514 -0.9551 -1.4080  1.5491
10862TIP3   OH254076   0.026   6.132  14.261 -0.4010 -0.0024  0.5180
10862TIP3    H154077   0.109   6.098  14.296 -0.0969 -0.4836 -0.6312
10862TIP3    H254078  -0.034   6.057  14.265 -0.3356 -0.0901 -0.0584
10863TIP3   OH254079   4.416   2.087   3.215  0.0152  0.0400  0.4142
10863TIP3    H154080   4.436   1.996   3.237 -0.1625  0.1534  1.0376
10863TIP3    H254081   4.496   2.135   3.236 -0.0291  0.0894  0.4719
10864TIP3   OH254082   4.929   4.202   4.095  0.0682  0.0026  0.4516
10864TIP3    H154083   4.851   4.256   4.101  0.5992  0.7274  0.8418
10864TIP3    H254084   4.921   4.158   4.010 -1.2821 -0.7540  0.9508
10865TIP3   OH254085   5.527   0.430  14.405 -0.1122  0.7305  0.3883
10865TIP3    H154086   5.620   0.432  14.384 -0.3659  2.2117 -0.6496
10865TIP3    H254087   5.509   0.514  14.448 -1.3360  1.2708 -1.1294
10866TIP3   OH254088   5.939   3.938  13.885  0.0658  0.3193 -0.2993
10866TIP3    H154089   5.945   3.844  13.904  2.8086  0.6551  0.6186
10866TIP3    H254090   5.913   3.977  13.969 -0.6946  0.4361 -0.5853
10867TIP3   OH254091   4.794   1.676   1.520 -0.3372 -0.0072  0.1974
10867TIP3    H154092   4.706   1.650   1.548 -0.2369 -2.3055 -1.4592
10867TIP3    H254093   4.824   1.603   1.467  3.1420  0.1307  1.8506
10868TIP3   OH254094   5.709   5.041  13.966 -0.4021 -0.1104  0.2588
10868TIP3    H154095   5.790   5.013  13.925 -1.6162  1.2129 -3.2296
10868TIP3    H254096   5.726   5.131  13.993 -0.2437 -0.3295  0.9001
10869TIP3   OH254097   2.218   3.392   6.601  0.1012  0.0981  0.0320
10869TIP3    H154098   2.220   3.338   6.680 -0.3685  0.6272  0.4089
10869TIP3    H254099   2.133   3.435   6.604 -0.0732 -0.1702 -0.9578
10870TIP3   OH254100   4.359   4.289   6.375 -0.3768 -0.3039  0.1224
10870TIP3    H154101   4.289   4.320   6.318 -1.0030 -0.1801  0.9582
10870TIP3    H254102   4.316   4.234   6.440  0.4123 -0.9533  0.1176
10871TIP3   OH254103   3.056   2.786  12.601  0.0529 -0.1529  0.4998
10871TIP3    H154104   3.075   2.771  12.509 -1.3513  2.1092 -0.1963
10871TIP3    H254105   3.126   2.844  12.631  1.4396 -2.1943  1.3206
10872TIP3   OH254106   6.692   2.347  11.953 -0.1032  0.4720  0.2678
10872TIP3    H154107   6.609   2.300  11.951 -0.5549  1.1081  2.5701
10872TIP3    H254108   6.758   2.281  11.932 -0.8576 -0.8770  1.9836
10873TIP3   OH254109   2.815   2.968  12.149  0.2892  0.1685  0.6317
10873TIP3    H154110   2.760   2.915  12.091 -0.0450  1.3942 -0.2043
10873TIP3    H254111   2.888   2.996  12.094  0.0539  1.2089  0.8356
10874TIP3   OH254112   2.015   0.772  10.865  0.5862  0.2574  0.1931
10874TIP3    H154113   2.035   0.680  10.847  1.1612  0.7008 -1.6065
10874TIP3    H254114   2.090   0.805  10.913  1.8134  0.5449 -1.8609
10875TIP3   OH254115   3.586   0.686  11.879 -0.2624 -0.4191 -0.3216
10875TIP3    H154116   3.506   0.683  11.826 -0.1010 -0.2090 -0.5787
10875TIP3    H254117   3.592   0.778  11.906 -0.6357 -0.6347  0.5099
10876TIP3   OH254118   5.871   6.111   3.319 -0.3799  0.1566  0.0398
10876TIP3    H154119   5.901   6.114   3.410  1.3506  0.1036 -0.5119
10876TIP3    H254120   5.800   6.048   3.320  1.5999 -2.1365  0.8202
10877TIP3   OH254121   3.100   1.157  13.655  0.1931  0.5030  0.5226
10877TIP3    H154122   3.131   1.185  13.569 -0.4397 -2.1757 -0.6307
10877TIP3    H254123   3.176   1.114  13.694 -0.1165 -0.1597  0.4083
10878TIP3   OH254124   4.993   3.835   1.585 -0.2772 -0.2532 -0.5630
10878TIP3    H154125   5.019   3.860   1.674  1.8958 -0.3427 -1.1714
10878TIP3    H254126   4.981   3.918   1.539 -0.8777 -0.2190 -0.3544
10879TIP3   OH254127   0.081   1.128  13.192 -0.1469  0.6682 -0.0395
10879TIP3    H154128   0.162   1.107  13.237 -0.6436  0.4800  0.7891
10879TIP3    H254129   0.078   1.224  13.190 -0.5895  0.6974  1.2263
10880TIP3   OH254130   0.780   0.223   4.717 -0.6009  0.0426  0.4666
10880TIP3    H154131   0.837   0.254   4.647 -0.3370 -1.4914 -0.0334
10880TIP3    H254132   0.827   0.243   4.798  0.6238 -1.0920  0.0646
10881TIP3   OH254133   0.868   5.056  13.446 -0.0586  0.3748 -0.0445
10881TIP3    H154134   0.894   4.964  13.439  0.3436  0.3332  1.7601
10881TIP3    H254135   0.772   5.053  13.453  0.1352 -0.0974  2.6454
10882TIP3   OH254136   2.479   1.224   1.137 -0.6437 -0.6080 -0.0910
10882TIP3    H154137   2.477   1.131   1.159  0.4390 -1.3210 -2.8086
10882TIP3    H254138   2.437   1.230   1.051  0.3041  1.2425 -0.4619
10883TIP3   OH254139   3.055   5.538  13.132  0.0092  0.6448  0.0199
10883TIP3    H154140   3.028   5.599  13.201  1.4517 -0.2350  1.3732
10883TIP3    H254141   3.123   5.585  13.084  1.9253 -0.2983  1.7636
10884TIP3   OH254142   6.816   6.286   0.593 -0.4226  0.0654 -0.7460
10884TIP3    H154143   6.754   6.311   0.524 -1.4976 -1.9710 -0.5508
10884TIP3    H254144   6.788   6.198   0.620  0.0093  0.7958  2.2451
10885TIP3   OH254145   3.856   6.058   1.978 -0.7266  0.4313 -0.3845
10885TIP3    H154146   3.830   5.984   1.923 -0.5672 -0.3705  0.6101
10885TIP3    H254147   3.792   6.126   1.956 -1.4278 -0.2918 -0.6526
10886TIP3   OH254148   2.434   5.137   6.007  0.2428  0.3098 -0.0887
10886TIP3    H154149   2.390   5.134   6.092  0.6965 -1.4159  0.1014
10886TIP3    H254150   2.527   5.140   6.029  0.3613 -0.0956 -0.5397
10887TIP3   OH254151   0.321   2.040   1.790  0.1762  0.2484  0.2590
10887TIP3    H154152   0.373   1.987   1.730 -1.4285 -1.0606 -0.0273
10887TIP3    H254153   0.384   2.097   1.833  1.6968 -0.6127 -0.7796
10888TIP3   OH254154   2.357   0.441  16.030 -0.3490  0.8267  0.0485
10888TIP3    H154155   2.348   0.434  15.935 -0.0773 -1.3488  0.1569
10888TIP3    H254156   2.412   0.517  16.043  0.1952  0.7350 -1.5753
10889TIP3   OH254157   6.746   0.248  14.413 -0.1508  0.2973  0.2824
10889TIP3    H154158   6.822   0.225  14.467 -0.5816  1.1718  1.2889
10889TIP3    H254159   6.780   0.308  14.347  0.2496 -0.2128  0.0274
10890TIP3   OH254160   3.456   2.656   4.914 -0.4453 -0.2938  0.5844
10890TIP3    H154161   3.461   2.747   4.944 -0.7759 -0.4788  1.2154
10890TIP3    H254162   3.430   2.607   4.992 -0.7391 -0.8619  0.1312
10891TIP3   OH254163   2.158   3.690  16.137 -0.4222 -0.1947  0.1407
10891TIP3    H154164   2.242   3.675  16.094 -0.4816  0.2605 -0.1412
10891TIP3    H254165   2.116   3.604  16.138 -0.5834 -0.1491 -1.0817
10892TIP3   OH254166   4.954   0.242   2.404  0.2846 -0.1912  0.6719
10892TIP3    H154167   5.042   0.232   2.369 -0.3558 -1.7905 -0.5626
10892TIP3    H254168   4.929   0.331   2.379  1.4476  0.1865  0.8137
10893TIP3   OH254169   2.413   0.408   6.431 -0.3317 -0.4279 -0.0633
10893TIP3    H154170   2.361   0.362   6.497  0.5647 -0.5483  0.5684
10893TIP3    H254171   2.476   0.459   6.481  0.0703 -0.1696 -0.8178
10894TIP3   OH254172   2.416   4.301  11.640  0.2305 -0.0753  0.4656
10894TIP3    H154173   2.505   4.300  11.677  0.2886 -2.1826  0.3094
10894TIP3    H254174   2.361   4.330  11.712  0.9277  0.3094  0.8546
10895TIP3   OH254175   2.830   5.156   5.385 -0.4285 -0.3329  0.4094
10895TIP3    H154176   2.789   5.241   5.403 -0.1737  0.2988 -1.8642
10895TIP3    H254177   2.923   5.176   5.375 -0.2613 -1.0028  0.6557
10896TIP3   OH254178   3.277   4.867  11.813 -0.4047  0.5378  0.1530
10896TIP3    H154179   3.300   4.817  11.891  1.3840 -1.1160 -1.3660
10896TIP3    H254180   3.195   4.827  11.783  0.3742 -0.7233 -0.3603
10897TIP3   OH254181   2.840   4.529  13.399 -0.9935  0.3092  0.4674
10897TIP3    H154182   2.839   4.436  13.376  3.0010  0.5648 -1.1974
10897TIP3    H254183   2.808   4.532  13.489  1.2655 -3.0368  1.4813
10898TIP3   OH254184   3.995   6.074   5.276  1.0242  0.1684 -0.5950
10898TIP3    H154185   4.020   5.983   5.259 -1.0091 -0.3788 -0.7857
10898TIP3    H254186   4.074   6.124   5.259  2.3033 -1.6085 -0.0545
10899TIP3   OH254187   6.598   3.974  16.023 -0.1714 -0.2153 -0.7955
10899TIP3    H154188   6.566   3.926  16.099 -0.3203  2.3314  0.8112
10899TIP3    H254189   6.533   3.958  15.955 -2.6631  1.4259  1.1238
10900TIP3   OH254190   1.509   6.417   2.486 -0.6285 -0.6434 -0.4196
10900TIP3    H154191   1.484   6.325   2.491 -0.8526 -0.5342  0.6128
10900TIP3    H254192   1.471   6.448   2.404 -0.0710 -1.6121 -1.0475
10901TIP3   OH254193   4.326   3.132   4.560  0.3104  0.1299 -0.3163
10901TIP3    H154194   4.319   3.113   4.653  0.4104  0.1741 -0.2995
10901TIP3    H254195   4.417   3.159   4.547  0.3608 -0.1168 -0.4727
10902TIP3   OH254196   1.076   0.092   6.011  1.0551 -0.5373  0.4541
10902TIP3    H154197   1.004   0.045   6.054 -0.7357  2.0060  0.3431
10902TIP3    H254198   1.155   0.050   6.046 -0.4354 -2.7995  1.2716
10903TIP3   OH254199   1.499   3.995   5.665 -0.1340  0.0653 -0.0712
10903TIP3    H154200   1.432   3.958   5.724 -0.5046  1.0565  0.1430
10903TIP3    H254201   1.451   4.058   5.611  0.6148  0.7819  0.0809
10904TIP3   OH254202   2.100   2.111  12.307 -0.3824 -0.3772  0.2653
10904TIP3    H154203   2.057   2.196  12.300  1.9893  0.9755  1.4567
10904TIP3    H254204   2.107   2.096  12.402 -1.0498 -2.0541  0.0650
10905TIP3   OH254205   1.611   2.895  14.764 -0.8772 -0.2547 -0.4999
10905TIP3    H154206   1.550   2.951  14.811 -1.3883 -1.7365  0.6496
10905TIP3    H254207   1.680   2.954  14.732 -1.8963  1.1353 -0.1494
10906TIP3   OH254208   5.392   2.792   4.988 -0.1244  0.6677  0.9150
10906TIP3    H154209   5.339   2.842   4.926  0.0664  0.1579  0.3333
10906TIP3    H254210   5.337   2.716   5.010  0.1583  0.3968  0.6956
10907TIP3   OH254211   5.487   6.191   0.844 -0.3740  0.4264 -0.3209
10907TIP3    H154212   5.478   6.280   0.811  2.9157  0.8674 -0.1993
10907TIP3    H254213   5.581   6.172   0.838 -0.7649 -2.3901  1.3055
10908TIP3   OH254214   2.002   0.562  14.733  0.2075 -0.3103 -0.5222
10908TIP3    H154215   2.031   0.631  14.674 -0.3358  0.9645  0.6967
10908TIP3    H254216   1.989   0.605  14.817 -0.8309 -1.7502  0.0771
10909TIP3   OH254217   0.952   4.973   1.772  0.5669  0.1236 -1.0306
10909TIP3    H154218   1.028   5.031   1.773  0.6032  0.1106 -2.2038
10909TIP3    H254219   0.905   4.997   1.692 -0.7074  0.1876 -0.2731
10910TIP3   OH254220   6.699   3.198  11.857 -0.2056 -0.1314 -0.1079
10910TIP3    H154221   6.715   3.290  11.837 -2.6937  0.0842 -1.1834
10910TIP3    H254222   6.605   3.187  11.849  0.1467 -3.0014 -0.8991
10911TIP3   OH254223   5.636   2.291  13.304 -0.2355  0.4237 -0.0927
10911TIP3    H154224   5.659   2.352  13.373 -0.1814  0.9645 -0.5839
10911TIP3    H254225   5.544   2.310  13.285 -0.1287  0.5730 -0.4653
10912TIP3   OH254226   3.081   0.793  15.343  0.1280  0.2892 -0.2435
10912TIP3    H154227   2.990   0.821  15.335  0.1870  0.8505  0.8448
10912TIP3    H254228   3.132   0.873  15.331  0.3707  0.3821  1.2706
10913TIP3   OH254229   1.923   1.313  14.291  0.0050 -0.0653 -0.0413
10913TIP3    H154230   1.873   1.336  14.369 -1.2192 -0.7821 -0.5846
10913TIP3    H254231   1.861   1.327  14.219  0.9265  0.0101 -0.8213
10914TIP3   OH254232   1.524   0.857   5.352 -0.0600  0.3085 -0.7785
10914TIP3    H154233   1.565   0.839   5.436  1.2583 -1.3171 -1.7457
10914TIP3    H254234   1.431   0.836   5.366  0.2460 -0.4728  0.0898
10915TIP3   OH254235   3.264   3.210  14.695 -0.9673 -0.1583 -0.3341
10915TIP3    H154236   3.174   3.224  14.723 -0.3476 -1.3358  2.5021
10915TIP3    H254237   3.266   3.120  14.663 -0.8230 -0.1386 -0.3816
10916TIP3   OH254238   3.778   4.853   1.853  0.6158 -0.5339 -0.1712
10916TIP3    H154239   3.807   4.941   1.832 -1.1788 -0.2619 -1.6225
10916TIP3    H254240   3.851   4.797   1.828  0.2639  0.2091 -2.9432
10917TIP3   OH254241   0.547   0.271  13.528 -0.1867 -0.5447 -0.7045
10917TIP3    H154242   0.502   0.253  13.611 -1.0477 -0.5386 -1.1589
10917TIP3    H254243   0.497   0.343  13.489 -0.6246 -1.4418 -1.8475
10918TIP3   OH254244   2.258   0.781  11.815 -0.5654 -0.2879 -0.2989
10918TIP3    H154245   2.233   0.873  11.804 -0.1576 -0.0560  0.6233
10918TIP3    H254246   2.280   0.751  11.727 -0.0882  0.6921 -0.5184
10919TIP3   OH254247   6.771   2.454  15.416  0.3885  0.3166 -0.3712
10919TIP3    H154248   6.815   2.495  15.490  0.8137 -0.5961 -0.1126
10919TIP3    H254249   6.837   2.453  15.347  0.0205  1.0849 -0.7354
10920TIP3   OH254250   5.521   3.778   3.044  0.1712  0.2256 -0.7783
10920TIP3    H154251   5.507   3.683   3.049 -0.6202  0.4571  1.7194
10920TIP3    H254252   5.604   3.792   3.089 -0.2028  0.8334 -0.2845
10921TIP3   OH254253   4.847   2.968   3.461 -0.4046 -0.0034 -0.2673
10921TIP3    H154254   4.840   3.033   3.531 -2.3020 -0.6135  0.1431
10921TIP3    H254255   4.940   2.966   3.439  0.1727  0.3998  2.0342
10922TIP3   OH254256   4.655   2.678   1.307  0.2324 -0.1187 -0.1331
10922TIP3    H154257   4.737   2.674   1.258  0.8860 -2.2469  1.1273
10922TIP3    H254258   4.681   2.691   1.398 -0.8828  0.5005  0.1140
10923TIP3   OH254259   1.548   2.479   3.235 -0.4195  0.6469 -0.6538
10923TIP3    H154260   1.504   2.427   3.302  0.3852 -0.2478 -0.7944
10923TIP3    H254261   1.619   2.523   3.281 -0.9437  1.4259 -0.5859
10924TIP3   OH254262   1.734   3.529  16.163  0.1901 -0.0965  0.1779
10924TIP3    H154263   1.739   3.611  16.114 -0.5202 -0.2851 -0.2210
10924TIP3    H254264   1.679   3.472  16.109 -0.0554 -0.5339  0.8804
10925TIP3   OH254265   2.686   4.586   4.811 -0.4371  0.3454 -0.5021
10925TIP3    H154266   2.735   4.636   4.745 -1.0576  1.0815 -0.4178
10925TIP3    H254267   2.752   4.530   4.852  0.1690  0.6834 -0.9915
10926TIP3   OH254268   0.093   1.448   0.350  0.1048 -0.5905  0.1187
10926TIP3    H154269   0.121   1.405   0.269  1.0526 -0.1945  0.2277
10926TIP3    H254270   0.174   1.481   0.388 -0.5864  1.1663  0.1071
10927TIP3   OH254271   3.207   0.158   3.023  0.0811 -0.4670 -0.0974
10927TIP3    H154272   3.144   0.086   3.034 -0.0261 -0.1936  1.0685
10927TIP3    H254273   3.249   0.139   2.939  0.8160 -2.4987  0.6908
10928TIP3   OH254274   6.064   6.063  15.368  0.3052  0.0311 -0.2105
10928TIP3    H154275   6.107   6.076  15.284  1.9576 -1.8222  0.3081
10928TIP3    H254276   6.136   6.059  15.431 -0.7662 -0.8994  0.9840
10929TIP3   OH254277   0.677   1.996   0.804  0.5031  0.5281 -0.5102
10929TIP3    H154278   0.649   1.946   0.881 -1.6758  1.0972 -0.9007
10929TIP3    H254279   0.707   1.929   0.742 -0.3374 -0.1493 -0.2018
10930TIP3   OH254280   1.552   1.790   2.423 -0.5088  0.4061 -0.0438
10930TIP3    H154281   1.505   1.728   2.367 -0.7519 -0.9044  1.5797
10930TIP3    H254282   1.644   1.766   2.414 -0.5021  0.5052 -0.2438
10931TIP3   OH254283   6.053   3.567   3.483 -0.3526  0.1768 -0.5880
10931TIP3    H154284   6.099   3.497   3.530  0.0484  0.6221 -0.3101
10931TIP3    H254285   5.967   3.530   3.462 -0.2600 -0.2854 -0.1596
10932TIP3   OH254286   2.604   6.279   4.526 -0.4243  0.2207 -0.1270
10932TIP3    H154287   2.628   6.360   4.571  0.9118  0.6200 -1.5093
10932TIP3    H254288   2.587   6.306   4.436 -2.9843 -0.5818  0.0805
10933TIP3   OH254289   4.653   6.017  10.807  0.6970  0.0411 -0.1074
10933TIP3    H154290   4.703   6.093  10.777  1.0055  0.3969  1.2819
10933TIP3    H254291   4.577   6.014  10.749  0.5452  1.5778 -0.0148
10934TIP3   OH254292   2.310   1.378   5.945  0.1605 -0.4464 -0.0421
10934TIP3    H154293   2.250   1.437   5.900  2.0801  1.2867 -0.4189
10934TIP3    H254294   2.397   1.408   5.919  1.3364  0.2033  4.2839
10935TIP3   OH254295   3.489   4.687  14.240 -0.0590 -0.1783  0.7042
10935TIP3    H154296   3.425   4.759  14.238  2.5367  2.1915 -1.2923
10935TIP3    H254297   3.553   4.714  14.305  0.5614 -1.0064  0.4373
10936TIP3   OH254298   6.818   6.269  12.438  0.1727 -0.2611  0.7026
10936TIP3    H154299   6.762   6.316  12.501 -0.0360 -0.7200  0.8566
10936TIP3    H254300   6.900   6.319  12.438  0.1354 -0.1979  1.2581
10937TIP3   OH254301   3.237   1.973   6.384  0.7350  0.2988  0.4172
10937TIP3    H154302   3.236   1.903   6.450  2.1408 -1.6660 -1.5608
10937TIP3    H254303   3.272   2.049   6.431  1.8632 -1.1032  1.9306
10938TIP3   OH254304   2.403   5.650   1.049  0.2301  0.1038 -0.1364
10938TIP3    H154305   2.358   5.578   1.094 -1.1390 -0.3661 -2.1987
10938TIP3    H254306   2.473   5.675   1.109  0.9388 -3.1666  0.5256
10939TIP3   OH254307   1.795   0.518  16.049  0.0670  0.0837 -0.3138
10939TIP3    H154308   1.874   0.503  16.101 -2.2331 -2.5563  2.7004
10939TIP3    H254309   1.774   0.432  16.012 -0.3205  1.1814 -2.7568
10940TIP3   OH254310   0.857   5.933  12.036 -0.4962 -0.2430  0.3947
10940TIP3    H154311   0.940   5.982  12.030 -0.9010  0.7549  2.5351
10940TIP3    H254312   0.881   5.843  12.013  0.6211  0.5565 -1.7583
10941TIP3   OH254313   5.387   0.157   5.152  0.3844  0.5221  0.2783
10941TIP3    H154314   5.333   0.115   5.085  0.8823  0.5049 -0.1161
10941TIP3    H254315   5.420   0.084   5.205  1.3746  0.4087 -0.5016
10942TIP3   OH254316   4.213   4.031  13.726  0.0771 -0.4336  0.8131
10942TIP3    H154317   4.128   4.058  13.692 -0.2340 -2.3472  0.0660
10942TIP3    H254318   4.261   4.114  13.738 -1.0731  0.4930 -0.8787
10943TIP3   OH254319   5.299   2.963  13.794 -0.0235  0.3197  0.1805
10943TIP3    H154320   5.321   2.882  13.747  0.1467  0.8584 -0.6649
10943TIP3    H254321   5.314   2.941  13.887  1.3390 -0.2152 -0.1454
10944TIP3   OH254322   2.201   6.148   1.059 -0.1884 -0.7328  0.5275
10944TIP3    H154323   2.130   6.100   1.017  0.8464 -1.0965 -0.8226
10944TIP3    H254324   2.266   6.081   1.080  0.1867 -0.2626  0.8819
10945TIP3   OH254325   2.380   0.730  15.919  0.3604  0.0767 -0.3817
10945TIP3    H154326   2.416   0.694  15.838 -0.1250 -0.7472 -0.2394
10945TIP3    H254327   2.371   0.824  15.901  1.2921  0.0799 -0.8858
10946TIP3   OH254328   1.191   2.316  15.358 -0.2405 -0.2003 -0.7209
10946TIP3    H154329   1.227   2.371  15.289 -0.5550 -0.2926 -0.9591
10946TIP3    H254330   1.143   2.248  15.311 -1.4512  0.4140 -0.3882
10947TIP3   OH254331   0.439   3.915   6.264  0.4223  0.6691  0.2361
10947TIP3    H154332   0.421   3.821   6.269 -1.1107  0.9758  0.7338
10947TIP3    H254333   0.488   3.926   6.182 -0.4023 -0.4092 -0.4122
10948TIP3   OH254334   6.801   1.473  16.296 -0.9250  0.3282  0.0378
10948TIP3    H154335   6.847   1.556  16.281 -0.2482  0.1201  0.8941
10948TIP3    H254336   6.729   1.496  16.355 -0.9423  0.3670  0.0028
10949TIP3   OH254337   5.240   2.081  16.305 -0.0532  0.0517  0.0279
10949TIP3    H154338   5.190   2.000  16.296  1.6075 -0.8578 -1.3759
10949TIP3    H254339   5.272   2.100  16.217 -2.0630  3.3567 -0.0820
10950TIP3   OH254340   0.004   4.559   4.051  0.3289 -0.2217  0.4202
10950TIP3    H154341   0.009   4.647   4.013  0.4955 -1.3329 -2.2488
10950TIP3    H254342  -0.081   4.526   4.020 -0.1457 -0.6946  2.1713
10951TIP3   OH254343   3.828   4.392  13.572 -0.0138  0.5292  0.1380
10951TIP3    H154344   3.815   4.334  13.496 -0.6036 -0.4138  0.9428
10951TIP3    H254345   3.749   4.446  13.575  0.7474  1.7325 -0.8953
10952TIP3   OH254346   2.265   3.352  11.530  0.1633 -0.1231  0.0056
10952TIP3    H154347   2.200   3.381  11.466  0.6474  2.1409  0.4913
10952TIP3    H254348   2.319   3.289  11.483 -0.2599  0.5708 -1.4359
10953TIP3   OH254349   4.707   0.873   2.767  0.2282  0.4079  0.2893
10953TIP3    H154350   4.669   0.859   2.680  0.0135 -1.1562  0.6195
10953TIP3    H254351   4.788   0.823   2.766  1.2752  2.0478  0.3103
10954TIP3   OH254352   0.148   0.470  15.724 -0.3701  0.2558 -0.0177
10954TIP3    H154353   0.209   0.410  15.767 -0.7968  1.5144  2.4506
10954TIP3    H254354   0.065   0.421  15.720 -0.2214 -0.0239  0.2794
10955TIP3   OH254355   4.694   1.118  14.920 -0.2283  0.3001  0.0790
10955TIP3    H154356   4.659   1.114  15.009 -2.4982  3.4371 -0.5636
10955TIP3    H254357   4.788   1.127  14.932 -0.3248 -1.0642  2.1037
10956TIP3   OH254358   0.001   2.276  12.888 -0.1974  0.7914 -0.3374
10956TIP3    H154359  -0.084   2.304  12.922  0.0591 -0.5948  1.5516
10956TIP3    H254360   0.064   2.333  12.932 -0.0332  0.7598 -0.5301
10957TIP3   OH254361   3.216   4.961   5.399  0.8563 -0.0262  0.0840
10957TIP3    H154362   3.140   4.902   5.401  0.0829  0.9042 -1.2000
10957TIP3    H254363   3.190   5.031   5.340  2.4175  0.7410  0.2902
10958TIP3   OH254364   1.938   0.214  13.654  0.1983 -0.0233  0.1178
10958TIP3    H154365   1.906   0.133  13.693  0.0804 -0.6755 -1.3166
10958TIP3    H254366   2.010   0.187  13.597 -0.6666  0.7086 -1.3579
10959TIP3   OH254367   6.096   5.839   0.825 -0.1105 -0.2720  0.3164
10959TIP3    H154368   6.001   5.832   0.813 -0.0800 -1.3182  0.5788
10959TIP3    H254369   6.117   5.770   0.888  0.7683  0.2168  0.5631
10960TIP3   OH254370   4.200   2.782  15.033  0.5307  0.4169  1.0833
10960TIP3    H154371   4.217   2.869  14.997 -1.2018 -0.8196 -3.0181
10960TIP3    H254372   4.260   2.725  14.985 -2.1722 -1.3560 -0.3200
10961TIP3   OH254373   0.781   5.714   4.532  0.0192 -0.2409  0.3905
10961TIP3    H154374   0.842   5.787   4.541 -1.3185  1.1982 -1.5914
10961TIP3    H254375   0.792   5.685   4.441 -1.6546 -0.4487  0.2270
10962TIP3   OH254376   6.330   2.775   1.247  0.2165  0.2722 -0.3121
10962TIP3    H154377   6.422   2.766   1.274  0.0802 -1.1936 -0.3020
10962TIP3    H254378   6.284   2.800   1.328  0.4621  0.1240 -0.1260
10963TIP3   OH254379   2.436   6.246  15.765 -0.6311  0.0981 -0.3456
10963TIP3    H154380   2.459   6.201  15.685  0.0619  0.7893 -0.5403
10963TIP3    H254381   2.371   6.189  15.807 -0.4052 -0.6453 -1.0005
10964TIP3   OH254382   4.507   5.548  12.127 -0.1650  0.1010  0.2466
10964TIP3    H154383   4.586   5.502  12.100  0.4135  1.3894 -0.3320
10964TIP3    H254384   4.513   5.555  12.222  0.0656 -0.4419  0.2680
10965TIP3   OH254385   0.555   4.746   2.856 -0.2988  0.3895  0.7780
10965TIP3    H154386   0.472   4.780   2.822  0.9460  1.7626 -0.9409
10965TIP3    H254387   0.549   4.761   2.950 -2.5377 -0.7271  0.8673
10966TIP3   OH254388   1.370   5.744  16.264 -1.1969  0.3320 -0.1833
10966TIP3    H154389   1.429   5.694  16.321  0.6681  0.2127 -2.1225
10966TIP3    H254390   1.287   5.697  16.269 -1.6496  1.4234  3.8610
10967TIP3   OH254391   2.853   5.339  15.994  0.4417 -0.5869 -0.0552
10967TIP3    H154392   2.901   5.310  16.072  0.9977  0.6692  0.0704
10967TIP3    H254393   2.831   5.430  16.011  0.2795 -0.3971 -1.2345
10968TIP3   OH254394   3.358   4.741   4.472 -0.5130 -0.4537  0.2612
10968TIP3    H154395   3.279   4.758   4.420 -0.9835 -0.4918  0.9522
10968TIP3    H254396   3.328   4.682   4.541 -0.5773  1.9160  2.3295
10969TIP3   OH254397   4.518   0.700   5.994  0.7678  0.4952  0.9020
10969TIP3    H154398   4.540   0.660   5.910 -1.8820 -0.1126  0.4384
10969TIP3    H254399   4.540   0.634   6.059  0.5190 -0.0116  0.4743
10970TIP3   OH254400   5.962   6.257   0.265 -0.1276  0.1906 -0.3480
10970TIP3    H154401   5.956   6.346   0.301 -0.1294  0.4264 -0.9183
10970TIP3    H254402   6.050   6.228   0.288 -0.7130 -0.3232  1.3352
10971TIP3   OH254403   0.708   2.300   2.794 -0.1967  0.5623 -0.3804
10971TIP3    H154404   0.734   2.253   2.715  0.5546 -1.9737  1.2924
10971TIP3    H254405   0.613   2.291   2.798 -0.3229  1.4250 -1.4264
10972TIP3   OH254406   4.189   4.624   1.584 -0.0104 -0.3516  0.0933
10972TIP3    H154407   4.228   4.566   1.520 -0.1687  0.1553 -0.4682
10972TIP3    H254408   4.228   4.710   1.566 -1.6004  0.2300 -0.6805
10973TIP3   OH254409   3.676   3.808  14.228 -0.3451 -0.1863  0.2395
10973TIP3    H154410   3.737   3.740  14.257 -0.1744  0.2097  0.8189
10973TIP3    H254411   3.709   3.889  14.267  0.2037  0.4566 -1.5238
10974TIP3   OH254412   5.034   2.731   0.380 -0.5232 -0.1864 -0.1233
10974TIP3    H154413   4.999   2.815   0.408  0.0986 -0.3261  1.1427
10974TIP3    H254414   5.128   2.748   0.366 -0.1314 -0.9487  1.4300
10975TIP3   OH254415   6.443   2.166   3.061 -0.6749  0.3490  0.0683
10975TIP3    H154416   6.490   2.106   3.004  1.1608  0.7443  1.1331
10975TIP3    H254417   6.441   2.122   3.146 -2.6068  0.1568 -0.0417
10976TIP3   OH254418   3.789   1.869   5.806  0.1987  0.3571 -0.4415
10976TIP3    H154419   3.709   1.821   5.782 -0.1988  0.6083  0.3582
10976TIP3    H254420   3.768   1.960   5.789  0.4465  0.3867 -0.5857
10977TIP3   OH254421   5.419   6.650  13.703  0.0286  0.0966  0.0256
10977TIP3    H154422   5.348   6.593  13.733  0.3527  0.1575  0.9084
10977TIP3    H254423   5.498   6.597  13.715  0.1521  0.0735 -0.8378
10978TIP3   OH254424   3.197   0.847   0.720 -0.1639 -0.7941 -0.6803
10978TIP3    H154425   3.262   0.820   0.784 -1.1826  0.9108  1.1260
10978TIP3    H254426   3.171   0.766   0.676  0.0292 -2.1062  1.5723
10979TIP3   OH254427   4.138   6.086   4.332  0.0828 -0.3372  0.1056
10979TIP3    H154428   4.226   6.117   4.311  0.6910 -0.7185  2.0540
10979TIP3    H254429   4.151   6.016   4.396 -1.5169 -1.8866 -1.2212
10980TIP3   OH254430   2.144   5.496   1.932  0.5040 -0.7629 -0.3438
10980TIP3    H154431   2.080   5.550   1.978  1.1116  0.0787 -0.4720
10980TIP3    H254432   2.147   5.532   1.843 -0.2560 -2.0238 -0.8883
10981TIP3   OH254433   4.437   6.367   0.429 -0.4637  0.6678 -0.6664
10981TIP3    H154434   4.377   6.419   0.482 -0.8042  0.1584 -0.5508
10981TIP3    H254435   4.506   6.428   0.404  1.0776  0.2881  2.5386
10982TIP3   OH254436   6.747   2.414  12.586  0.4605  0.2577  0.0825
10982TIP3    H154437   6.749   2.479  12.516 -0.3405  1.0025  0.7354
10982TIP3    H254438   6.831   2.370  12.581  0.8998  1.1685 -0.5453
10983TIP3   OH254439   6.609   3.924  16.560  0.5682  0.0475  0.1821
10983TIP3    H154440   6.673   3.929  16.489 -0.0546 -2.0487 -0.5754
10983TIP3    H254441   6.577   3.834  16.556 -0.6199  0.3670  2.1359
10984TIP3   OH254442   1.042   6.729  16.350 -0.0839 -0.2835 -0.2327
10984TIP3    H154443   1.029   6.647  16.399 -0.4198 -0.9379 -1.3912
10984TIP3    H254444   0.959   6.775  16.357 -0.1564 -0.4127 -0.2578
10985TIP3   OH254445   3.039   4.916  15.037  0.0044  0.7022  0.4574
10985TIP3    H154446   2.950   4.881  15.050 -0.1564  0.9285 -0.0085
10985TIP3    H254447   3.026   4.996  14.986  0.6475 -0.4449 -1.5466
10986TIP3   OH254448   3.646   4.775  15.548  0.0278  0.0231 -0.2980
10986TIP3    H154449   3.741   4.784  15.541 -0.0012  1.1474  0.6495
10986TIP3    H254450   3.613   4.864  15.555 -1.1014 -0.3557 -0.5503
10987TIP3   OH254451   3.056   0.124  15.112  0.1250  0.2754 -0.0777
10987TIP3    H154452   3.034   0.194  15.173 -1.6530 -2.9701  3.1774
10987TIP3    H254453   2.974   0.108  15.064  0.0457 -0.7556  0.4119
10988TIP3   OH254454   2.869   6.583  12.586  0.4490  0.4273  0.3974
10988TIP3    H154455   2.919   6.502  12.597 -0.9547 -0.7503 -1.6443
10988TIP3    H254456   2.865   6.596  12.491 -1.2997  1.6371  0.6159
10989TIP3   OH254457   0.423   1.512   0.673  0.3081  0.0231  0.7182
10989TIP3    H154458   0.446   1.423   0.699  0.0258 -0.3815 -0.3807
10989TIP3    H254459   0.500   1.544   0.626 -0.4078 -0.4504 -0.8165
10990TIP3   OH254460   0.216   3.426  13.615  0.6743  0.6214 -0.0693
10990TIP3    H154461   0.176   3.367  13.551  2.6045  1.4497 -2.1041
10990TIP3    H254462   0.290   3.376  13.650 -0.1815  0.2954  1.2987
10991TIP3   OH254463   5.054   1.899   4.583  0.0787  0.0606  0.1095
10991TIP3    H154464   5.097   1.913   4.668  0.7562 -0.0475 -0.2110
10991TIP3    H254465   5.055   1.985   4.541  1.2369 -0.2362 -0.4748
10992TIP3   OH254466   4.861   2.883  16.124  0.5124  0.0398 -0.4578
10992TIP3    H154467   4.897   2.795  16.134 -0.2088 -0.4396 -1.8579
10992TIP3    H254468   4.775   2.869  16.084  0.3738  1.3847 -0.6550
10993TIP3   OH254469   2.262   4.664  15.622  0.0546 -0.6082 -0.0664
10993TIP3    H154470   2.330   4.599  15.604  1.1160 -0.3056  2.6588
10993TIP3    H254471   2.307   4.736  15.665 -1.6859  0.4170  0.1152
10994TIP3   OH254472   3.200   5.822  11.755 -0.1023  0.3402  0.0512
10994TIP3    H154473   3.213   5.793  11.845 -1.0568  0.7417  0.3330
10994TIP3    H254474   3.122   5.878  11.760 -0.1901  0.3174 -1.0285
10995TIP3   OH254475   3.433   2.987  15.425 -0.7355 -0.2041 -0.7186
10995TIP3    H154476   3.395   2.988  15.513  0.0770 -2.0003 -0.3299
10995TIP3    H254477   3.407   3.071  15.387  0.5039  1.4626  1.9242
10996TIP3   OH254478   5.617   6.295   5.874  0.0206  0.4012  0.5837
10996TIP3    H154479   5.607   6.200   5.873 -1.9066  0.5965  0.0639
10996TIP3    H254480   5.597   6.322   5.784 -1.6362  1.5037  1.2715
10997TIP3   OH254481   3.753   4.765  11.944 -0.0155 -0.0856 -0.0138
10997TIP3    H154482   3.717   4.687  11.987 -1.4383  0.3479 -0.4003
10997TIP3    H254483   3.700   4.776  11.865 -1.2998  2.5542  1.1566
10998TIP3   OH254484   6.008   2.995   4.273  0.5124 -0.8226  0.8788
10998TIP3    H154485   5.970   2.908   4.256 -1.1124 -0.0351  0.3682
10998TIP3    H254486   5.991   3.010   4.366  0.1184 -0.7254  0.7911
10999TIP3   OH254487   5.611   3.724  13.516  0.3541 -0.5068  0.0833
10999TIP3    H154488   5.632   3.743  13.608 -0.8280 -1.2170  0.5097
10999TIP3    H254489   5.559   3.644  13.519  2.2021 -1.7956 -1.3984
11000TIP3   OH254490   3.882   3.295  14.830 -0.1721 -1.0504  0.3144
11000TIP3    H154491   3.899   3.240  14.907 -1.1124  0.3886  1.5859
11000TIP3    H254492   3.916   3.381  14.855 -3.5074  0.3062  0.4962
11001TIP3   OH254493   6.408   5.925  13.260 -0.0102 -0.2678 -0.1445
11001TIP3    H154494   6.346   5.979  13.310 -1.1868 -1.0907 -0.6909
11001TIP3    H254495   6.356   5.850  13.232  0.4153  0.5490 -3.2801
11002TIP3   OH254496   5.526   1.977  16.116 -0.2723 -0.8498  0.2263
11002TIP3    H154497   5.502   2.069  16.114  1.0539 -0.4549  1.8791
11002TIP3    H254498   5.619   1.976  16.096 -0.1835 -1.7952  0.6512
11003TIP3   OH254499   3.472   6.692   3.458 -0.3251  0.6238  0.0962
11003TIP3    H154500   3.408   6.748   3.414 -2.6569 -2.3704 -0.5225
11003TIP3    H254501   3.514   6.645   3.386 -1.5496 -1.5996  0.7799
11004TIP3   OH254502   3.256   6.317   0.488  0.4067  0.1254  0.8041
11004TIP3    H154503   3.279   6.251   0.423  0.5229  0.9530 -0.0038
11004TIP3    H254504   3.164   6.337   0.471  0.1135 -0.4785  1.6349
11005TIP3   OH254505   0.959   3.532   5.271 -0.6133  0.1125  0.6284
11005TIP3    H154506   0.881   3.485   5.243 -0.7341  1.4402 -1.3474
11005TIP3    H254507   0.926   3.607   5.321 -0.5501 -0.0016  0.8441
11006TIP3   OH254508   0.348   0.502   2.185 -0.0198 -0.3048 -0.4471
11006TIP3    H154509   0.435   0.492   2.146  0.6956 -1.2839  1.3622
11006TIP3    H254510   0.364   0.504   2.279 -1.8117  1.0960 -0.1398
11007TIP3   OH254511   2.619   5.067   3.183  0.0579  0.4042  0.1019
11007TIP3    H154512   2.546   5.047   3.125 -0.4859 -0.7163  1.1584
11007TIP3    H254513   2.688   5.007   3.156  0.0744  0.4199  0.1092
11008TIP3   OH254514   3.124   4.194  14.073  0.6879  0.1484 -0.3967
11008TIP3    H154515   3.079   4.273  14.043  0.7502  0.9167  1.4788
11008TIP3    H254516   3.171   4.221  14.152  0.0236 -1.9535  0.7640
11009TIP3   OH254517   6.626   0.162   1.978 -0.2155 -0.1379 -0.5463
11009TIP3    H154518   6.633   0.131   1.888  1.5284  0.2171 -0.5572
11009TIP3    H254519   6.683   0.239   1.981 -1.7595  1.0156  0.3720
11010TIP3   OH254520   5.596   4.660  14.338  0.0925  0.5837 -0.3706
11010TIP3    H154521   5.553   4.710  14.268 -0.1163  1.3055  0.2715
11010TIP3    H254522   5.606   4.722  14.410 -1.7698 -0.7281  1.0740
11011TIP3   OH254523   0.574   5.039   1.721  0.6621  0.3935  0.5916
11011TIP3    H154524   0.479   5.041   1.731  0.4840 -0.6037 -0.8267
11011TIP3    H254525   0.590   5.051   1.628  1.7517 -2.8252  0.3007
11012TIP3   OH254526   5.916   3.715   4.159  0.1075  0.3981 -0.6465
11012TIP3    H154527   5.999   3.757   4.178 -0.0548  0.2232  0.4774
11012TIP3    H254528   5.918   3.634   4.210 -0.1332 -0.3332 -1.7630
11013TIP3   OH254529   0.158   6.069  13.985 -0.0782 -0.3338  0.0548
11013TIP3    H154530   0.171   6.159  13.953 -1.3983 -0.7752 -1.7993
11013TIP3    H254531   0.210   6.065  14.065  1.3682  1.5651 -0.7384
11014TIP3   OH254532   5.937   4.245   2.068 -0.1527  0.2280 -0.4163
11014TIP3    H154533   6.031   4.262   2.064 -0.5230  2.9501  1.1402
11014TIP3    H254534   5.903   4.276   1.984  0.0994  0.8954 -0.2707
11015TIP3   OH254535   3.297   0.035  14.986 -0.2455 -0.0340 -0.5874
11015TIP3    H154536   3.209   0.053  15.017 -0.8744  0.6501 -2.6932
11015TIP3    H254537   3.330   0.120  14.956  1.1136 -0.2933  0.1009
11016TIP3   OH254538   3.271   5.479   0.967  0.0158 -0.2851  0.0750
11016TIP3    H154539   3.182   5.445   0.977 -0.3152  0.2099 -1.0833
11016TIP3    H254540   3.324   5.402   0.947 -0.0261 -0.6764  1.4255
11017TIP3   OH254541   1.638   1.255   3.489 -0.2323  0.2918  0.1566
11017TIP3    H154542   1.670   1.320   3.427 -0.0816 -3.8748 -4.4568
11017TIP3    H254543   1.714   1.201   3.508 -1.2598 -1.0537  0.5351
11018TIP3   OH254544   4.453   1.731  13.735 -0.3648 -0.3948  0.1290
11018TIP3    H154545   4.549   1.733  13.742 -0.4111 -2.4053  2.0178
11018TIP3    H254546   4.424   1.799  13.796 -0.1525 -0.8224  0.7186
11019TIP3   OH254547   2.352   3.946  11.536  0.3899 -0.5571  0.3373
11019TIP3    H154548   2.376   3.958  11.444 -2.1973  0.7285 -0.2086
11019TIP3    H254549   2.432   3.913  11.578  2.1015  0.4736 -2.0214
11020TIP3   OH254550   0.735   4.015   6.841 -0.0127  0.0961  0.1204
11020TIP3    H154551   0.814   3.989   6.794  0.4684 -0.3005  1.1302
11020TIP3    H254552   0.664   3.971   6.795  0.3810  0.2547 -0.6414
11021TIP3   OH254553   0.670   6.312  16.468  0.6061 -0.4020  0.6517
11021TIP3    H154554   0.703   6.304  16.557  1.2262 -4.1143  0.1342
11021TIP3    H254555   0.741   6.280  16.412 -1.4374 -2.4215 -0.8734
11022TIP3   OH254556   0.225   0.388   1.927  0.2475  0.1070  0.1830
11022TIP3    H154557   0.265   0.460   1.976  0.1186 -0.2307  0.7796
11022TIP3    H254558   0.244   0.409   1.835  2.1260 -0.2570  0.4644
11023TIP3   OH254559   1.015   4.845  11.919 -0.0366 -0.1146 -0.4006
11023TIP3    H154560   1.061   4.909  11.864  2.5309 -1.4427  0.1441
11023TIP3    H254561   1.042   4.866  12.008  1.0128 -2.0643 -0.2322
11024TIP3   OH254562   3.317   6.225   4.310  0.0024 -0.1469  0.5483
11024TIP3    H154563   3.408   6.234   4.338  0.3816  1.2788 -1.0630
11024TIP3    H254564   3.282   6.153   4.363  2.2343 -1.1060  0.7583
11025TIP3   OH254565   6.190   1.017   4.876 -0.3434  0.6842 -0.1340
11025TIP3    H154566   6.127   1.030   4.947  0.0431  0.8185  0.1865
11025TIP3    H254567   6.240   1.099   4.874 -1.0911  1.1181 -1.2982
11026TIP3   OH254568   3.165   3.569  16.020 -0.9305 -0.1897 -0.3780
11026TIP3    H154569   3.259   3.569  15.998 -0.7276 -0.4281  0.4495
11026TIP3    H254570   3.160   3.518  16.100 -2.1293 -2.5416 -1.8896
11027TIP3   OH254571   6.371   0.599   3.923 -0.2708 -0.3393 -0.7349
11027TIP3    H154572   6.342   0.516   3.960 -1.7738  0.5319  0.0753
11027TIP3    H254573   6.296   0.657   3.932  1.4814  1.7883  0.7835
11028TIP3   OH254574   3.991   6.784   4.227  0.1767 -0.2493  0.3561
11028TIP3    H154575   4.045   6.813   4.153 -1.1077  2.6437  0.4922
11028TIP3    H254576   3.904   6.820   4.209 -0.2040  0.3575  3.1557
11029TIP3   OH254577   0.711   4.474   4.687 -0.1704  0.5520 -0.3392
11029TIP3    H154578   0.680   4.477   4.778  1.4975 -0.4924  0.2807
11029TIP3    H254579   0.665   4.546   4.644 -2.1125  0.1294  0.9715
11030TIP3   OH254580   2.476   1.735  15.333  0.6903  0.0984 -0.2805
11030TIP3    H154581   2.416   1.764  15.264 -1.1752 -2.5292  0.1677
11030TIP3    H254582   2.541   1.681  15.288 -0.2460 -1.2166 -0.0800
11031TIP3   OH254583   1.701   3.755  16.054 -0.4692  0.1557  0.2037
11031TIP3    H154584   1.769   3.794  16.107  1.2039 -1.9234 -0.3520
11031TIP3    H254585   1.668   3.827  16.000 -0.5158  1.7313  2.3095
11032TIP3   OH254586   5.844   1.662  16.010  0.3773  0.2724 -0.2224
11032TIP3    H154587   5.754   1.632  16.008  0.2249  0.7223 -0.2102
11032TIP3    H254588   5.838   1.753  16.039  0.8495  0.2390 -0.0122
11033TIP3   OH254589   0.725   4.514   1.795 -0.0597  0.0556 -0.5766
11033TIP3    H154590   0.745   4.493   1.886  1.6225  1.7362 -0.5326
11033TIP3    H254591   0.730   4.610   1.791 -1.4826  0.0839 -2.1261
11034TIP3   OH254592   4.557   5.471  11.415 -0.1951  0.3852  0.5198
11034TIP3    H154593   4.493   5.416  11.369  0.7145 -1.0283  0.9229
11034TIP3    H254594   4.595   5.526  11.347  1.6441 -2.1651 -0.5776
11035TIP3   OH254595   0.873   3.072  15.698  0.7567  0.2504  0.2753
11035TIP3    H154596   0.792   3.088  15.746 -0.6368 -1.7416 -1.2959
11035TIP3    H254597   0.897   3.157  15.661 -1.0383  0.7008  0.1183
11036TIP3   OH254598   5.917   3.888   0.855 -0.2970 -0.0247 -0.0090
11036TIP3    H154599   5.904   3.823   0.924  0.5605 -2.8550 -2.3853
11036TIP3    H254600   6.012   3.891   0.842 -0.5282 -0.8436 -2.1727
11037TIP3   OH254601   3.244   1.386  12.136 -0.4381  0.3527 -0.1194
11037TIP3    H154602   3.321   1.441  12.127 -0.1197 -0.1852 -0.7349
11037TIP3    H254603   3.196   1.423  12.210 -0.7297  2.0376 -1.1411
11038TIP3   OH254604   6.017   1.013   3.845  0.4092  0.1521 -0.0145
11038TIP3    H154605   6.098   1.017   3.794  0.1186 -2.8274 -0.8617
11038TIP3    H254606   5.949   1.000   3.779 -0.4245  0.0566  0.8591
11039TIP3   OH254607   5.893   5.924   1.086 -0.0437  0.6685  0.1322
11039TIP3    H154608   5.915   6.010   1.050  1.9761 -0.4786 -1.4958
11039TIP3    H254609   5.964   5.904   1.146  1.5671 -1.4949 -2.4018
11040TIP3   OH254610   0.917   4.887   1.140  0.2774  0.3419 -0.1945
11040TIP3    H154611   0.987   4.878   1.076  1.2502  0.5018  0.8432
11040TIP3    H254612   0.921   4.806   1.191 -0.9731 -0.1140 -0.8045
11041TIP3   OH254613   1.082   3.817  15.105  0.0324 -0.9336  0.1361
11041TIP3    H154614   1.095   3.853  15.017 -0.5364  1.7018  1.0734
11041TIP3    H254615   1.169   3.823  15.146 -0.2165  0.1304  0.5351
11042TIP3   OH254616   1.366   4.227  15.307 -0.0053 -0.0603  0.1347
11042TIP3    H154617   1.292   4.172  15.285  0.4948 -0.3294 -0.9118
11042TIP3    H254618   1.432   4.166  15.340 -0.0583  0.1127  0.5613
11043TIP3   OH254619   5.537   3.898   1.298 -0.3448 -0.2064  0.0352
11043TIP3    H154620   5.560   3.899   1.205  0.3452  0.1788  0.2031
11043TIP3    H254621   5.563   3.985   1.330 -2.0151  0.2384  0.2462
11044TIP3   OH254622   3.537   4.609   0.672 -0.6139  0.4525  0.5857
11044TIP3    H154623   3.562   4.572   0.587 -0.5694  0.5941  0.5369
11044TIP3    H254624   3.583   4.693   0.675  1.0199 -0.4538  1.6130
11045TIP3   OH254625   5.686   2.329  14.173  0.2874 -0.0573  0.9923
11045TIP3    H154626   5.737   2.312  14.251  0.4834  0.2816  0.9417
11045TIP3    H254627   5.717   2.414  14.142 -2.6584  1.7985  2.8766
11046TIP3   OH254628   6.616   3.185  15.453  0.1334  0.2589  0.1343
11046TIP3    H154629   6.586   3.274  15.435  2.3742  0.9942 -0.2041
11046TIP3    H254630   6.670   3.193  15.532 -2.0187 -1.3346  1.8124
11047TIP3   OH254631   2.423   2.136   0.528 -0.1991 -0.1278  0.2673
11047TIP3    H154632   2.487   2.183   0.582  0.6077 -2.5859  1.4983
11047TIP3    H254633   2.399   2.199   0.460  2.3725  1.3981  0.6918
11048TIP3   OH254634   2.945   2.595  12.070 -0.2088 -0.0816  0.5480
11048TIP3    H154635   2.888   2.555  12.135 -1.0462 -1.3966 -0.9674
11048TIP3    H254636   3.034   2.570  12.096 -0.5915 -1.1318  0.8213
11049TIP3   OH254637   3.137   2.397   0.145  0.6839  0.2917 -0.7781
11049TIP3    H154638   3.118   2.343   0.068  0.2667 -2.1596  0.9713
11049TIP3    H254639   3.145   2.486   0.111 -1.4582 -0.4455 -3.3645
11050TIP3   OH254640   1.976   4.963  10.910 -0.4678  0.4568 -0.1919
11050TIP3    H154641   1.930   4.942  10.829 -0.4245 -1.7893  0.3291
11050TIP3    H254642   1.975   5.058  10.914 -2.3976  0.5354 -1.7262
11051TIP3   OH254643   6.514   1.141  16.171  0.0143 -0.1148 -0.1597
11051TIP3    H154644   6.428   1.173  16.198 -0.2551 -0.9684  0.0077
11051TIP3    H254645   6.495   1.066  16.116  0.6584 -0.3569 -0.0566
11052TIP3   OH254646   3.916   0.988   2.441 -0.0217 -0.1726  0.0467
11052TIP3    H154647   3.989   1.038   2.404 -1.3626  1.2204 -0.7633
11052TIP3    H254648   3.953   0.945   2.519  1.4673  1.0716  0.0429
11053TIP3   OH254649   6.137   1.510  13.683 -0.4073 -0.7959 -0.1054
11053TIP3    H154650   6.105   1.513  13.774  0.1086  0.4203  0.0393
11053TIP3    H254651   6.058   1.512  13.630 -0.6200  1.0292  0.2728
11054TIP3   OH254652   3.881   3.997  14.740  0.5494 -0.5535 -0.0758
11054TIP3    H154653   3.939   3.932  14.700 -0.2232 -0.4109 -1.4815
11054TIP3    H254654   3.898   4.078  14.692  1.6869  0.3732  1.8402
11055TIP3   OH254655   0.757   5.185  12.347 -0.2422  0.5766 -0.4199
11055TIP3    H154656   0.823   5.209  12.411 -1.6165  3.9652 -0.1395
11055TIP3    H254657   0.787   5.225  12.265 -0.3646 -0.5355 -1.0095
11056TIP3   OH254658   4.725   1.628  10.536 -0.4494  0.3474 -0.1803
11056TIP3    H154659   4.690   1.700  10.589  1.3575  0.6464  0.6405
11056TIP3    H254660   4.706   1.654  10.445  1.3448  2.5478  0.0060
11057TIP3   OH254661   4.204   3.125   5.621  0.2892 -0.8419  0.2021
11057TIP3    H154662   4.286   3.086   5.590  0.2271 -1.0232  0.2655
11057TIP3    H254663   4.140   3.100   5.554  0.3753 -0.3302 -0.0756
11058TIP3   OH254664   3.268   2.368   1.033  0.0819 -0.1707 -0.0015
11058TIP3    H154665   3.270   2.455   1.073  2.3419  0.2904 -1.0540
11058TIP3    H254666   3.238   2.310   1.103 -0.8559  1.3643  0.8805
11059TIP3   OH254667   0.183   0.163   0.008 -0.7635  0.0483  0.0558
11059TIP3    H154668   0.167   0.257  -0.002 -0.7925 -0.0757 -1.0881
11059TIP3    H254669   0.099   0.122  -0.013 -1.0402 -0.1957  1.5466
11060TIP3   OH254670   6.654   4.072   0.661 -0.0612  0.1452 -0.6928
11060TIP3    H154671   6.675   4.112   0.745 -0.8853  0.4598 -0.6351
11060TIP3    H254672   6.623   3.985   0.683 -0.1666  0.1864 -0.6768
11061TIP3   OH254673   6.787   1.335   4.195 -0.7086 -0.2724 -0.4418
11061TIP3    H154674   6.761   1.250   4.230  0.9142  0.1007  1.7937
11061TIP3    H254675   6.847   1.314   4.124  0.9847 -1.0145  1.1629
11062TIP3   OH254676   5.893   3.923  11.772  0.0577 -0.5631 -0.3706
11062TIP3    H154677   5.945   3.860  11.723  1.8705 -0.7871  1.7781
11062TIP3    H254678   5.932   4.008  11.753 -0.6398 -0.3932 -1.0656
11063TIP3   OH254679   6.809   6.493   5.433  0.0375 -0.6979 -0.2200
11063TIP3    H154680   6.741   6.559   5.445 -0.5530 -1.3992  0.4512
11063TIP3    H254681   6.888   6.542   5.413 -0.9189  0.0739 -2.1841
11064TIP3   OH254682   4.450   6.182   3.424  0.1275 -0.1745 -0.2663
11064TIP3    H154683   4.455   6.096   3.466  0.8243  0.1051  0.2317
11064TIP3    H254684   4.371   6.222   3.462  0.4878 -0.1128  0.4204
11065TIP3   OH254685   4.264   5.902   5.436  0.3430 -0.5864 -0.1076
11065TIP3    H154686   4.353   5.871   5.418  0.2455 -0.1047 -1.4575
11065TIP3    H254687   4.276   5.986   5.480  0.5597 -0.5968 -0.1460
11066TIP3   OH254688   2.840   2.906   5.681 -0.3356 -0.1021  0.2343
11066TIP3    H154689   2.911   2.953   5.723 -0.8787 -0.6244  1.8091
11066TIP3    H254690   2.769   2.970   5.674 -0.7864 -0.4139  1.6149
11067TIP3   OH254691   5.624   4.812  15.504  0.0348  0.1055 -0.1110
11067TIP3    H154692   5.577   4.825  15.587  1.3683  0.4778  0.6021
11067TIP3    H254693   5.584   4.874  15.444 -0.6847  0.1135  0.3640
11068TIP3   OH254694   0.565   4.588  13.343  0.0469 -0.0405 -0.3729
11068TIP3    H154695   0.608   4.522  13.397 -1.1114 -0.7337 -0.2778
11068TIP3    H254696   0.628   4.660  13.338  1.3098 -1.1340 -0.4591
11069TIP3   OH254697   5.696   6.193   0.388 -0.2863 -0.0246 -0.0447
11069TIP3    H154698   5.754   6.269   0.389 -1.5632  0.9544  0.0713
11069TIP3    H254699   5.660   6.189   0.476 -2.6058  1.0979 -0.9063
11070TIP3   OH254700   2.941   4.180   2.912  0.3608  0.4257  0.2054
11070TIP3    H154701   2.863   4.141   2.871  1.8032  0.2074 -2.4241
11070TIP3    H254702   3.012   4.162   2.851  2.6869 -0.1104  2.9418
11071TIP3   OH254703   6.202   5.409  17.160 -0.6469 -0.1251 -0.8655
11071TIP3    H154704   6.187   5.330  17.212 -2.2950 -0.5168 -1.9086
11071TIP3    H254705   6.164   5.389  17.074 -1.1112  1.8163 -1.1371
11072TIP3   OH254706   5.115   4.391   0.044  0.0992  0.2923  0.5533
11072TIP3    H154707   5.171   4.314   0.040 -0.6149 -0.1607 -1.5391
11072TIP3    H254708   5.032   4.359   0.079 -0.3666 -0.0204 -0.8028
11073TIP3   OH254709   2.552   0.538   2.291  0.1132  0.1387  0.2391
11073TIP3    H154710   2.499   0.459   2.284  0.0160  0.2209  0.0273
11073TIP3    H254711   2.506   0.602   2.237  1.5441 -0.4004 -1.6840
11074TIP3   OH254712   1.715   4.879   1.167  0.1406  0.1403 -0.1184
11074TIP3    H154713   1.716   4.934   1.245 -0.5562  0.2731 -0.1998
11074TIP3    H254714   1.806   4.853   1.154  0.0120 -1.2553  1.7217
11075TIP3   OH254715   1.884   4.670   1.806  0.0506  0.3475  0.2609
11075TIP3    H154716   1.834   4.705   1.732 -0.9697  1.1045  1.2929
11075TIP3    H254717   1.940   4.743   1.832  0.3001  0.1287  0.3279
11076TIP3   OH254718   4.087   4.939  13.131  0.5572  0.6247  0.3191
11076TIP3    H154719   4.046   4.913  13.049  0.1900  1.3747  0.2583
11076TIP3    H254720   4.180   4.920  13.119  0.4641  0.4765 -0.1657
11077TIP3   OH254721   0.565   2.280   0.624  0.2561 -0.5772 -0.2169
11077TIP3    H154722   0.533   2.265   0.535  1.4169 -0.8935 -0.5964
11077TIP3    H254723   0.492   2.321   0.669 -0.8903 -1.8045 -0.8880
11078TIP3   OH254724   5.424   4.705  14.080 -0.1227 -0.0921 -0.0606
11078TIP3    H154725   5.466   4.673  14.000  0.5065 -1.8166  0.9264
11078TIP3    H254726   5.386   4.789  14.055  2.1793  0.5679 -1.5243
11079TIP3   OH254727   5.283   2.407   6.421  0.0141  0.0950  0.0250
11079TIP3    H154728   5.193   2.436   6.409 -0.2185 -0.3240  0.7648
11079TIP3    H254729   5.316   2.458   6.495  0.5159  0.5368 -0.4933
11080TIP3   OH254730   1.360   3.759  14.252  0.0049 -0.5970 -0.3726
11080TIP3    H154731   1.443   3.712  14.264 -0.1008 -0.6259  0.2945
11080TIP3    H254732   1.385   3.846  14.223  0.2278 -0.8906 -1.0783
11081TIP3   OH254733   6.298   5.487  14.944  0.2200 -0.0748 -0.1948
11081TIP3    H154734   6.220   5.481  15.000  0.0434 -1.3297 -0.5598
11081TIP3    H254735   6.350   5.557  14.983  0.0210 -0.8319  1.4745
11082TIP3   OH254736   1.546   2.497  16.016 -0.3038 -0.0079 -0.5957
11082TIP3    H154737   1.545   2.571  16.076 -0.5809 -0.1353 -0.4449
11082TIP3    H254738   1.577   2.534  15.933 -1.8870  0.6153 -0.9433
11083TIP3   OH254739   2.940   6.015  14.516 -0.0613 -0.1292  0.2737
11083TIP3    H154740   2.993   5.948  14.558  0.0203  0.3312  0.9027
11083TIP3    H254741   2.956   6.002  14.422  2.6198  1.1453  0.4827
11084TIP3   OH254742   2.189   3.564   0.122  0.1887  0.0685  0.2774
11084TIP3    H154743   2.128   3.537   0.053 -0.0798  0.7463  0.2464
11084TIP3    H254744   2.265   3.508   0.109  0.5598  0.8787 -1.2070
11085TIP3   OH254745   4.806   6.237  10.759 -0.0727  0.0436  0.3807
11085TIP3    H154746   4.880   6.217  10.702 -1.7292 -1.8328 -1.2144
11085TIP3    H254747   4.755   6.303  10.710 -0.9950 -0.8560  0.1168
11086TIP3   OH254748   5.069   6.293   1.194 -0.2086  0.9163 -0.0192
11086TIP3    H154749   5.069   6.271   1.287 -0.8635 -1.8058 -0.6083
11086TIP3    H254750   5.011   6.227   1.154  1.6744  0.7576 -2.6209
11087TIP3   OH254751   5.185   0.250  13.663 -0.1199  0.2916  0.5606
11087TIP3    H154752   5.230   0.256  13.578 -0.4861  1.6189  0.4428
11087TIP3    H254753   5.189   0.339  13.698 -1.1362  0.0338  1.3393
11088TIP3   OH254754   4.965   4.785  15.614 -0.3558 -0.1094 -0.3620
11088TIP3    H154755   4.877   4.821  15.615 -0.6865 -0.7977 -2.1666
11088TIP3    H254756   5.019   4.850  15.659 -1.4861  1.1068 -0.7589
11089TIP3   OH254757   6.075   6.392   6.184  0.1462 -0.6219 -0.3366
11089TIP3    H154758   6.114   6.390   6.272  0.9258 -0.1087 -0.6634
11089TIP3    H254759   6.044   6.303   6.170 -2.9872  0.0306  1.7829
11090TIP3   OH254760   5.018   5.149   1.151 -0.2311  0.5321  0.1814
11090TIP3    H154761   5.009   5.053   1.153 -1.3995  0.6091 -0.7152
11090TIP3    H254762   5.112   5.164   1.139 -0.0563 -0.5134  0.1765
11091TIP3   OH254763   1.928   1.891  13.961  0.0139 -0.4295  0.9125
11091TIP3    H154764   1.954   1.979  13.934  0.6042 -1.0319 -0.5296
11091TIP3    H254765   2.000   1.834  13.931 -1.0905 -1.5969  0.4241
11092TIP3   OH254766   6.517   5.741  14.443 -0.0864  0.4253  0.0323
11092TIP3    H154767   6.587   5.800  14.471  0.1897 -0.6128  1.5642
11092TIP3    H254768   6.482   5.783  14.365  1.7096  1.3667 -0.3067
11093TIP3   OH254769   0.668   6.140   0.949  0.0199  0.5117  0.1025
11093TIP3    H154770   0.685   6.081   0.876  0.8630 -0.0612  0.7498
11093TIP3    H254771   0.754   6.154   0.989 -0.6147 -0.3640  1.8629
11094TIP3   OH254772   5.981   2.267  11.438 -0.1743  0.3115  0.3585
11094TIP3    H154773   5.888   2.286  11.432 -0.3912 -0.0964  2.0571
11094TIP3    H254774   5.998   2.205  11.366 -1.1084  0.7356 -0.2313
11095TIP3   OH254775   0.844   2.095   3.705 -0.1555 -0.0069 -0.2790
11095TIP3    H154776   0.763   2.131   3.669 -2.8788 -3.7214  1.7888
11095TIP3    H254777   0.867   2.025   3.645 -0.0082 -0.6964  0.5703
11096TIP3   OH254778   1.700   1.103   2.449  0.1061  0.2784 -0.4378
11096TIP3    H154779   1.783   1.151   2.443  0.5083 -0.1580  1.4641
11096TIP3    H254780   1.660   1.115   2.363  1.3056  2.0103 -0.7841
11097TIP3   OH254781   4.502   3.640  16.406  0.5431  0.2506 -0.4778
11097TIP3    H154782   4.519   3.612  16.316  0.0015 -1.0875 -0.1695
11097TIP3    H254783   4.581   3.615  16.454  0.7179  0.7155 -0.5223
11098TIP3   OH254784   3.419   4.582  16.665 -0.0370 -0.3525  0.4423
11098TIP3    H154785   3.449   4.495  16.639 -0.3549  0.1209 -1.5918
11098TIP3    H254786   3.379   4.619  16.586 -1.2709  1.0574  1.6957
11099TIP3   OH254787   1.867   6.564   3.193 -0.0389 -0.4120  0.0337
11099TIP3    H154788   1.833   6.481   3.226 -1.4380  0.1553  0.0799
11099TIP3    H254789   1.838   6.568   3.102 -1.7343  0.9029  0.5911
11100TIP3   OH254790   2.056   3.980  12.208 -0.0697 -0.2515  0.1551
11100TIP3    H154791   1.993   3.962  12.279  1.3225  0.7292  1.6866
11100TIP3    H254792   2.059   4.075  12.202 -1.5263 -0.3449 -2.5089
11101TIP3   OH254793   6.816   4.117   4.519 -0.2555  0.4482  0.1743
11101TIP3    H154794   6.841   4.040   4.571 -2.0054 -1.0721 -1.1853
11101TIP3    H254795   6.722   4.107   4.504 -0.5677  2.9876  0.1632
11102TIP3   OH254796   3.495   0.562   4.153  0.5163 -0.0933  0.4509
11102TIP3    H154797   3.487   0.475   4.191  0.9847  0.1215  1.0444
11102TIP3    H254798   3.549   0.611   4.215  1.4299  0.2110 -0.5758
11103TIP3   OH254799   0.842   2.728   3.709  0.4822 -0.2607 -0.1513
11103TIP3    H154800   0.886   2.646   3.732 -0.9401 -0.8590  0.5255
11103TIP3    H254801   0.753   2.718   3.744 -0.1298  1.0013 -1.3028
11104TIP3   OH254802   5.915   1.164  15.034  0.2845 -0.2035  0.2537
11104TIP3    H154803   5.843   1.186  14.975  1.3067 -0.2491 -1.0399
11104TIP3    H254804   5.885   1.086  15.080 -0.2009 -0.6745 -0.8291
11105TIP3   OH254805   4.993   4.660  11.222 -0.2694  0.0395 -0.1011
11105TIP3    H154806   5.012   4.754  11.224  0.0935 -0.0400  0.3208
11105TIP3    H254807   4.972   4.638  11.313 -0.0510 -0.3470 -0.1415
11106TIP3   OH254808   1.617   1.628  15.364  0.3440 -0.0983  0.1682
11106TIP3    H154809   1.569   1.674  15.434  1.8897 -4.4038  4.3166
11106TIP3    H254810   1.562   1.553  15.342  1.9390 -1.2473  0.0114
11107TIP3   OH254811   5.697   4.945   2.267  0.0160  0.0017  0.3000
11107TIP3    H154812   5.706   4.998   2.188  1.3074  1.2346  1.2314
11107TIP3    H254813   5.610   4.965   2.300 -1.0377 -1.4937 -1.4698
11108TIP3   OH254814   0.580   3.290  14.477  0.2850 -0.6548 -0.5752
11108TIP3    H154815   0.639   3.364  14.488 -0.3602 -0.3458  0.8568
11108TIP3    H254816   0.582   3.245  14.561 -0.3192 -1.5328 -1.0252
11109TIP3   OH254817   6.533   0.059  13.695  0.2728  0.6265 -0.6637
11109TIP3    H154818   6.527   0.151  13.721  2.6830  0.9266 -1.0526
11109TIP3    H254819   6.521   0.010  13.776 -0.8844  1.2692 -0.4349
11110TIP3   OH254820   3.260   5.769  15.431 -0.3518  0.0013  0.0744
11110TIP3    H154821   3.348   5.794  15.406 -0.5322  0.0890 -0.4721
11110TIP3    H254822   3.204   5.840  15.400 -0.6538 -0.2111  0.1201
11111TIP3   OH254823   3.675   5.902   5.144 -0.3389  0.0499 -0.2056
11111TIP3    H154824   3.621   5.951   5.205  0.0478  0.1219  0.0745
11111TIP3    H254825   3.740   5.964   5.113  1.0504 -0.6569  1.2428
11112TIP3   OH254826   3.807   5.003   2.575  0.0883 -0.3477  0.1850
11112TIP3    H154827   3.792   5.034   2.485  0.2537 -0.0661  0.2535
11112TIP3    H254828   3.833   5.081   2.623  0.9547 -0.6802  0.2569
11113TIP3   OH254829   4.013   5.697  13.628 -0.7274  0.3714  0.5252
11113TIP3    H154830   3.934   5.725  13.582 -0.4093  0.5320  0.0776
11113TIP3    H254831   4.027   5.607  13.599  0.8319  1.2632 -1.5497
11114TIP3   OH254832   2.780   1.341   3.547 -0.6587 -0.6156  0.0163
11114TIP3    H154833   2.690   1.361   3.574 -0.5907 -1.2446  0.6990
11114TIP3    H254834   2.788   1.246   3.556  0.1941 -0.5211  0.3139
11115TIP3   OH254835   2.313   2.872  12.291 -0.4510 -0.1536 -0.5217
11115TIP3    H154836   2.330   2.883  12.197 -0.6297 -1.3439 -0.7001
11115TIP3    H254837   2.357   2.947  12.332  2.0922 -1.1872 -1.2877
11116TIP3   OH254838   2.265   3.946  13.679 -0.0531  0.2393 -0.7237
11116TIP3    H154839   2.334   3.911  13.736 -0.1132 -1.0462 -1.4158
11116TIP3    H254840   2.192   3.963  13.738  0.2638 -0.0207 -0.2486
11117TIP3   OH254841   6.374   6.343  15.177  0.4480  0.0725  0.3424
11117TIP3    H154842   6.407   6.336  15.088 -0.2116  0.4844  0.0660
11117TIP3    H254843   6.398   6.431  15.206  1.0413 -0.2142  0.7245
11118TIP3   OH254844   1.119   0.339   2.903 -0.0538 -0.6556  0.0986
11118TIP3    H154845   1.163   0.422   2.923  1.0584 -1.0835 -0.4897
11118TIP3    H254846   1.049   0.362   2.843  0.3440 -0.1501 -0.1739
11119TIP3   OH254847   3.218   3.263  15.096 -0.1218  0.1388  0.1889
11119TIP3    H154848   3.297   3.273  15.149  1.0005  1.3065 -1.6344
11119TIP3    H254849   3.210   3.169  15.081 -0.6205 -0.2409  2.6263
11120TIP3   OH254850   1.362   3.501  12.266 -0.4361  0.0085 -0.0448
11120TIP3    H154851   1.368   3.427  12.205 -0.9851 -0.1277  0.0656
11120TIP3    H254852   1.349   3.577  12.210 -0.5903 -0.0706 -0.1158
11121TIP3   OH254853   4.194   0.219  13.939 -0.1250 -0.1529 -0.0762
11121TIP3    H154854   4.129   0.289  13.937 -1.4733 -1.3852 -2.9930
11121TIP3    H254855   4.253   0.238  13.867  2.2398  0.3884  1.9205
11122TIP3   OH254856   5.794   6.380  14.499 -0.1405 -0.9914 -0.2652
11122TIP3    H154857   5.870   6.323  14.488 -0.6857 -1.6272 -0.7675
11122TIP3    H254858   5.806   6.449  14.434  0.3662 -0.6921  0.1379
11123TIP3   OH254859   3.596   1.354   6.084 -0.6633 -0.7596  0.7584
11123TIP3    H154860   3.529   1.321   6.025 -0.2404 -0.4282  0.0920
11123TIP3    H254861   3.637   1.275   6.119  0.3380 -0.9635 -0.8287
11124TIP3   OH254862   2.730   5.914  14.245  0.6570  0.5747  0.4014
11124TIP3    H154863   2.705   5.869  14.165 -0.7412  2.3746 -0.2275
11124TIP3    H254864   2.725   5.848  14.313 -0.2038 -0.4836 -0.6749
11125TIP3   OH254865   3.106   3.048   3.971  0.8235  0.1941  0.1161
11125TIP3    H154866   3.048   2.976   3.993 -1.0476  1.6892  0.1729
11125TIP3    H254867   3.113   3.099   4.052 -0.3100  1.7302 -0.7177
11126TIP3   OH254868   6.431   3.238  11.453 -0.8763  0.2010 -0.0774
11126TIP3    H154869   6.466   3.291  11.525  0.7890 -2.2882  1.0079
11126TIP3    H254870   6.488   3.161  11.450 -2.4097 -0.8952 -2.4991
11127TIP3   OH254871   6.529   2.816   3.975 -0.3935  0.5806 -0.2541
11127TIP3    H154872   6.475   2.792   3.899 -0.5912 -2.6498  0.8465
11127TIP3    H254873   6.519   2.743   4.036  2.5189  1.5144  1.4403
11128TIP3   OH254874   0.270   4.113   3.632  0.4179 -0.2976 -0.1942
11128TIP3    H154875   0.201   4.114   3.699 -0.9174  1.1876 -1.5484
11128TIP3    H254876   0.347   4.082   3.679 -0.0861  2.2111  2.4707
11129TIP3   OH254877   4.048   1.719  16.752  0.3521  0.1917  0.4865
11129TIP3    H154878   3.989   1.795  16.758 -0.3333 -0.2845 -0.0830
11129TIP3    H254879   3.989   1.645  16.734  1.2100 -0.1368 -1.1037
11130TIP3   OH254880   4.826   6.653  17.212  0.4526  0.0624  0.3470
11130TIP3    H154881   4.863   6.688  17.294 -0.6375 -0.8297  1.2431
11130TIP3    H254882   4.872   6.570  17.200  0.6292  0.2053  0.0374
11131TIP3   OH254883   0.262   2.814  12.724  0.0669 -0.3061  0.3048
11131TIP3    H154884   0.258   2.781  12.814 -1.0714 -1.2952 -0.1083
11131TIP3    H254885   0.171   2.831  12.701  0.3736  0.0953 -0.6171
11132TIP3   OH254886   3.804   4.735  13.038  0.3296  0.0615 -0.0380
11132TIP3    H154887   3.867   4.663  13.031 -0.0196 -0.3841  1.2670
11132TIP3    H254888   3.839   4.789  13.109  0.7512  1.3485 -1.2108
11133TIP3   OH254889   1.743   2.467   3.600 -0.6842 -0.1298  0.0778
11133TIP3    H154890   1.826   2.491   3.558 -1.0958 -0.5719 -0.9942
11133TIP3    H254891   1.740   2.520   3.679 -0.2959  1.3430 -0.8765
11134TIP3   OH254892   6.522   4.477  12.401  0.2302  0.0313  0.8135
11134TIP3    H154893   6.458   4.474  12.472  0.5222 -1.7187  1.0463
11134TIP3    H254894   6.576   4.554  12.420 -2.4440  2.1458  0.0175
11135TIP3   OH254895   5.055   6.760   0.473 -0.3418  0.1315 -0.4639
11135TIP3    H154896   5.132   6.774   0.418  0.5272 -1.0269  0.4254
11135TIP3    H254897   5.090   6.753   0.562 -1.6080  0.7725  0.0908
11136TIP3   OH254898   1.246   5.170  12.253 -0.3201  0.3193 -0.8965
11136TIP3    H154899   1.254   5.076  12.236  1.4489 -0.1343  2.0855
11136TIP3    H254900   1.161   5.179  12.296  0.2610 -0.1908  0.3826
11137TIP3   OH254901   2.256   0.763   3.033  0.2659  0.0798 -0.2512
11137TIP3    H154902   2.261   0.715   3.115  0.3408  0.3704 -0.0843
11137TIP3    H254903   2.162   0.768   3.013  0.2873 -0.5805 -0.5372
11138TIP3   OH254904   3.315   1.279   5.749  0.1300  0.2782 -0.2118
11138TIP3    H154905   3.240   1.279   5.809  0.7342  0.8174  0.5516
11138TIP3    H254906   3.380   1.225   5.793  0.4538  0.3968 -0.5460
11139TIP3   OH254907   2.792   2.826   0.888  0.5706  0.3553 -0.2478
11139TIP3    H154908   2.799   2.796   0.979  0.5357  0.3390 -0.2503
11139TIP3    H254909   2.759   2.916   0.895 -0.3001  0.0402 -0.2747
11140TIP3   OH254910   2.144   6.171  14.628  0.1715 -0.2970  0.1247
11140TIP3    H154911   2.092   6.091  14.636  1.0928 -0.9702 -0.4552
11140TIP3    H254912   2.146   6.189  14.534 -0.4344  0.6845  0.2956
11141TIP3   OH254913   2.113   3.583  14.378 -0.4074  0.3420  0.2587
11141TIP3    H154914   2.161   3.665  14.389  2.1768 -1.1590  0.4770
11141TIP3    H254915   2.035   3.594  14.433  0.7910  1.9493  1.7223
11142TIP3   OH254916   4.808   4.332  13.178  0.0888  0.4002 -0.8179
11142TIP3    H154917   4.713   4.314  13.180  0.0842  0.4516 -0.6405
11142TIP3    H254918   4.820   4.409  13.233 -0.0385  1.6407 -2.4888
11143TIP3   OH254919   5.657   2.948   3.953  0.7350 -0.7098  0.3435
11143TIP3    H154920   5.663   2.965   4.047  2.3100 -1.3307  0.3824
11143TIP3    H254921   5.659   2.853   3.945 -1.1028 -0.7089 -0.2331
11144TIP3   OH254922   3.323   5.389  13.170 -0.3536  0.1200 -0.0650
11144TIP3    H154923   3.323   5.329  13.245 -0.5974 -1.8538 -1.6005
11144TIP3    H254924   3.251   5.450  13.187 -0.8207 -0.7129  0.9845
11145TIP3   OH254925   2.117   2.578   4.757  0.1352 -0.6653  0.4989
11145TIP3    H154926   2.060   2.559   4.832  0.0884 -0.2812  0.5640
11145TIP3    H254927   2.169   2.499   4.746 -0.2709 -0.9426  0.5667
11146TIP3   OH254928   1.840   4.176   3.278  0.3064 -0.1124 -0.0035
11146TIP3    H154929   1.916   4.123   3.304  0.3283  0.1674  0.5080
11146TIP3    H254930   1.801   4.127   3.206  2.1066  0.7074 -1.5867
11147TIP3   OH254931   0.566   1.230  16.682  0.1200  0.1313  0.1420
11147TIP3    H154932   0.550   1.137  16.696  0.3395  0.2562  1.2996
11147TIP3    H254933   0.567   1.241  16.587  0.1455 -1.0556  0.0051
11148TIP3   OH254934   5.658   1.682  11.919 -0.4479  0.2958  0.0930
11148TIP3    H154935   5.634   1.770  11.891  0.1196  0.1906 -0.7549
11148TIP3    H254936   5.748   1.689  11.949 -0.5592  0.1030  0.4711
11149TIP3   OH254937   2.384   3.931  15.682  0.1253  0.3006  0.2798
11149TIP3    H154938   2.414   4.018  15.709 -0.0942  0.6588 -0.6139
11149TIP3    H254939   2.298   3.921  15.725 -0.4757  1.0942 -0.7191
11150TIP3   OH254940   0.527   2.806   3.112 -0.4153  0.0591 -0.1768
11150TIP3    H154941   0.448   2.764   3.145  0.4786 -0.8659  0.8254
11150TIP3    H254942   0.552   2.867   3.181  0.3333 -0.4187 -0.0195
11151TIP3   OH254943   6.405   5.827   1.242 -0.0636  0.1722 -0.1538
11151TIP3    H154944   6.375   5.837   1.333 -0.2795 -2.6997  0.1346
11151TIP3    H254945   6.500   5.837   1.248  0.0030 -0.7472  0.5314
11152TIP3   OH254946   2.560   2.271   4.835 -0.5369  0.5660 -0.2533
11152TIP3    H154947   2.560   2.240   4.926 -0.9443 -0.7516 -0.6857
11152TIP3    H254948   2.580   2.193   4.783  0.8617  1.5602 -1.2316
11153TIP3   OH254949   0.915   4.619   1.607 -0.2431  0.3579  0.1937
11153TIP3    H154950   0.821   4.605   1.605 -0.0721 -0.9084  0.3534
11153TIP3    H254951   0.953   4.536   1.578  0.8118  1.1570 -0.7992
11154TIP3   OH254952   0.804   4.937   2.347  0.3220 -0.2227 -0.7850
11154TIP3    H154953   0.709   4.928   2.341  0.2041  0.6344 -0.3507
11154TIP3    H254954   0.835   4.935   2.257  0.0819 -2.4223 -0.8333
11155TIP3   OH254955   1.364   1.775  13.143 -0.3305  0.1012  0.0774
11155TIP3    H154956   1.269   1.785  13.147 -0.2592  1.9543 -2.0200
11155TIP3    H254957   1.398   1.863  13.160  0.9424 -0.1631 -1.0411
11156TIP3   OH254958   3.351   0.618  11.701 -0.6490  0.6097 -0.2211
11156TIP3    H154959   3.278   0.637  11.761 -0.0869 -0.8470  0.9477
11156TIP3    H254960   3.315   0.555  11.639 -0.7249  0.7768 -0.3454
11157TIP3   OH254961   0.493   1.655  12.565 -0.4281  0.3826  0.2779
11157TIP3    H154962   0.524   1.670  12.655  0.7248 -1.7147  0.2620
11157TIP3    H254963   0.434   1.580  12.572 -0.0932  0.0172 -0.7659
11158TIP3   OH254964   6.611   4.829   1.419  0.2297 -0.2754 -0.1357
11158TIP3    H154965   6.536   4.874   1.458 -0.3122 -1.5523  0.3121
11158TIP3    H254966   6.685   4.850   1.476 -0.1023 -0.2739  0.2873
11159TIP3   OH254967   4.215   5.749  13.101 -0.0474 -0.1888  0.7817
11159TIP3    H154968   4.215   5.722  13.192  0.1688  0.5430  0.9958
11159TIP3    H254969   4.151   5.820  13.096  0.7516  0.5272  0.5859
11160TIP3   OH254970   2.791   0.584   4.147 -0.3991  0.3588  0.1520
11160TIP3    H154971   2.696   0.590   4.152 -0.3737 -0.2465  1.4662
11160TIP3    H254972   2.808   0.523   4.075 -0.9797  1.0363 -0.5696
11161TIP3   OH254973   3.514   4.901  15.105  0.6398  0.3422  0.1306
11161TIP3    H154974   3.437   4.924  15.053  0.6418  1.4896  0.6181
11161TIP3    H254975   3.496   4.812  15.137  0.1337  0.0762 -0.8720
11162TIP3   OH254976   4.868   1.271   2.075  0.4231 -0.0196 -0.4947
11162TIP3    H154977   4.930   1.220   2.127  0.4996  0.5594 -0.0196
11162TIP3    H254978   4.915   1.289   1.993  0.7322  0.0678 -0.2990
11163TIP3   OH254979   5.706   1.198  11.996 -0.0391 -0.3472  0.4426
11163TIP3    H154980   5.687   1.135  11.926 -0.0582  0.4765 -0.3041
11163TIP3    H254981   5.629   1.255  11.998  0.4933  0.3779  0.3176
11164TIP3   OH254982   4.583   3.002   3.293  0.2322  0.5939  0.2841
11164TIP3    H154983   4.590   2.919   3.246 -0.4228  0.9529 -0.4481
11164TIP3    H254984   4.499   2.997   3.337 -0.9664  1.9194 -1.8025
11165TIP3   OH254985   5.308   5.221   5.652  0.7903  0.1693  0.3253
11165TIP3    H154986   5.212   5.217   5.645  0.6821  0.2513  1.6963
11165TIP3    H254987   5.330   5.309   5.621  0.4158  0.1595  0.0287
11166TIP3   OH254988   0.849   1.508   2.373  0.4201 -0.2313 -0.0820
11166TIP3    H154989   0.802   1.509   2.456 -0.1752 -0.2022 -0.4189
11166TIP3    H254990   0.802   1.571   2.318  1.7181  0.8970  0.0618
11167TIP3   OH254991   1.989   4.943  13.789  0.0599  0.2761 -0.4486
11167TIP3    H154992   1.953   4.911  13.706  1.3617  1.6943 -1.6204
11167TIP3    H254993   1.917   4.938  13.851 -1.2683  0.2228 -1.9660
11168TIP3   OH254994   5.412   5.031   2.104 -0.1510  0.3441 -0.0301
11168TIP3    H154995   5.319   5.036   2.082 -0.1797 -1.7292 -0.4819
11168TIP3    H254996   5.417   4.965   2.172  1.1789 -0.7264 -1.1387
11169TIP3   OH254997   2.827   0.452   3.639  0.2072  0.0186 -0.2686
11169TIP3    H154998   2.871   0.536   3.653 -0.2613 -0.0735  1.9059
11169TIP3    H254999   2.837   0.436   3.545  1.9460  1.5871 -0.3969
11170TIP3   OH255000   0.310   3.786   5.967 -0.6786  0.2741  0.0364
11170TIP3    H155001   0.225   3.778   6.009 -0.7627  0.9982  0.0090
11170TIP3    H255002   0.315   3.878   5.940 -0.2451  0.0382 -0.7081
11171TIP3   OH255003   1.118   0.477  12.000  0.3452 -0.3191 -0.0154
11171TIP3    H155004   1.097   0.569  11.985 -0.2285 -0.6070 -1.0043
11171TIP3    H255005   1.164   0.449  11.921  2.7823 -0.2080  1.3352
11172TIP3   OH255006   1.350   0.979   7.092 -0.4313  0.1805  0.0469
11172TIP3    H155007   1.413   0.943   7.030 -0.8501  0.2774 -0.4312
11172TIP3    H255008   1.274   0.921   7.088 -0.8088  0.6872 -0.1770
11173TIP3   OH255009   6.372   5.104   5.337 -0.1624  0.6525 -0.6674
11173TIP3    H155010   6.455   5.151   5.326  0.0116  0.1631 -1.5308
11173TIP3    H255011   6.342   5.088   5.247  0.3007 -1.7951 -0.4054
11174TIP3   OH255012   2.077   0.037  13.465 -0.1532 -0.2916 -0.4286
11174TIP3    H155013   2.162   0.021  13.426 -0.9775 -2.2492 -1.4523
11174TIP3    H255014   2.026   0.079  13.396 -0.0634  0.7954  0.1536
11175TIP3   OH255015   6.718   0.144  11.755 -0.3582 -0.6278 -0.2892
11175TIP3    H155016   6.780   0.119  11.824 -0.7134 -0.7989 -0.0306
11175TIP3    H255017   6.633   0.114  11.787 -0.7851  0.8373 -0.0076
11176TIP3   OH255018   2.232   2.609   3.111  0.6134  0.5428  0.0625
11176TIP3    H155019   2.201   2.689   3.154  2.9022  0.9769  0.9677
11176TIP3    H255020   2.155   2.552   3.106 -0.3725  1.6953  1.9816
11177TIP3   OH255021   1.133   6.093   3.075 -0.2190  0.0739  0.1783
11177TIP3    H155022   1.204   6.088   3.011 -0.4368 -0.1931 -0.0489
11177TIP3    H255023   1.117   6.001   3.099 -0.3987  0.1436  0.3253
11178TIP3   OH255024   1.340   0.963   1.805  0.1741  0.0537 -0.1095
11178TIP3    H155025   1.289   0.884   1.786 -0.2944  0.3398 -0.0606
11178TIP3    H255026   1.430   0.939   1.786 -0.0529 -0.2733 -0.7831
11179TIP3   OH255027   1.969   1.175   4.729 -0.1750 -0.9355  0.0054
11179TIP3    H155028   1.951   1.081   4.725 -0.7520 -0.8060 -0.4620
11179TIP3    H255029   2.061   1.183   4.703 -0.0134 -1.4071  0.4230
11180TIP3   OH255030   0.065   4.347  16.819 -0.1696 -0.3145 -0.6499
11180TIP3    H155031   0.002   4.335  16.748 -0.5158  1.0257 -0.5868
11180TIP3    H255032   0.011   4.349  16.898  0.2364 -2.0433 -0.3122
11181TIP3   OH255033   3.473   1.233   0.813 -0.4173 -0.8258  0.1031
11181TIP3    H155034   3.471   1.212   0.719  0.8894  0.8891 -0.3343
11181TIP3    H255035   3.383   1.262   0.832 -1.0222 -2.3413 -0.3086
11182TIP3   OH255036   3.988   5.611   3.028 -0.2076  0.4373 -0.0131
11182TIP3    H155037   4.004   5.546   3.096 -0.2129  1.3460  0.8678
11182TIP3    H255038   4.001   5.695   3.072  4.0591  1.0156 -2.1872
11183TIP3   OH255039   4.048   6.374  15.578  0.3703  0.0932  0.5896
11183TIP3    H155040   4.083   6.329  15.501  1.2078 -3.1118  2.7120
11183TIP3    H255041   3.954   6.358  15.574  0.3050  0.6237 -0.1598
11184TIP3   OH255042   5.393   5.600  13.085  0.4669  0.0670 -0.4267
11184TIP3    H155043   5.339   5.678  13.101  0.5211 -0.0554  0.3789
11184TIP3    H255044   5.427   5.613  12.996 -3.0978 -1.1886 -2.0854
11185TIP3   OH255045   1.709   2.282  10.798 -0.3366  0.2335  0.3001
11185TIP3    H155046   1.627   2.277  10.848 -1.5506  0.1889 -1.6107
11185TIP3    H255047   1.722   2.193  10.765  1.0391  0.0095  1.4313
11186TIP3   OH255048   2.827   5.586   0.468 -0.1207 -0.7554 -0.3475
11186TIP3    H155049   2.793   5.605   0.556  1.0392 -0.9863  0.1650
11186TIP3    H255050   2.780   5.508   0.440 -0.8215 -0.4196 -0.1140
11187TIP3   OH255051   0.766   6.761   4.171 -0.4194  0.7945  0.3557
11187TIP3    H155052   0.817   6.687   4.140 -0.5095  1.3095 -1.0323
11187TIP3    H255053   0.831   6.826   4.198 -0.3366  0.0170  2.0791
11188TIP3   OH255054   1.583   4.391   5.303  0.8195 -0.4349 -0.4216
11188TIP3    H155055   1.645   4.358   5.369  0.2015 -3.6642 -1.3463
11188TIP3    H255056   1.528   4.315   5.283 -3.5428  2.3759  0.4012
11189TIP3   OH255057   2.009   2.175  10.754  0.4167 -0.1035  0.1388
11189TIP3    H155058   1.930   2.228  10.741  1.2827  0.9809 -0.8870
11189TIP3    H255059   1.976   2.089  10.778 -1.0347  0.8690  1.7624
11190TIP3   OH255060   4.946   3.703  11.982 -0.3441 -0.2818 -0.7159
11190TIP3    H155061   4.931   3.797  11.995 -2.6068 -0.6488 -0.4934
11190TIP3    H255062   5.041   3.693  11.989 -0.1500  1.8606  0.1805
11191TIP3   OH255063   0.367   0.948   5.039  0.1370  0.0968 -0.0792
11191TIP3    H155064   0.437   0.903   5.086 -0.3925 -0.2046  0.4210
11191TIP3    H255065   0.411   1.021   4.996  1.1843 -1.3826 -1.6322
11192TIP3   OH255066   2.528   1.422  14.544  0.2345  0.1678  0.2167
11192TIP3    H155067   2.620   1.432  14.571  0.5157 -0.8791 -0.3384
11192TIP3    H255068   2.481   1.489  14.595  1.2871  0.6524  0.5723
11193TIP3   OH255069   6.577   5.395  16.802  0.1192  0.1427  0.1069
11193TIP3    H155070   6.650   5.449  16.772  0.9175 -1.6232 -1.2256
11193TIP3    H255071   6.552   5.343  16.725  0.2456 -2.3286  1.6729
11194TIP3   OH255072   4.217   6.664   0.008 -0.7514 -0.4538 -0.5010
11194TIP3    H155073   4.230   6.659  -0.086  0.2486  1.6179 -0.4893
11194TIP3    H255074   4.278   6.599   0.044 -0.4597 -0.5840 -1.2214
11195TIP3   OH255075   1.714   2.063   2.104 -0.1167 -0.9014  0.0552
11195TIP3    H155076   1.678   2.095   2.187  1.3571  2.2742 -0.4422
11195TIP3    H255077   1.803   2.036   2.125  0.3645  0.1987 -0.5034
11196TIP3   OH255078   4.960   3.916  14.451 -0.1974  0.2300  0.5878
11196TIP3    H155079   4.989   3.935  14.361 -1.4134  0.1960  0.1713
11196TIP3    H255080   4.914   3.995  14.478  0.6943  0.4625  1.4079
11197TIP3   OH255081   5.390   2.493  12.519 -0.4910  0.6784 -0.2289
11197TIP3    H155082   5.363   2.534  12.601 -0.6146 -0.1021  0.1230
11197TIP3    H255083   5.347   2.407  12.519  2.9695 -1.1345  0.9592
11198TIP3   OH255084   0.128   2.823   5.114 -0.4943 -0.5697  0.8728
11198TIP3    H155085   0.046   2.858   5.079 -0.4915  0.1748  1.5914
11198TIP3    H255086   0.104   2.783   5.197 -0.0092  0.3008  1.4336
11199TIP3   OH255087   5.439   2.290  16.557 -0.6768 -0.2866  0.2251
11199TIP3    H155088   5.458   2.353  16.627 -1.7434 -0.3758  0.5941
11199TIP3    H255089   5.357   2.321  16.519  0.4515  0.4205 -1.7409
11200TIP3   OH255090   3.665   2.809  10.961 -0.0679 -0.4438  0.3165
11200TIP3    H155091   3.663   2.894  11.006  0.9587 -0.3402  0.1783
11200TIP3    H255092   3.746   2.768  10.992 -0.7687 -1.5387  0.6908
11201TIP3   OH255093   2.543   4.973  11.948  0.1678  0.2441 -0.4205
11201TIP3    H155094   2.557   5.064  11.921  0.1498 -0.0483 -1.4269
11201TIP3    H255095   2.483   4.980  12.022  0.5879  1.0879 -0.1469
11202TIP3   OH255096   1.358   0.001  16.246  0.1254 -0.3074 -0.9681
11202TIP3    H155097   1.320  -0.080  16.212 -0.9158  0.1121 -0.8253
11202TIP3    H255098   1.283   0.061  16.254  0.4827 -0.1394  1.3213
11203TIP3   OH255099   5.661   3.158   1.283  0.4834 -0.5535  0.0856
11203TIP3    H155100   5.619   3.076   1.309 -1.5087  0.5946  0.4967
11203TIP3    H255101   5.692   3.141   1.194 -2.4187 -0.8614 -0.9130
11204TIP3   OH255102   3.032   6.267   5.445 -0.4380  0.1089 -0.1489
11204TIP3    H155103   3.014   6.317   5.525  0.7965  0.6167 -0.1697
11204TIP3    H255104   3.013   6.329   5.374 -2.4023 -0.6315 -0.2861
11205TIP3   OH255105   0.354   2.036   0.457 -0.1839  0.2042 -0.2991
11205TIP3    H155106   0.372   1.945   0.434  0.4791  0.4309 -0.6986
11205TIP3    H255107   0.430   2.062   0.509 -0.7901  0.2615  0.5599
11206TIP3   OH255108   1.111   1.816  15.775  0.0794 -0.8783  0.5104
11206TIP3    H155109   1.017   1.824  15.759  0.3630  1.0074 -0.3164
11206TIP3    H255110   1.143   1.906  15.780  1.7777 -1.4985  1.2170
11207TIP3   OH255111   4.617   0.203  16.005  0.4688 -0.0888 -0.1988
11207TIP3    H155112   4.564   0.125  15.989  2.3716 -1.4119 -0.2497
11207TIP3    H255113   4.557   0.276  15.991 -1.4447 -1.5390  0.1840
11208TIP3   OH255114   2.189   0.555   1.560 -0.2025  0.7384  0.1010
11208TIP3    H155115   2.234   0.579   1.479 -1.7513  0.1237 -0.9579
11208TIP3    H255116   2.142   0.635   1.586  0.6254  1.0591  0.6255
11209TIP3   OH255117   2.414   4.853   1.884  0.3474  0.4322  0.2168
11209TIP3    H155118   2.396   4.815   1.798 -1.3456  0.7431  0.4272
11209TIP3    H255119   2.450   4.780   1.934  0.1048 -0.0899 -0.3600
11210TIP3   OH255120   5.483   2.082  13.513  0.1389 -0.0584 -0.4242
11210TIP3    H155121   5.387   2.085  13.512  0.1264 -0.4804 -0.7570
11210TIP3    H255122   5.509   2.168  13.545 -0.3982 -0.8700  2.3482
11211TIP3   OH255123   5.215   2.704   1.856 -0.6339  0.2824  0.0940
11211TIP3    H155124   5.209   2.777   1.794 -0.0036  0.6575  0.4763
11211TIP3    H255125   5.298   2.661   1.835 -1.0852 -0.4362 -0.2443
11212TIP3   OH255126   1.016   1.224  15.700 -0.5467 -0.3408  0.2459
11212TIP3    H155127   0.958   1.152  15.675 -0.7753  0.3100 -1.1095
11212TIP3    H255128   1.104   1.188  15.692 -0.7137 -0.9700  1.1641
11213TIP3   OH255129   2.065   2.168  17.262 -0.1371  0.4050 -0.1185
11213TIP3    H155130   2.147   2.209  17.291  0.0869  1.1999 -1.8123
11213TIP3    H255131   2.045   2.104  17.330  2.7265 -0.8697 -0.3865
11214TIP3   OH255132   0.961   4.312  12.045 -0.6715  0.1295 -0.2897
11214TIP3    H155133   0.909   4.238  12.014  0.2684 -0.5550 -0.2512
11214TIP3    H255134   0.957   4.376  11.974 -2.7374  0.6891  0.2912
11215TIP3   OH255135   4.137   1.719   5.582  1.0133 -0.1421  0.9974
11215TIP3    H155136   4.188   1.665   5.521 -0.2875  0.6748 -0.8581
11215TIP3    H255137   4.203   1.764   5.635  2.3439  2.2794 -2.5541
11216TIP3   OH255138   2.549   0.346  12.610  0.1539 -0.1024 -0.1154
11216TIP3    H155139   2.557   0.288  12.686 -0.9823 -1.7564 -1.2085
11216TIP3    H255140   2.455   0.361  12.601  0.3523  0.8852 -0.6167
11217TIP3   OH255141   3.385   2.842   3.375  0.0046  0.1588 -0.1076
11217TIP3    H155142   3.364   2.923   3.421  0.0470  0.3086 -0.3466
11217TIP3    H255143   3.470   2.815   3.410 -0.2394 -0.0487  0.3259
11218TIP3   OH255144   4.967   0.255  16.898 -0.4819  0.5580  0.3744
11218TIP3    H155145   4.998   0.214  16.979  0.1144  0.0682 -0.1043
11218TIP3    H255146   4.945   0.181  16.841  0.4871  0.9087 -0.4489
11219TIP3   OH255147   6.725   0.942  12.526 -0.2755  0.3479  0.4097
11219TIP3    H155148   6.662   1.011  12.547  1.1774  1.6209  0.7123
11219TIP3    H255149   6.692   0.864  12.572 -1.6731  0.9574  0.4545
11220TIP3   OH255150   6.787   4.081  16.685 -0.4555  0.5277  0.6560
11220TIP3    H155151   6.874   4.054  16.655 -0.0252  1.4963  1.0043
11220TIP3    H255152   6.727   4.018  16.645  0.4292 -0.3237  0.6401
11221TIP3   OH255153   6.660   5.756  11.179  0.6685 -0.1629 -0.2201
11221TIP3    H155154   6.666   5.720  11.091 -1.3625  0.1235 -0.5110
11221TIP3    H255155   6.661   5.851  11.166  0.7333 -0.1198  0.0881
11222TIP3   OH255156   6.772   0.364   2.052  0.3109  0.6062  0.0286
11222TIP3    H155157   6.839   0.297   2.070  0.0557 -0.2780 -2.0948
11222TIP3    H255158   6.788   0.432   2.117  1.7895 -0.6608  1.0449
11223TIP3   OH255159   2.124   2.365  14.948 -0.2868 -0.3923 -0.4113
11223TIP3    H155160   2.029   2.349  14.951 -0.3089 -0.8112 -2.6502
11223TIP3    H255161   2.154   2.316  14.872  1.7850 -0.4191  0.3887
11224TIP3   OH255162   0.052   5.063   5.394 -0.0863  0.0832 -0.7125
11224TIP3    H155163  -0.035   5.088   5.364  0.3581  2.5109 -0.1069
11224TIP3    H255164   0.112   5.119   5.344  0.9775  0.1560  0.6020
11225TIP3   OH255165   5.599   0.240  16.608  0.1963  0.0744 -0.5142
11225TIP3    H155166   5.603   0.301  16.682  1.2598 -0.3700 -0.1904
11225TIP3    H255167   5.555   0.162  16.644  1.1717 -0.3376 -0.1980
11226TIP3   OH255168   4.502   2.089   5.402  0.8643  0.2375  0.4398
11226TIP3    H155169   4.458   2.074   5.318 -1.5601  2.6821  1.1991
11226TIP3    H255170   4.595   2.083   5.381  0.2504 -1.9786 -1.8540
11227TIP3   OH255171   4.514   5.403   0.087 -1.0021  0.0583  0.2560
11227TIP3    H155172   4.480   5.399   0.177 -1.8067  0.6753 -0.0144
11227TIP3    H255173   4.522   5.496   0.069 -0.2766 -0.0743 -0.1103
11228TIP3   OH255174   3.433   4.042  16.795 -0.3197 -0.2863  0.0721
11228TIP3    H155175   3.447   3.982  16.869 -0.0493 -0.3623 -0.0433
11228TIP3    H255176   3.404   3.986  16.724  0.4273 -0.3436 -0.1885
11229TIP3   OH255177   6.237   2.701   6.419 -0.6858  0.5671  0.4588
11229TIP3    H155178   6.249   2.718   6.325 -2.2419 -0.0294  0.1377
11229TIP3    H255179   6.269   2.611   6.430 -0.5483  0.6203  0.5015
11230TIP3   OH255180   0.537   1.754   5.734  0.5242 -0.4056  0.1127
11230TIP3    H155181   0.544   1.833   5.681  0.1692 -1.7854 -2.0573
11230TIP3    H255182   0.493   1.782   5.814  2.2117  1.9874  0.2511
11231TIP3   OH255183   0.022   3.790  13.002  0.2947  0.1381 -0.7827
11231TIP3    H155184   0.076   3.725  12.957  0.9105  0.7944 -0.9874
11231TIP3    H255185  -0.059   3.793  12.952  0.4379 -0.1534 -1.0318
11232TIP3   OH255186   4.731   1.360   2.992 -0.0978 -0.2004  0.1891
11232TIP3    H155187   4.687   1.345   2.909 -0.5481  1.3567  0.1240
11232TIP3    H255188   4.662   1.350   3.058 -0.2502  0.8394  0.1939
11233TIP3   OH255189   5.007   6.123  11.574 -0.4760  0.9586 -0.0150
11233TIP3    H155190   5.089   6.086  11.609  0.5666  2.0125 -1.2890
11233TIP3    H255191   5.034   6.203  11.529 -2.0916  0.8258 -1.2687
11234TIP3   OH255192   6.690   0.184   3.902 -0.5739  0.0815 -0.0077
11234TIP3    H155193   6.680   0.267   3.947  0.2518  0.1164  0.1192
11234TIP3    H255194   6.605   0.142   3.910 -1.7485  1.9395 -2.1404
11235TIP3   OH255195   6.345   5.127  15.836 -0.3823  0.2329  0.1029
11235TIP3    H155196   6.334   5.221  15.822  0.5083  0.4574  0.8081
11235TIP3    H255197   6.408   5.100  15.769  0.2728  0.3804  0.6520
11236TIP3   OH255198   0.763   2.649  11.705 -0.8807 -0.2059 -0.3482
11236TIP3    H155199   0.794   2.585  11.640 -1.1087  0.2916 -0.9596
11236TIP3    H255200   0.843   2.683  11.745 -0.8547 -3.2500  2.3421
11237TIP3   OH255201   5.145   2.535  16.782 -0.3943  0.2526  0.1420
11237TIP3    H155202   5.078   2.472  16.754  1.1816 -0.9756 -0.9871
11237TIP3    H255203   5.176   2.501  16.866 -1.2099  0.8372  0.6760
11238TIP3   OH255204   1.338   5.334   1.222  0.2992 -0.1074 -0.0791
11238TIP3    H155205   1.277   5.364   1.289  0.6648 -0.3685  0.3787
11238TIP3    H255206   1.408   5.291   1.271 -1.4217 -3.9286 -0.8140
11239TIP3   OH255207   3.567   1.053   2.577 -0.2724 -0.5896 -0.2435
11239TIP3    H155208   3.515   1.134   2.575  0.3606 -0.1833 -0.3737
11239TIP3    H255209   3.540   1.006   2.499 -0.4395 -0.3701 -0.3192
11240TIP3   OH255210   2.120   4.277  13.190  0.3335  0.2920  0.7078
11240TIP3    H155211   2.127   4.189  13.228 -0.8887 -0.4411 -0.6971
11240TIP3    H255212   2.127   4.262  13.096 -0.1047  1.6848  0.4459
11241TIP3   OH255213   2.830   5.465   0.039  0.0148  0.5164  0.2192
11241TIP3    H155214   2.826   5.558   0.062  1.5797  0.1549  2.1373
11241TIP3    H255215   2.832   5.464  -0.057 -2.1489  2.3285  0.1213
11242TIP3   OH255216   6.730   1.119  11.855  1.1539  0.2922 -0.5023
11242TIP3    H155217   6.820   1.096  11.880  1.1770  0.7159 -0.1898
11242TIP3    H255218   6.736   1.211  11.828  0.9757  0.0749 -1.3130
11243TIP3   OH255219   6.375   3.916  12.539  0.1729  0.6846  0.7305
11243TIP3    H155220   6.419   3.983  12.591 -0.2812  1.4518  0.1286
11243TIP3    H255221   6.289   3.953  12.520 -0.5910 -0.6184  1.5327
11244TIP3   OH255222   4.889   4.641   4.960  0.4956 -0.3413  0.8647
11244TIP3    H155223   4.868   4.733   4.972  0.5583 -0.6104  3.2396
11244TIP3    H255224   4.809   4.602   4.924  0.9096  0.8758 -1.4203
11245TIP3   OH255225   0.539   4.268   5.521 -0.2512 -0.0569 -0.0162
11245TIP3    H155226   0.526   4.175   5.535 -0.6049  0.0766  0.5831
11245TIP3    H255227   0.528   4.281   5.427  2.0308 -0.9644 -0.4347
11246TIP3   OH255228   0.486   3.412  11.783 -0.1963 -0.1326 -0.4013
11246TIP3    H155229   0.500   3.319  11.799 -0.3753 -0.1239 -0.1924
11246TIP3    H255230   0.526   3.455  11.858  0.2348 -0.0224 -0.6966
11247TIP3   OH255231   2.167   5.369  11.187  0.0856  0.5148 -0.3731
11247TIP3    H155232   2.199   5.393  11.100  0.6139  1.4074  0.0663
11247TIP3    H255233   2.076   5.396  11.187 -0.4757 -1.3130 -1.3513
11248TIP3   OH255234   6.468   5.171   5.985  0.3388  0.4902 -0.1037
11248TIP3    H155235   6.376   5.179   6.009  0.2792 -1.2484  0.2788
11248TIP3    H255236   6.470   5.097   5.924  1.8945 -1.4343  2.1952
11249TIP3   OH255237   0.140   0.149  14.524  0.2921  0.1890 -0.7225
11249TIP3    H155238   0.233   0.135  14.541  0.0597 -0.8454 -0.2450
11249TIP3    H255239   0.103   0.173  14.609 -0.1502 -0.9451 -0.5915
11250TIP3   OH255240   0.146   5.075   5.120  0.4259  0.8723  0.8522
11250TIP3    H155241   0.071   5.032   5.078  0.1384 -0.3935  2.5872
11250TIP3    H255242   0.195   5.114   5.048 -2.1229  2.0971 -0.2971
11251TIP3   OH255243   0.288   3.223  12.745 -0.1224  0.0120  0.0308
11251TIP3    H155244   0.210   3.169  12.733 -0.4388  0.2114  1.1403
11251TIP3    H255245   0.274   3.300  12.690 -0.6049 -0.0578  0.0613
11252TIP3   OH255246   1.044   4.133   4.956 -0.2192  0.5100  0.4516
11252TIP3    H155247   1.001   4.182   5.026 -1.2100  0.6357 -0.2317
11252TIP3    H255248   1.119   4.187   4.931  0.8486 -0.1320  2.2493
11253TIP3   OH255249   0.098   0.109  16.969 -0.0148 -0.2966 -0.5824
11253TIP3    H155250   0.165   0.062  17.018 -1.7511 -1.6157  0.6035
11253TIP3    H255251   0.044   0.041  16.930 -0.6878  0.7376 -1.4961
11254TIP3   OH255252   2.190   5.114  15.139 -0.2751 -0.2142  0.3766
11254TIP3    H155253   2.229   5.058  15.073 -0.7150  0.2001 -0.2411
11254TIP3    H255254   2.211   5.072  15.222 -1.3335 -1.7436 -0.1215
11255TIP3   OH255255   1.947   2.486   4.302 -0.2001  0.7257  0.1082
11255TIP3    H155256   1.940   2.540   4.381  0.3829 -0.1354  0.7616
11255TIP3    H255257   2.033   2.507   4.265 -0.3337  0.8816 -0.1154
11256TIP3   OH255258   6.761   2.331   1.459 -0.2663  0.1357 -0.8987
11256TIP3    H155259   6.804   2.263   1.512 -0.1473  0.4290 -0.6175
11256TIP3    H255260   6.825   2.401   1.454 -0.3727  0.2060 -1.2338
11257TIP3   OH255261   4.236   4.472   4.396  0.4772 -0.3163  0.3634
11257TIP3    H155262   4.278   4.450   4.479  2.4306  0.0971 -0.5009
11257TIP3    H255263   4.193   4.391   4.369  1.2922 -0.9455  0.9299
11258TIP3   OH255264   6.395   4.119   4.115 -0.3895  0.3359 -0.3767
11258TIP3    H155265   6.421   4.145   4.027  0.6706  0.4874 -0.0246
11258TIP3    H255266   6.445   4.039   4.132  0.6834  1.2175  0.7187
11259TIP3   OH255267   0.180   1.019  11.864 -0.2526  0.1615 -0.0924
11259TIP3    H155268   0.171   0.984  11.775  0.7025  0.5778 -0.3649
11259TIP3    H255269   0.170   0.942  11.920  0.4012 -0.3267 -0.6240
11260TIP3   OH255270   6.221   4.876   1.206 -0.0903  0.0085  0.2852
11260TIP3    H155271   6.298   4.932   1.196 -0.9374  1.3784  1.2839
11260TIP3    H255272   6.249   4.808   1.268  0.2837  0.5500  0.7078
11261TIP3   OH255273   0.498   3.998  13.792 -0.2126 -0.2744  0.0299
11261TIP3    H155274   0.402   4.002  13.784 -0.2309  0.1183  0.3839
11261TIP3    H255275   0.515   3.916  13.839 -0.2506 -1.3190 -1.7543
11262TIP3   OH255276   3.267   0.381   1.635  0.1052  0.6237 -0.4052
11262TIP3    H155277   3.213   0.326   1.579  0.5723 -0.1542 -0.1165
11262TIP3    H255278   3.213   0.457   1.656 -0.9921 -0.2995  0.1534
11263TIP3   OH255279   2.022   0.326  12.199 -0.2884  0.0192 -0.2438
11263TIP3    H155280   1.935   0.337  12.161 -0.6702  0.0118  0.6312
11263TIP3    H255281   2.031   0.232  12.214 -0.2510  0.0533 -0.0471
11264TIP3   OH255282   6.802   2.552   1.014 -0.6545  0.9026 -0.2090
11264TIP3    H155283   6.717   2.595   1.019 -0.8851  0.5214 -0.7993
11264TIP3    H255284   6.865   2.621   1.035 -1.1354  1.0556  0.7843
11265TIP3   OH255285   6.625   3.231  14.788 -0.1171  0.0276  0.1732
11265TIP3    H155286   6.576   3.237  14.870  0.9568 -0.3477  0.8590
11265TIP3    H255287   6.664   3.144  14.789 -0.9140 -0.3538 -1.2190
11266TIP3   OH255288   4.424   3.213   2.427 -0.0952 -0.3589  0.1442
11266TIP3    H155289   4.350   3.189   2.483 -0.5128  1.0570  0.2214
11266TIP3    H255290   4.392   3.200   2.338 -0.8983  1.4702  0.1416
11267TIP3   OH255291   4.076   6.259  12.078  0.2978  0.2175 -0.1061
11267TIP3    H155292   4.036   6.346  12.071  0.5064  0.2701 -0.7250
11267TIP3    H255293   4.004   6.200  12.099  0.4793  0.8471  2.4562
11268TIP3   OH255294   6.585   1.478   0.957 -0.6073 -0.3270  0.0657
11268TIP3    H155295   6.504   1.464   0.909  0.2165 -1.9306 -0.8660
11268TIP3    H255296   6.649   1.503   0.891 -0.1641  0.2602  0.7070
11269TIP3   OH255297   5.741   3.211   4.425  0.6630  0.7895  0.1819
11269TIP3    H155298   5.722   3.212   4.331  1.1491 -0.6112  0.0503
11269TIP3    H255299   5.656   3.220   4.466  0.1430 -1.0636 -0.4109
11270TIP3   OH255300   4.491   2.372   2.167  0.0521  0.1353 -0.6276
11270TIP3    H155301   4.586   2.362   2.163  0.0688  0.2369 -0.5056
11270TIP3    H255302   4.456   2.289   2.134  0.1695 -1.4379  2.9969
11271TIP3   OH255303   5.019   3.529  12.616 -0.4898  0.3457 -0.6417
11271TIP3    H155304   5.016   3.438  12.644  2.4091  0.7519  1.2358
11271TIP3    H255305   5.098   3.534  12.562 -1.2263  1.5203 -1.6259
11272TIP3   OH255306   5.461   2.249   5.940  0.1978  0.1798 -0.1566
11272TIP3    H155307   5.465   2.174   6.000 -0.0333  0.9543  0.8552
11272TIP3    H255308   5.367   2.263   5.926  0.1899  1.0460  0.6679
11273TIP3   OH255309   6.461   4.537   2.633  0.3247  0.0828  0.3472
11273TIP3    H155310   6.530   4.487   2.589 -0.3449  1.1691 -2.0711
11273TIP3    H255311   6.380   4.496   2.603 -0.1150  0.1048  1.5125
11274TIP3   OH255312   6.766   1.552   2.640  0.2002  0.9560 -0.5992
11274TIP3    H155313   6.843   1.500   2.617 -0.7217 -1.6850  1.9177
11274TIP3    H255314   6.798   1.611   2.709  0.2100  0.5038 -0.2105
11275TIP3   OH255315   2.416   2.257   2.790  0.2218 -0.3838  0.2472
11275TIP3    H155316   2.323   2.244   2.810 -0.8400  1.7580 -3.0204
11275TIP3    H255317   2.444   2.327   2.848 -1.8746  3.2490 -2.9535
11276TIP3   OH255318   0.567   0.790  16.179  0.0084 -0.0460 -0.5436
11276TIP3    H155319   0.604   0.708  16.147  0.0526  0.4893 -1.9080
11276TIP3    H255320   0.633   0.856  16.158 -0.1159  0.3657  0.3542
11277TIP3   OH255321   5.851   3.449  15.510  0.1487 -0.4909 -0.3869
11277TIP3    H155322   5.820   3.493  15.431  3.2381  0.2667 -1.2594
11277TIP3    H255323   5.943   3.427  15.491  0.2687 -2.3839  2.1163
11278TIP3   OH255324   1.232   5.592   5.615  0.5727  0.4778  0.0845
11278TIP3    H155325   1.175   5.518   5.592  1.2904 -0.7273  2.1101
11278TIP3    H255326   1.320   5.556   5.614  1.1195  1.7772 -0.7183
11279TIP3   OH255327   5.282   6.554   5.485  0.1592 -0.0095  0.1909
11279TIP3    H155328   5.244   6.466   5.495  0.7329 -0.6246 -2.6188
11279TIP3    H255329   5.215   6.613   5.521 -2.6398 -1.2388 -2.7343
11280TIP3   OH255330   5.477   5.027   1.281  0.0250 -0.0307 -0.0490
11280TIP3    H155331   5.495   5.032   1.375  1.3324  0.0150 -0.2958
11280TIP3    H255332   5.550   5.073   1.240 -0.6871  0.1978 -1.0788
11281TIP3   OH255333   0.604   4.467   4.975  0.0779  0.2848  0.1340
11281TIP3    H155334   0.614   4.394   5.037 -2.2976 -1.4418 -1.4020
11281TIP3    H255335   0.552   4.531   5.023 -0.4240 -0.3637  0.4743
11282TIP3   OH255336   2.748   3.099   6.156 -0.5043 -0.0155 -0.0111
11282TIP3    H155337   2.747   3.060   6.243 -0.4758  2.9253  1.3325
11282TIP3    H255338   2.799   3.179   6.165  0.1433 -0.0443 -2.9045
11283TIP3   OH255339   5.668   4.097   6.098  0.3551  0.0008 -0.1853
11283TIP3    H155340   5.607   4.070   6.028  0.9647  2.0050 -1.5372
11283TIP3    H255341   5.623   4.168   6.143  0.8155  0.0923  0.1308
11284TIP3   OH255342   5.125   6.752   1.993  0.1590 -0.4314  0.1426
11284TIP3    H155343   5.166   6.807   1.926  1.3114 -1.9438 -0.4256
11284TIP3    H255344   5.080   6.814   2.051  2.2013  1.1728  0.0676
11285TIP3   OH255345   1.733   3.590  16.871 -0.2330  0.2847  0.1471
11285TIP3    H155346   1.795   3.661  16.856 -1.3962  1.5299  1.1876
11285TIP3    H255347   1.730   3.579  16.966 -0.4114 -0.8642  0.0236
11286TIP3   OH255348   2.679   3.262   4.809  0.3857 -0.3908 -0.0186
11286TIP3    H155349   2.720   3.204   4.744 -1.9253 -0.6245 -1.3272
11286TIP3    H255350   2.632   3.202   4.868 -0.3716  0.0050 -0.2076
11287TIP3   OH255351   2.629   6.208   1.120  0.6198  0.4845  0.3247
11287TIP3    H155352   2.664   6.123   1.145 -1.6698 -1.3240 -2.2876
11287TIP3    H255353   2.697   6.247   1.065  1.8477  0.5447  1.8533
11288TIP3   OH255354   3.820   2.241  14.328 -0.3793  0.7304 -0.0722
11288TIP3    H155355   3.886   2.310  14.336  2.0297 -1.4881 -0.4281
11288TIP3    H255356   3.834   2.205  14.240 -0.8232 -0.9876  0.5540
11289TIP3   OH255357   2.047   4.541  12.335 -0.9566  0.1325  0.6281
11289TIP3    H155358   2.036   4.562  12.243 -0.1375 -2.7586 -0.1954
11289TIP3    H255359   1.987   4.468  12.350  1.3624 -1.6686  1.4813
11290TIP3   OH255360   2.379   6.783   1.895  0.1124  0.6969 -0.3670
11290TIP3    H155361   2.391   6.877   1.909 -0.3853  1.0595 -2.2779
11290TIP3    H255362   2.284   6.771   1.894  0.1733  0.2857 -0.9105
11291TIP3   OH255363   1.558   1.146  14.071  0.3397 -0.0037 -0.1023
11291TIP3    H155364   1.630   1.209  14.070 -0.3258  0.7758 -1.4005
11291TIP3    H255365   1.587   1.077  14.011 -0.7606  1.2456 -2.1337
11292TIP3   OH255366   3.441   6.596   3.710 -0.0284  0.8869 -0.3865
11292TIP3    H155367   3.448   6.630   3.621 -1.7062  0.4953 -0.6781
11292TIP3    H255368   3.420   6.673   3.764 -0.9951  0.7908 -0.6254
11293TIP3   OH255369   4.153   3.997   2.067  0.1523  0.3524 -0.1847
11293TIP3    H155370   4.187   3.930   2.127 -2.2940  0.0686  0.9361
11293TIP3    H255371   4.165   4.080   2.113  0.8972  0.4450 -0.5320
11294TIP3   OH255372   0.279   5.564  12.283 -0.4699  0.3262 -0.1497
11294TIP3    H155373   0.273   5.660  12.286 -1.5744  0.4500 -3.5532
11294TIP3    H255374   0.347   5.547  12.217 -0.4936 -1.2276  0.2207
11295TIP3   OH255375   2.234   0.277   0.189 -0.4392 -0.1635 -0.2221
11295TIP3    H155376   2.213   0.301   0.099  0.9438  0.0008 -0.4985
11295TIP3    H255377   2.324   0.306   0.202 -0.3442 -0.9525  0.9459
11296TIP3   OH255378   0.891   0.898   0.329  0.4570 -0.0034 -0.1104
11296TIP3    H155379   0.916   0.927   0.416 -1.4471  2.6027 -0.3552
11296TIP3    H255380   0.942   0.954   0.269 -2.0274  1.8665 -0.5899
11297TIP3   OH255381   1.298   5.285   5.827  0.2732 -0.5326  0.0870
11297TIP3    H155382   1.353   5.336   5.768 -2.2459  0.5597 -1.3792
11297TIP3    H255383   1.319   5.319   5.914 -0.0446  1.7699 -0.7027
11298TIP3   OH255384   1.464   4.578   3.561  0.2378  0.3362 -0.6783
11298TIP3    H155385   1.408   4.640   3.514 -0.0128  0.5773 -0.0559
11298TIP3    H255386   1.404   4.518   3.605  0.4795 -0.3724 -1.2969
11299TIP3   OH255387   6.460   3.331  10.773  0.1992 -0.1211  0.0502
11299TIP3    H155388   6.398   3.279  10.722  0.6677 -0.6704  0.0328
11299TIP3    H255389   6.452   3.420  10.737  0.7087 -0.5561 -1.1639
11300TIP3   OH255390   2.442   2.141  11.978  0.1015 -0.1793 -0.3451
11300TIP3    H155391   2.391   2.190  11.914  0.2356  0.0304 -0.2939
11300TIP3    H255392   2.419   2.180  12.062  0.0206 -0.3721 -0.2779
11301TIP3   OH255393   1.528   2.562   2.733  0.4092 -0.1557  0.3143
11301TIP3    H155394   1.504   2.596   2.819  0.2195 -0.0156  0.2081
11301TIP3    H255395   1.623   2.566   2.731  0.3818  0.5102  0.2473
11302TIP3   OH255396   0.374   5.801   0.578 -0.4721 -0.3582  0.0139
11302TIP3    H155397   0.321   5.757   0.511 -0.0779 -0.0213 -0.5313
11302TIP3    H255398   0.428   5.732   0.616 -1.1873 -0.6761  0.4658
11303TIP3   OH255399   2.183   3.996  14.655 -0.3594 -0.8165  0.1854
11303TIP3    H155400   2.186   3.904  14.682  1.5572 -1.4331 -1.9322
11303TIP3    H255401   2.266   4.032  14.686 -0.9744  0.1399  0.7402
11304TIP3   OH255402   4.878   2.187   0.507  0.0809  0.0685 -0.7479
11304TIP3    H155403   4.811   2.255   0.501  0.2262  0.3021  0.2251
11304TIP3    H255404   4.957   2.233   0.536  0.7303 -0.1752 -2.0545
11305TIP3   OH255405   5.130   5.969   2.727  0.0136  0.4036  0.2931
11305TIP3    H155406   5.187   5.896   2.703  0.1384  0.7052 -0.3334
11305TIP3    H255407   5.043   5.942   2.697 -0.1644 -0.0399  1.2145
11306TIP3   OH255408   2.785   2.226  14.063  0.2532 -0.0965 -0.0863
11306TIP3    H155409   2.800   2.210  14.156 -0.4554 -2.5294 -0.3459
11306TIP3    H255410   2.863   2.274  14.034  1.4229 -1.0633  1.3491
11307TIP3   OH255411   4.004   0.126  16.599 -0.0692 -0.2374  0.1864
11307TIP3    H155412   4.032   0.173  16.521  0.5023 -1.2984 -0.2574
11307TIP3    H255413   3.965   0.193  16.655  2.1894  1.0459  0.2647
11308TIP3   OH255414   4.638   2.990  11.276  0.1388  0.0729  0.0505
11308TIP3    H155415   4.656   2.981  11.369  0.1184 -0.6899 -0.0105
11308TIP3    H255416   4.607   3.079  11.265 -1.9674 -0.5150  1.1194
11309TIP3   OH255417   2.395   3.653  15.743 -0.0029  0.0121  0.4839
11309TIP3    H155418   2.406   3.742  15.708  0.1514 -0.4174 -0.5544
11309TIP3    H255419   2.479   3.611  15.726  0.1679 -0.1250  1.6109
11310TIP3   OH255420   1.035   2.601   5.236  0.2072 -0.2835  0.0880
11310TIP3    H155421   0.943   2.622   5.252  0.1781 -1.1283  1.1638
11310TIP3    H255422   1.041   2.586   5.142 -1.2797 -2.5707  0.3040
11311TIP3   OH255423   5.451   3.177   1.803  0.2670  0.4799 -0.1247
11311TIP3    H155424   5.487   3.112   1.863  4.7523  1.9649 -1.0206
11311TIP3    H255425   5.397   3.126   1.742 -0.4343 -1.6758  2.2288
11312TIP3   OH255426   4.923   0.330   2.058 -0.1171 -0.0039  1.2341
11312TIP3    H155427   4.839   0.347   2.102 -0.8709 -1.4207  0.3715
11312TIP3    H255428   4.915   0.241   2.025  0.4885  0.9502 -1.6469
11313TIP3   OH255429   5.784   4.875   1.525 -0.0603 -0.9900  0.1531
11313TIP3    H155430   5.736   4.957   1.533  0.7190 -0.5852  0.6659
11313TIP3    H255431   5.871   4.893   1.561  0.9343 -1.3393 -1.9992
11314TIP3   OH255432   6.504   4.633   5.767 -1.0202 -0.1749  0.3700
11314TIP3    H155433   6.547   4.719   5.772 -1.1070 -0.0878 -0.2734
11314TIP3    H255434   6.557   4.576   5.821 -0.6966  0.1819  0.4294
11315TIP3   OH255435   4.333   1.473  15.423  0.1074 -0.0095 -0.2370
11315TIP3    H155436   4.360   1.458  15.332  1.1331  0.8094 -0.0808
11315TIP3    H255437   4.321   1.568  15.429  0.0988 -0.0538  0.4994
11316TIP3   OH255438   1.002   0.667  16.240 -0.1327  0.4245 -0.4268
11316TIP3    H155439   1.090   0.667  16.279 -0.1022  1.5602 -0.4922
11316TIP3    H255440   1.017   0.688  16.148 -0.6642  2.8669  0.0184
11317TIP3   OH255441   6.418   6.245  16.338 -0.4708 -0.9111  0.6536
11317TIP3    H155442   6.413   6.199  16.422 -0.3329 -2.2401 -0.0570
11317TIP3    H255443   6.407   6.177  16.273 -2.3420  0.3559 -0.4130
11318TIP3   OH255444   1.282   2.707  14.030 -0.2651  0.2942 -0.0417
11318TIP3    H155445   1.212   2.644  14.048 -0.4794  0.5086 -0.1222
11318TIP3    H255446   1.314   2.683  13.942 -0.2350  0.1975 -0.0050
11319TIP3   OH255447   0.483   5.792  13.706 -0.0079  0.2212 -0.1046
11319TIP3    H155448   0.411   5.732  13.687 -0.8772  0.6279  1.7841
11319TIP3    H255449   0.470   5.816  13.798  3.0396 -0.3752  0.5298
11320TIP3   OH255450   4.466   1.560   5.558 -0.3267 -0.1748  0.1323
11320TIP3    H155451   4.495   1.510   5.482  2.2369  0.0871  0.8647
11320TIP3    H255452   4.473   1.651   5.531  0.0972 -0.0959  0.4930
11321TIP3   OH255453   0.208   5.098  15.676 -0.3143 -0.0703 -0.0000
11321TIP3    H155454   0.241   5.146  15.751  0.2722 -2.2757  1.2060
11321TIP3    H255455   0.279   5.100  15.612 -0.4687  1.0441 -0.1351
11322TIP3   OH255456   2.544   5.692  13.174  0.3263  0.2301 -0.5749
11322TIP3    H155457   2.504   5.773  13.141 -2.0914  0.9957  3.7540
11322TIP3    H255458   2.613   5.722  13.234  2.1213 -1.0318 -1.9410
11323TIP3   OH255459   4.080   6.752  15.003  0.4090 -0.2962  0.0040
11323TIP3    H155460   4.125   6.765  14.920  2.8529 -0.5902  1.2361
11323TIP3    H255461   3.988   6.737  14.979  0.5451  2.3993 -2.4421
11324TIP3   OH255462   4.313   1.727   3.459 -0.8391 -0.0069  0.1446
11324TIP3    H155463   4.355   1.643   3.439 -0.6940  0.1007 -0.0032
11324TIP3    H255464   4.239   1.704   3.516 -0.0031 -0.0961  1.2162
11325TIP3   OH255465   2.123   6.310   5.202  0.2996 -0.1066 -0.0188
11325TIP3    H155466   2.091   6.265   5.280 -0.2211 -0.0986 -0.2246
11325TIP3    H255467   2.065   6.282   5.132 -0.2242  1.1176 -0.0909
11326TIP3   OH255468   1.831   5.862  16.778 -0.0787 -0.5885  0.0522
11326TIP3    H155469   1.874   5.789  16.734 -1.0440 -0.6723 -0.7757
11326TIP3    H255470   1.793   5.913  16.707  1.1204  1.0749  0.5755
11327TIP3   OH255471   0.169   1.840  14.711 -0.4024  0.6109 -0.3236
11327TIP3    H155472   0.262   1.817  14.719 -1.2374 -2.9583 -0.0340
11327TIP3    H255473   0.130   1.813  14.794 -1.8395  1.4164 -0.7176
11328TIP3   OH255474   1.963   2.454   3.031 -0.1065  0.0691  0.4130
11328TIP3    H155475   1.906   2.492   3.098  0.0225  0.0148  0.5528
11328TIP3    H255476   1.919   2.373   3.005 -1.3155  1.1790 -1.1659
11329TIP3   OH255477   2.718   5.041   0.072 -0.1198 -0.2873  0.0243
11329TIP3    H155478   2.625   5.066   0.073  0.4290  1.8920 -0.2365
11329TIP3    H255479   2.758   5.101   0.009  1.4529 -1.2926  0.0401
11330TIP3   OH255480   0.970   4.580  11.054  0.3780 -0.4781 -0.4698
11330TIP3    H155481   1.049   4.528  11.037  0.0950 -0.7852 -0.8752
11330TIP3    H255482   0.898   4.518  11.042  0.1974 -1.0556  3.2876
11331TIP3   OH255483   0.055   2.018   6.470 -0.6296  0.6173  0.0375
11331TIP3    H155484   0.136   2.015   6.521 -0.5001 -0.8550 -0.2418
11331TIP3    H255485  -0.014   2.027   6.536 -0.2389  2.3740  0.2532
11332TIP3   OH255486   0.701   4.411  14.454  0.5302 -0.0814  0.5376
11332TIP3    H155487   0.645   4.337  14.430 -1.1197  0.8880  1.3233
11332TIP3    H255488   0.644   4.487  14.450  1.9605  1.0256  0.7478
11333TIP3   OH255489   1.916   6.028  17.004 -0.6504 -0.4291 -0.2136
11333TIP3    H155490   1.867   6.111  17.008  1.4595  0.9756 -2.0448
11333TIP3    H255491   1.867   5.975  16.940 -1.3990 -0.1692  0.1395
11334TIP3   OH255492   0.799   4.947   3.806 -0.0883 -0.1951  0.1889
11334TIP3    H155493   0.826   5.035   3.781 -0.5060  0.3304  1.5006
11334TIP3    H255494   0.709   4.939   3.775  0.5492 -0.8479 -1.5448
11335TIP3   OH255495   5.675   1.496  14.519  0.1678  0.0484 -0.2727
11335TIP3    H155496   5.607   1.453  14.467  0.1673 -0.5029  0.1900
11335TIP3    H255497   5.742   1.520  14.455  0.7074 -1.6673 -0.3713
11336TIP3   OH255498   6.610   5.639   0.151  0.0635 -0.4924 -0.2596
11336TIP3    H155499   6.662   5.690   0.213 -0.4113 -0.2577 -0.0537
11336TIP3    H255500   6.519   5.653   0.178 -0.0703 -1.5184 -0.1499
11337TIP3   OH255501   3.200   3.710  14.110  0.1824 -0.5625 -0.3581
11337TIP3    H155502   3.239   3.640  14.162 -0.1774  0.2755  1.0669
11337TIP3    H255503   3.275   3.764  14.083  0.1693  0.2273  1.1503
11338TIP3   OH255504   6.146   2.822   6.079 -0.0588  0.4505 -0.6842
11338TIP3    H155505   6.232   2.795   6.045  1.6892 -0.1281  3.7542
11338TIP3    H255506   6.161   2.910   6.112 -0.7052 -0.2056  1.4574
11339TIP3   OH255507   5.704   2.550  13.757  0.1092  0.0913  0.5243
11339TIP3    H155508   5.675   2.629  13.710  0.6644  0.1146  0.2147
11339TIP3    H255509   5.691   2.571  13.849 -1.2450 -0.0524  0.3799
11340TIP3   OH255510   0.834   5.433  12.922  0.2500  0.0202 -0.4239
11340TIP3    H155511   0.905   5.368  12.922  1.3219  1.1646 -0.6254
11340TIP3    H255512   0.859   5.495  12.991 -0.7929  0.1876 -0.1938
11341TIP3   OH255513   2.572   3.799  12.234  0.4257  0.4549 -0.3056
11341TIP3    H155514   2.508   3.835  12.173 -1.3597  1.7399  2.2308
11341TIP3    H255515   2.657   3.818  12.194 -0.6680  2.0906 -1.9225
11342TIP3   OH255516   6.044   0.552   0.511  0.1907  0.7339  0.1260
11342TIP3    H155517   6.055   0.457   0.505 -0.9520  0.6554 -1.0853
11342TIP3    H255518   6.064   0.573   0.602 -0.1527 -0.7672  0.5668
11343TIP3   OH255519   5.289   5.397  16.641  0.3356  0.3332  0.1096
11343TIP3    H155520   5.311   5.322  16.695 -1.0665  2.7653  4.3430
11343TIP3    H255521   5.373   5.434  16.615  1.0535 -0.4420  1.3101
11344TIP3   OH255522   5.691   4.338  12.287  0.0408 -0.1535 -0.3600
11344TIP3    H155523   5.760   4.389  12.245  0.7078  1.6887  2.8048
11344TIP3    H255524   5.618   4.400  12.297 -0.7344 -1.0469 -0.3931
11345TIP3   OH255525   5.504   0.610  16.212  0.0885 -0.3808 -0.0614
11345TIP3    H155526   5.563   0.575  16.145  1.0143  0.4364  0.3167
11345TIP3    H255527   5.490   0.536  16.272  0.9707 -0.5078  0.0086
11346TIP3   OH255528   4.904   3.667  16.308  0.5285 -0.1219 -0.3516
11346TIP3    H155529   4.861   3.597  16.358 -0.9506 -0.5397 -2.1280
11346TIP3    H255530   4.993   3.637  16.295 -0.1203 -1.7552 -1.1760
11347TIP3   OH255531   0.796   6.151  11.513 -0.7997  0.0528  0.1429
11347TIP3    H155532   0.759   6.236  11.535  3.0468  1.7723  0.4250
11347TIP3    H255533   0.792   6.100  11.594  0.1585  1.2851  0.9903
11348TIP3   OH255534   3.067   0.743  11.691  0.2815  0.2487  0.1839
11348TIP3    H155535   3.011   0.808  11.648  0.7076  1.3050  1.1783
11348TIP3    H255536   3.153   0.786  11.695  0.6315 -0.4852  0.6158
11349TIP3   OH255537   4.232   4.852   4.020 -0.5972 -0.2740  0.0598
11349TIP3    H155538   4.233   4.829   3.927 -3.1782 -1.0852  0.1855
11349TIP3    H255539   4.233   4.767   4.066  1.3309  0.1266  0.8188
11350TIP3   OH255540   3.126   6.625  12.733  0.1398 -0.1331 -0.2064
11350TIP3    H155541   3.033   6.648  12.729  0.1418 -0.3578 -1.5294
11350TIP3    H255542   3.134   6.546  12.679  0.5946 -1.8211  2.2242
11351TIP3   OH255543   6.597   0.065   1.297 -0.4174  0.8926  0.0657
11351TIP3    H155544   6.676   0.119   1.304  0.5057 -0.6014  1.5343
11351TIP3    H255545   6.616   0.004   1.226 -0.0637  0.2611  0.6935
11352TIP3   OH255546   3.126   5.587   0.012  0.6018 -0.1728 -0.3686
11352TIP3    H155547   3.150   5.578   0.105 -0.8036  1.7287  0.2051
11352TIP3    H255548   3.204   5.621  -0.030  1.2898 -1.1552  0.0835
11353TIP3   OH255549   1.746   2.993  15.395  0.5571 -0.2363  0.7473
11353TIP3    H155550   1.703   2.973  15.312  1.6549 -1.2885  0.4058
11353TIP3    H255551   1.713   2.927  15.456  1.4471 -0.8785  0.5525
11354TIP3   OH255552   4.688   3.456  15.246 -0.4087  0.0672 -0.5886
11354TIP3    H155553   4.763   3.490  15.295 -0.1433 -2.1353  0.6101
11354TIP3    H255554   4.646   3.533  15.210  0.8251  1.5585  1.0743
11355TIP3   OH255555   3.356   3.658   2.664  0.0635 -0.2710  0.3080
11355TIP3    H155556   3.420   3.704   2.718 -0.0438  1.0186 -0.6253
11355TIP3    H255557   3.274   3.704   2.680  0.4838  1.7403 -2.7336
11356TIP3   OH255558   4.177   3.081   1.202 -0.2513  0.2836  0.1106
11356TIP3    H155559   4.125   3.161   1.188 -1.3034 -0.2692  0.7420
11356TIP3    H255560   4.196   3.082   1.296 -0.1327 -0.1302  0.0893
11357TIP3   OH255561   2.611   4.336  11.427  0.1122  0.0147 -0.4208
11357TIP3    H155562   2.563   4.416  11.405 -0.0366  0.2441  0.6997
11357TIP3    H255563   2.543   4.271  11.444  0.1036  0.7869  2.8579
11358TIP3   OH255564   2.988   5.909  15.842 -0.3179  0.1460 -0.2601
11358TIP3    H155565   2.980   5.890  15.748 -1.7575  0.5312 -0.2271
11358TIP3    H255566   3.001   6.004  15.846 -0.7101  0.1915 -0.0517
11359TIP3   OH255567   5.638   5.563  13.267  0.3134 -0.4663  0.1191
11359TIP3    H155568   5.544   5.551  13.258 -0.1874  2.6512  0.6862
11359TIP3    H255569   5.664   5.614  13.190  0.9993  1.1966  1.4211
11360TIP3   OH255570   0.950   4.140   0.181 -0.1876 -0.6718  0.2561
11360TIP3    H155571   0.888   4.208   0.206 -0.8232 -0.7375 -1.1243
11360TIP3    H255572   0.940   4.131   0.087  2.2319 -0.4075 -0.0586
11361TIP3   OH255573   3.778   3.810   1.333  1.0787 -0.1750 -0.1144
11361TIP3    H155574   3.772   3.866   1.410  1.7109  0.5409 -0.5800
11361TIP3    H255575   3.686   3.795   1.307  0.8256 -1.2621  1.3633
11362TIP3   OH255576   6.272   2.049  14.245 -0.0769 -0.6752  0.0475
11362TIP3    H155577   6.289   2.043  14.151 -1.6975  0.4435 -0.3426
11362TIP3    H255578   6.225   2.132  14.255 -0.4566 -1.0887  1.7616
11363TIP3   OH255579   5.243   3.530   0.245  0.0382  0.2350  0.5660
11363TIP3    H155580   5.226   3.613   0.291 -1.5085  0.8477 -1.0548
11363TIP3    H255581   5.157   3.487   0.241  0.1470  0.2049 -1.7572
11364TIP3   OH255582   4.011   5.352   0.866  0.0556 -0.3590 -0.6780
11364TIP3    H155583   3.976   5.320   0.949 -0.7563  2.1189 -0.0051
11364TIP3    H255584   4.095   5.308   0.857  0.0287 -0.8753  1.3198
11365TIP3   OH255585   3.842   4.243  15.220 -0.2570  0.0462  0.0113
11365TIP3    H155586   3.859   4.206  15.134  1.4719  1.8804 -0.4655
11365TIP3    H255587   3.908   4.311  15.231 -1.9064  1.4333  1.8077
11366TIP3   OH255588   2.306   2.262   0.327 -0.2502 -0.1688  0.1957
11366TIP3    H155589   2.214   2.250   0.353 -1.4813  2.8227 -2.3771
11366TIP3    H255590   2.326   2.352   0.353  1.3576 -0.1566 -1.0512
11367TIP3   OH255591   1.586   0.946  14.289 -0.7533 -0.0896  0.3728
11367TIP3    H155592   1.570   1.020  14.230  1.0561 -0.0967 -0.1478
11367TIP3    H255593   1.680   0.950  14.307 -0.9856 -1.1191  1.8907
11368TIP3   OH255594   3.130   2.634  13.698 -0.8479 -0.4125  0.1381
11368TIP3    H155595   3.190   2.572  13.656 -1.7908  0.0651 -1.9801
11368TIP3    H255596   3.163   2.720  13.671 -0.2732 -0.0088  2.0671
11369TIP3   OH255597   2.315   1.166   4.054  0.2516  0.1018 -0.2834
11369TIP3    H155598   2.261   1.138   4.127  1.3289  1.4604  1.0556
11369TIP3    H255599   2.399   1.191   4.093  1.9702 -2.1203 -2.3148
11370TIP3   OH255600   6.215   2.306   0.990  0.3677  0.5208 -0.2720
11370TIP3    H155601   6.266   2.337   0.916  1.5464 -0.8430 -0.0473
11370TIP3    H255602   6.239   2.365   1.062  1.3601  0.1053 -0.2582
11371TIP3   OH255603   3.620   1.678  14.854  0.1707 -0.0447  0.4393
11371TIP3    H155604   3.704   1.717  14.830  0.8888 -3.0671 -2.4758
11371TIP3    H255605   3.599   1.715  14.939  5.6742 -0.9495  2.4227
11372TIP3   OH255606   1.985   6.782   2.569  0.4093 -0.0102  0.0083
11372TIP3    H155607   1.926   6.710   2.545 -0.9593  0.8196  0.8102
11372TIP3    H255608   1.968   6.850   2.504 -0.4204  0.6948  0.9374
11373TIP3   OH255609   2.613   5.531  12.951  0.2916  0.0084  0.4225
11373TIP3    H155610   2.692   5.537  13.004  0.0039 -2.4076  1.1574
11373TIP3    H255611   2.542   5.552  13.011  0.2884  1.4467 -0.0602
11374TIP3   OH255612   2.728   1.240  13.040 -0.5993 -0.7681  0.6330
11374TIP3    H155613   2.729   1.145  13.029  1.9845 -0.7102 -0.0616
11374TIP3    H255614   2.645   1.258  13.084 -1.7001 -3.1993 -0.3076
11375TIP3   OH255615   0.024   0.286  14.130 -0.2461  0.0845 -0.7219
11375TIP3    H155616   0.091   0.271  14.197 -1.0636  1.8333  0.5487
11375TIP3    H255617  -0.004   0.198  14.103  0.7238 -0.6471  0.6008
11376TIP3   OH255618   3.112   6.397  10.824 -0.1682 -0.2232  0.3116
11376TIP3    H155619   3.152   6.389  10.738 -3.0890  0.7397 -1.2346
11376TIP3    H255620   3.039   6.334  10.823 -1.2254  0.9296  1.4402
11377TIP3   OH255621   4.760   0.733   5.155 -0.6378 -0.9017  0.3155
11377TIP3    H155622   4.804   0.668   5.101 -0.2339  0.6797 -1.3259
11377TIP3    H255623   4.697   0.775   5.096 -0.8591  0.2101  1.3066
11378TIP3   OH255624   0.932   6.652   2.851 -0.3020 -0.0874  1.2145
11378TIP3    H155625   0.923   6.650   2.756  0.5771 -0.6012  1.1358
11378TIP3    H255626   1.018   6.614   2.867 -0.5511 -0.2260  2.2312
11379TIP3   OH255627   6.392   4.956  11.553 -0.2445  0.3410  0.7028
11379TIP3    H155628   6.463   4.916  11.603 -1.7064  0.4707  2.9904
11379TIP3    H255629   6.432   5.033  11.512  1.2574 -0.3490  0.8591
11380TIP3   OH255630   6.445   3.932  15.815 -0.0962  0.6969 -0.6260
11380TIP3    H155631   6.428   4.010  15.763 -0.5230 -0.3452 -2.0522
11380TIP3    H255632   6.405   3.861  15.767 -0.7473 -0.2568  1.2713
11381TIP3   OH255633   5.213   6.446   4.230 -0.0043 -0.4542  0.4499
11381TIP3    H155634   5.167   6.370   4.265 -0.2855 -0.5162 -0.0610
11381TIP3    H255635   5.198   6.515   4.294 -0.5736 -0.5516  0.4184
11382TIP3   OH255636   6.104   2.142   3.473 -0.1324  0.6464 -0.6200
11382TIP3    H155637   6.048   2.083   3.423 -2.2612  1.2701  0.9391
11382TIP3    H255638   6.043   2.206   3.511  1.6268  1.2622  1.2278
11383TIP3   OH255639   1.274   5.859  14.091 -0.2461  0.1158 -0.7394
11383TIP3    H155640   1.219   5.796  14.043  0.4125 -0.3785 -0.8529
11383TIP3    H255641   1.216   5.896  14.157 -1.2401  0.9619 -2.0505
11384TIP3   OH255642   1.530   5.159   1.278  0.3038 -0.0058  0.7327
11384TIP3    H155643   1.507   5.072   1.246 -0.3094  0.0786  0.9356
11384TIP3    H255644   1.605   5.144   1.335  1.2946 -0.1793 -0.6067
11385TIP3   OH255645   2.259   5.328   0.298 -0.0453 -0.0541 -0.6809
11385TIP3    H155646   2.242   5.420   0.323  1.6257 -0.3932  1.8526
11385TIP3    H255647   2.283   5.333   0.206  1.1789  2.2126 -0.2844
11386TIP3   OH255648   5.327   2.578   0.325  0.0924 -0.2815  0.0140
11386TIP3    H155649   5.323   2.518   0.250 -0.4172 -0.3775  0.1180
11386TIP3    H255650   5.336   2.520   0.401 -0.2681 -0.2163  0.1040
11387TIP3   OH255651   6.188   4.755  10.789 -0.0087 -0.7695 -0.2734
11387TIP3    H155652   6.203   4.660  10.791 -1.9489 -1.1111 -0.5877
11387TIP3    H255653   6.113   4.766  10.730  0.2063  0.9580 -0.2436
11388TIP3   OH255654   4.103   0.274   5.797  0.0942 -0.2000  0.3714
11388TIP3    H155655   4.031   0.337   5.790 -0.5541 -0.8289  1.3300
11388TIP3    H255656   4.063   0.195   5.833  1.0450 -0.9368 -0.1520
11389TIP3   OH255657   3.204   1.529   4.937  0.8732  0.1827  0.2366
11389TIP3    H155658   3.226   1.459   4.876 -0.8853 -0.9102  0.8121
11389TIP3    H255659   3.221   1.492   5.023 -0.4414  0.3183  0.5605
11390TIP3   OH255660   1.590   5.234  14.374  0.0580 -0.1876 -0.4768
11390TIP3    H155661   1.639   5.268  14.300 -1.1439  1.7466 -0.4295
11390TIP3    H255662   1.589   5.306  14.437  1.3581 -1.9140  1.5969
11391TIP3   OH255663   4.221   2.791  14.042  0.2911 -0.6763 -0.2946
11391TIP3    H155664   4.136   2.785  14.085  0.3066 -0.6793 -0.2650
11391TIP3    H255665   4.272   2.853  14.094  0.4191 -0.9223 -0.1244
11392TIP3   OH255666   3.492   2.750   1.867  0.0352 -0.3410 -0.0266
11392TIP3    H155667   3.505   2.657   1.886  0.5203 -0.5114 -1.1605
11392TIP3    H255668   3.422   2.752   1.802 -2.8917  0.3457  2.9813
11393TIP3   OH255669   5.839   4.318  13.338  0.0808  0.9297 -0.0849
11393TIP3    H155670   5.763   4.376  13.336  0.5789  1.6545  1.1680
11393TIP3    H255671   5.911   4.374  13.368  0.9786  0.1081 -0.6744
11394TIP3   OH255672   3.421   4.073   1.442 -0.1500 -0.7226 -0.3533
11394TIP3    H155673   3.379   4.126   1.510 -1.0832  0.3520 -1.7339
11394TIP3    H255674   3.349   4.045   1.385  0.5600 -1.9961 -0.6441
11395TIP3   OH255675   4.076   4.893  11.125 -0.1911  0.1089 -0.0181
11395TIP3    H155676   4.008   4.956  11.149 -2.0064 -0.7931 -2.5549
11395TIP3    H255677   4.099   4.916  11.035  3.8485  1.2171  1.2386
11396TIP3   OH255678   1.646   1.993  15.539 -0.4702 -0.1533  0.1623
11396TIP3    H155679   1.559   1.984  15.579 -0.9628  0.3656 -0.7948
11396TIP3    H255680   1.630   2.032  15.454  0.8926  1.8848  0.8068
11397TIP3   OH255681   4.321   0.034   1.443 -0.2350  0.1686  0.2124
11397TIP3    H155682   4.255   0.101   1.459  0.4236  0.6232  1.1443
11397TIP3    H255683   4.397   0.063   1.495  0.3478 -0.8477 -0.0558
11398TIP3   OH255684   3.369   4.352   4.386  0.0646 -0.1030 -0.6627
11398TIP3    H155685   3.301   4.366   4.320  0.0235 -0.2485 -0.6512
11398TIP3    H255686   3.320   4.344   4.468  0.2146  1.5958 -0.3979
11399TIP3   OH255687   0.501   0.036   6.396  0.1851  0.3027 -0.2121
11399TIP3    H155688   0.451  -0.029   6.445  1.1583 -0.8975 -0.7935
11399TIP3    H255689   0.448   0.053   6.318 -0.9274  1.5471  0.7849
11400TIP3   OH255690   5.935   5.246   0.057 -0.4880 -0.2508 -0.5392
11400TIP3    H155691   5.903   5.253  -0.033  1.0673 -1.1975 -1.1847
11400TIP3    H255692   6.015   5.193   0.050 -0.6627 -0.8071  1.4708
11401TIP3   OH255693   0.223   3.470  14.418 -0.8427  0.2669  0.0744
11401TIP3    H155694   0.141   3.503  14.455 -0.2990  1.7956 -0.0611
11401TIP3    H255695   0.277   3.548  14.404  1.4512 -0.8909  2.1021
11402TIP3   OH255696   2.855   6.772  14.106 -0.9378  0.4332  0.1247
11402TIP3    H155697   2.815   6.685  14.097 -0.5094  0.2350  0.1506
11402TIP3    H255698   2.824   6.821  14.030 -0.3648 -0.0616 -0.4290
11403TIP3   OH255699   2.729   4.600  16.086  0.1904  0.2928 -0.3188
11403TIP3    H155700   2.758   4.623  15.998 -1.1404  0.7626 -0.6454
11403TIP3    H255701   2.675   4.674  16.114  0.4274  0.0587  0.8176
11404TIP3   OH255702   1.842   0.148   3.964  0.5577 -0.3529 -0.7285
11404TIP3    H155703   1.851   0.193   4.048 -0.7856  2.5700 -2.0506
11404TIP3    H255704   1.822   0.058   3.986 -1.1398  0.6613  2.0880
11405TIP3   OH255705   1.743   3.082  15.736 -0.9878 -0.1557  0.0251
11405TIP3    H155706   1.818   3.108  15.682  0.5911 -1.3908  1.5627
11405TIP3    H255707   1.705   3.006  15.692  0.0552 -0.9151  0.4229
11406TIP3   OH255708   0.228   3.700   2.853  0.0592 -0.0656  0.2757
11406TIP3    H155709   0.310   3.719   2.899  0.0408 -1.3799  0.8755
11406TIP3    H255710   0.200   3.615   2.888 -1.6641  0.4554  0.2159
11407TIP3   OH255711   2.118   0.061  12.184  0.2095 -0.4291  0.4106
11407TIP3    H155712   2.088   0.078  12.095 -0.4600 -1.2166  0.4812
11407TIP3    H255713   2.183  -0.009  12.174  0.8346  0.1415  0.4420
11408TIP3   OH255714   4.532   4.277  17.235  0.1579 -0.1230  0.4043
11408TIP3    H155715   4.472   4.258  17.307 -0.4135  0.1686  0.0135
11408TIP3    H255716   4.494   4.353  17.192  0.7839  0.0284  0.1158
11409TIP3   OH255717   1.881   1.105  12.042 -0.6553  0.0290  0.2449
11409TIP3    H155718   1.868   1.032  11.982  0.1586  0.6601 -0.7044
11409TIP3    H255719   1.840   1.076  12.124 -0.9244 -1.2142 -0.3197
11410TIP3   OH255720   3.942   1.430  16.057  0.1818  0.0038  0.0601
11410TIP3    H155721   4.020   1.439  16.002  0.2246 -0.7214 -0.0114
11410TIP3    H255722   3.872   1.470  16.006  0.7661  1.9292  0.7378
11411TIP3   OH255723   6.682   3.367  15.145  0.1858  0.0532  0.1952
11411TIP3    H155724   6.705   3.422  15.070 -0.3907  1.2530  0.8902
11411TIP3    H255725   6.757   3.310  15.157  0.3572 -0.0403 -1.2010
11412TIP3   OH255726   4.724   4.368  11.370  0.7250 -0.2861 -0.3581
11412TIP3    H155727   4.785   4.352  11.442  0.0547 -1.2231  0.0228
11412TIP3    H255728   4.756   4.313  11.298  0.1168 -1.1032 -0.0224
11413TIP3   OH255729   5.070   5.203  11.132  0.0761  0.4588  0.4029
11413TIP3    H155730   5.156   5.218  11.092  0.3926 -1.2816  0.3645
11413TIP3    H255731   5.086   5.134  11.197 -1.3140 -0.0256  0.2453
11414TIP3   OH255732   5.462   2.572   5.229  0.2287 -0.4985  0.5961
11414TIP3    H155733   5.525   2.633   5.191 -0.4414 -0.9162 -1.2940
11414TIP3    H255734   5.382   2.623   5.241  0.6405 -0.1979  2.1223
11415TIP3   OH255735   4.586   5.707   4.443  0.1168 -0.0808 -1.1424
11415TIP3    H155736   4.588   5.629   4.499 -0.3598  0.4907 -0.3086
11415TIP3    H255737   4.495   5.712   4.414 -0.2352  1.0660  0.1185
11416TIP3   OH255738   5.539   1.405  12.036  0.3210  0.5819 -0.3708
11416TIP3    H155739   5.457   1.453  12.037  0.4820  0.8534  0.8225
11416TIP3    H255740   5.570   1.408  12.127  0.4035 -1.6344 -0.3005
11417TIP3   OH255741   3.094   0.805   1.977  0.1704 -0.1584 -0.2232
11417TIP3    H155742   3.000   0.789   1.974 -0.0423  1.0163 -0.2623
11417TIP3    H255743   3.109   0.847   2.062  0.7153 -0.6705 -0.0609
11418TIP3   OH255744   4.214   5.348  11.384  0.0665 -0.5173 -0.4906
11418TIP3    H155745   4.185   5.362  11.294  0.3513 -1.4339 -0.7277
11418TIP3    H255746   4.217   5.436  11.422 -0.7062 -0.1925 -1.1711
11419TIP3   OH255747   1.693   2.646  10.940 -0.1745  0.3954 -0.0947
11419TIP3    H155748   1.604   2.613  10.949  0.1475  0.0497  2.0926
11419TIP3    H255749   1.690   2.704  10.864 -1.8908 -0.8283 -0.9629
11420TIP3   OH255750   0.211   0.253   2.194  0.6081  0.2584  0.3519
11420TIP3    H155751   0.220   0.197   2.116 -0.8510  0.9638 -0.3387
11420TIP3    H255752   0.263   0.331   2.174  1.8683 -0.4188  0.9248
11421TIP3   OH255753   3.797   2.037  10.906 -0.0673  0.6738 -0.2748
11421TIP3    H155754   3.830   2.125  10.887 -0.2107  0.4103 -1.7992
11421TIP3    H255755   3.783   1.997  10.820  0.4980 -1.0404  0.4069
11422TIP3   OH255756   2.656   2.437   1.898  0.0927  0.1196  0.4910
11422TIP3    H155757   2.733   2.426   1.953  0.4419 -0.4902 -0.0994
11422TIP3    H255758   2.598   2.365   1.923 -0.6918  1.1157  1.5803
11423TIP3   OH255759   3.489   1.374   3.212 -0.5628 -0.3808  0.1272
11423TIP3    H155760   3.566   1.363   3.156 -0.8462  0.6864 -0.4790
11423TIP3    H255761   3.486   1.293   3.263  0.3186 -0.9115 -0.6299
11424TIP3   OH255762   2.920   2.112   0.710  0.2162 -0.0996 -0.1106
11424TIP3    H155763   2.986   2.146   0.769 -0.8905 -1.1602  1.7886
11424TIP3    H255764   2.843   2.167   0.724 -0.4028 -1.0366  0.2664
11425TIP3   OH255765   1.520   4.569  12.663 -0.3220  0.1520  0.3478
11425TIP3    H155766   1.499   4.572  12.757 -1.6719  1.1171  0.0265
11425TIP3    H255767   1.464   4.500  12.628 -2.4275  2.1790 -0.3656
11426TIP3   OH255768   5.931   2.032   5.184  0.4747 -0.0028 -0.0769
11426TIP3    H155769   5.896   2.104   5.133  0.7038  1.2224  1.4624
11426TIP3    H255770   6.003   1.997   5.131  0.1473  0.6815 -0.9741
11427TIP3   OH255771   2.286   4.619  13.062 -0.2745 -0.1091  0.1502
11427TIP3    H155772   2.190   4.614  13.056 -0.2713  1.4295 -1.5503
11427TIP3    H255773   2.317   4.569  12.988  0.1710  1.5927 -0.8458
11428TIP3   OH255774   3.933   5.786  10.008  0.1100 -0.6300 -0.4439
11428TIP3    H155775   3.958   5.876  10.029 -0.8145 -0.6879  0.9401
11428TIP3    H255776   3.950   5.737  10.089 -2.3737 -1.0883 -0.1610
11429TIP3   OH255777   1.603   6.728  16.038  0.4463 -0.5512  0.6330
11429TIP3    H155778   1.586   6.704  16.130  0.6880  0.6084  0.9852
11429TIP3    H255779   1.566   6.815  16.029 -0.7772 -1.1941 -0.7581
11430TIP3   OH255780   3.129   3.396  16.237  0.2872 -0.3334  0.4200
11430TIP3    H155781   3.196   3.352  16.289 -0.4716 -0.7030  1.1101
11430TIP3    H255782   3.079   3.446  16.302  0.4479  0.6453 -0.2040
11431TIP3   OH255783   1.161   2.747  17.070 -0.1712 -0.0613  0.2278
11431TIP3    H155784   1.185   2.786  17.154 -0.6548  1.5510 -0.3694
11431TIP3    H255785   1.215   2.668  17.064 -0.8425 -0.7463  2.4972
11432TIP3   OH255786   1.341   0.141   2.104 -0.3483  0.2437  0.0158
11432TIP3    H155787   1.433   0.116   2.117 -0.6142 -0.9473 -0.3356
11432TIP3    H255788   1.341   0.190   2.022  0.0140  0.4885  0.1583
11433TIP3   OH255789   2.147   0.173   0.547  0.2925 -0.8394 -0.1115
11433TIP3    H155790   2.206   0.247   0.533 -1.0276  0.4019  0.7038
11433TIP3    H255791   2.165   0.113   0.475  2.3127 -0.3377 -0.0478
11434TIP3   OH255792   6.271   5.328   4.116 -0.5227 -0.6448  0.1651
11434TIP3    H155793   6.217   5.363   4.188 -0.8771 -0.4484 -0.1952
11434TIP3    H255794   6.215   5.261   4.076 -0.3775 -0.6563 -0.0149
11435TIP3   OH255795   4.000   2.004  14.656 -0.2829 -0.0090 -0.0087
11435TIP3    H155796   4.078   2.043  14.695 -0.8093  1.0046  0.0631
11435TIP3    H255797   3.927   2.054  14.693 -0.8560  0.2216 -1.4118
11436TIP3   OH255798   3.599   1.560   0.589  0.0971 -0.4143  0.0002
11436TIP3    H155799   3.530   1.573   0.655 -0.4496  1.0552 -0.8348
11436TIP3    H255800   3.588   1.633   0.528  1.8134 -0.6831 -0.6662
11437TIP3   OH255801   0.983   6.210   3.697  0.1224 -0.0355 -0.5801
11437TIP3    H155802   0.962   6.269   3.624  0.6591  1.2069  0.2552
11437TIP3    H255803   1.049   6.257   3.747 -0.3426 -0.8259  0.7941
11438TIP3   OH255804   6.412   1.873   1.298 -0.3659 -0.2057 -0.6048
11438TIP3    H155805   6.390   1.808   1.365  0.2547 -0.6843 -0.8497
11438TIP3    H255806   6.447   1.821   1.225  2.1195  0.5190 -0.0023
11439TIP3   OH255807   0.873   6.208   3.017  0.1373  0.5653  0.4467
11439TIP3    H155808   0.900   6.119   2.994 -0.2101 -0.0781  2.4925
11439TIP3    H255809   0.949   6.246   3.060  1.0572  2.0426 -2.3674
11440TIP3   OH255810   0.840   2.627   2.472  0.2484 -0.3717  0.1688
11440TIP3    H155811   0.904   2.639   2.543  1.0437  0.2406 -0.6391
11440TIP3    H255812   0.864   2.544   2.431 -0.4684 -0.9343  0.8617
11441TIP3   OH255813   2.225   5.597   0.392 -0.1154  0.1416 -0.0517
11441TIP3    H155814   2.274   5.669   0.430 -0.7983  1.1180 -1.0054
11441TIP3    H255815   2.145   5.637   0.357 -1.4171 -1.3593  1.1177
11442TIP3   OH255816   2.003   3.671   5.723  0.0582  0.1835  0.1121
11442TIP3    H155817   2.046   3.586   5.726  1.4037  0.8983  1.6014
11442TIP3    H255818   1.927   3.662   5.781  0.7566  0.3033  1.0436
11443TIP3   OH255819   0.571   4.012  11.332 -0.4466  0.2964  0.2732
11443TIP3    H155820   0.551   4.013  11.238  1.4482 -2.0712 -0.1858
11443TIP3    H255821   0.507   3.953  11.369  0.9763 -1.5219 -0.0938
11444TIP3   OH255822   2.361   6.546   4.114  0.0968 -0.0171 -0.2597
11444TIP3    H155823   2.338   6.638   4.105 -0.1457 -0.1539 -1.1325
11444TIP3    H255824   2.363   6.513   4.024  0.0001 -0.9030  0.0573
11445TIP3   OH255825   1.421   3.587   2.376 -0.2653  0.4957  0.3811
11445TIP3    H155826   1.361   3.541   2.435  0.8990 -0.6161  0.7365
11445TIP3    H255827   1.368   3.656   2.336 -1.4457  0.3494  1.6422
11446TIP3   OH255828   0.031   3.674   0.634  0.6724 -0.0204  0.0873
11446TIP3    H155829  -0.029   3.731   0.586  0.8029  1.2680  1.4447
11446TIP3    H255830   0.005   3.585   0.609 -0.9490  0.5635 -0.3161
11447TIP3   OH255831   4.995   0.357  15.429  0.5992 -0.1520 -0.1549
11447TIP3    H155832   4.918   0.401  15.393 -1.1671 -3.3126 -0.4002
11447TIP3    H255833   4.974   0.264  15.425  4.2199 -1.0782  0.3291
11448TIP3   OH255834   1.475   3.288  11.150 -0.6100 -0.2289 -0.2680
11448TIP3    H155835   1.492   3.376  11.184  0.5377 -0.6098  0.1514
11448TIP3    H255836   1.531   3.282  11.072 -1.4236 -0.2378 -0.8603
11449TIP3   OH255837   1.842   3.636   3.127 -0.2275 -0.5006  0.1615
11449TIP3    H155838   1.766   3.661   3.074 -0.2181  2.0755  1.2933
11449TIP3    H255839   1.902   3.595   3.065 -1.3322  0.0735 -1.3232
11450TIP3   OH255840   3.243   4.595  12.572  0.1745 -0.0166  0.4016
11450TIP3    H155841   3.327   4.591  12.618  0.3116  0.1304  0.1673
11450TIP3    H255842   3.190   4.527  12.613  0.6413 -0.5802  0.0827
11451TIP3   OH255843   2.141   3.746   3.529  0.2426 -0.5588  0.4365
11451TIP3    H155844   2.070   3.809   3.539  0.9651  0.3938 -0.3887
11451TIP3    H255845   2.098   3.665   3.502 -0.7305 -0.5455  1.9312
11452TIP3   OH255846   3.577   3.171   0.345  0.3224  0.6077 -0.9857
11452TIP3    H155847   3.582   3.200   0.436 -0.1728  0.5806 -0.9511
11452TIP3    H255848   3.589   3.076   0.349 -1.9201  0.3216 -0.7385
11453TIP3   OH255849   2.368   1.090  12.575 -0.1843  0.0092 -0.1945
11453TIP3    H155850   2.423   1.078  12.498 -0.3852 -1.2789 -0.1538
11453TIP3    H255851   2.429   1.096  12.648 -0.0372  0.1541 -0.3309
11454TIP3   OH255852   4.957   1.834   3.827  0.2567 -0.0774  0.1641
11454TIP3    H155853   4.880   1.891   3.832  0.1269 -0.3058  0.8625
11454TIP3    H255854   4.981   1.818   3.919 -0.3286 -1.9686  0.0217
11455TIP3   OH255855   5.787   6.041   6.294 -0.5697 -0.0487 -0.0800
11455TIP3    H155856   5.709   5.995   6.262 -1.6381  1.6108  0.0902
11455TIP3    H255857   5.790   6.122   6.242  0.3066  0.5009  0.8149
11456TIP3   OH255858   3.061   2.434  16.133  0.0617  0.1334 -0.2747
11456TIP3    H155859   3.032   2.377  16.062 -0.7325  0.4430 -0.2023
11456TIP3    H255860   3.026   2.394  16.212 -1.1313  1.1168 -0.2907
11457TIP3   OH255861   0.869   0.438  15.461  0.0085 -0.1119  0.5017
11457TIP3    H155862   0.883   0.427  15.367  0.5395 -1.0818  0.6935
11457TIP3    H255863   0.774   0.435  15.471 -0.0436 -0.1856  0.0179
11458TIP3   OH255864   5.498   5.222   5.924 -0.4954  0.4964  0.2740
11458TIP3    H155865   5.404   5.233   5.913  0.1604  2.9844 -4.3723
11458TIP3    H255866   5.515   5.131   5.899 -1.6541 -0.1403  1.6984
11459TIP3   OH255867   6.301   1.263  12.247  0.0114 -0.1640 -0.0840
11459TIP3    H155868   6.291   1.192  12.184 -0.5178 -0.2902  0.1354
11459TIP3    H255869   6.395   1.268  12.263  0.0343 -0.9481  0.0462
11460TIP3   OH255870   0.773   4.040  13.619  0.0750 -0.4565 -0.1268
11460TIP3    H155871   0.858   4.040  13.574 -0.1346 -0.1266 -0.5323
11460TIP3    H255872   0.739   3.952  13.605 -0.5212 -0.0038 -1.6554
11461TIP3   OH255873   2.995   0.163   0.917 -1.0057 -0.6012  0.1812
11461TIP3    H155874   2.986   0.202   0.830 -1.1209 -1.8274 -0.3661
11461TIP3    H255875   3.032   0.076   0.900  0.2733 -0.3202  1.4640
11462TIP3   OH255876   5.172   5.187   0.820 -0.5030 -0.1693 -0.4131
11462TIP3    H155877   5.265   5.175   0.838 -0.5693 -0.0459  0.0044
11462TIP3    H255878   5.169   5.217   0.729 -0.1206  0.0871 -0.3391
11463TIP3   OH255879   3.125   5.223   0.306 -0.9082  0.3654  0.0546
11463TIP3    H155880   3.200   5.182   0.263 -0.4069  1.2529  0.0723
11463TIP3    H255881   3.103   5.298   0.250 -1.5020  0.3623  0.2795
11464TIP3   OH255882   3.816   3.760   4.319 -0.6207  0.1533  0.1498
11464TIP3    H155883   3.741   3.710   4.286  1.5009 -1.3407 -2.5398
11464TIP3    H255884   3.825   3.833   4.259  0.0465  0.3873  0.5309
11465TIP3   OH255885   6.488   3.406  13.170 -0.0082  0.3263  0.7513
11465TIP3    H155886   6.559   3.413  13.234  0.4758 -0.2500  0.2828
11465TIP3    H255887   6.498   3.484  13.115  0.2398  0.2661  0.7086
11466TIP3   OH255888   0.583   1.038   0.987 -0.0919  0.3530 -0.3750
11466TIP3    H155889   0.527   0.961   0.976 -0.8130  0.5712  1.6176
11466TIP3    H255890   0.523   1.108   1.015  0.5962  1.5879 -1.8903
11467TIP3   OH255891   0.504   0.344  12.599  0.3224  0.2985  0.2661
11467TIP3    H155892   0.542   0.407  12.661 -0.7328 -0.4894  1.7664
11467TIP3    H255893   0.416   0.327  12.634 -0.0804 -0.6075 -1.1527
11468TIP3   OH255894   0.599   3.393  14.093  0.2758  0.0625 -0.0145
11468TIP3    H155895   0.663   3.324  14.072 -0.3409 -0.0037 -1.7326
11468TIP3    H255896   0.539   3.352  14.155  1.5527 -0.0602  1.1642
11469TIP3   OH255897   1.657   5.925   2.029 -0.3054  0.2688  0.4984
11469TIP3    H155898   1.633   5.990   2.094 -0.3054 -0.2268  0.9964
11469TIP3    H255899   1.574   5.891   1.996 -0.2993 -0.2124  0.9775
11470TIP3   OH255900   1.324   3.566  14.859  0.0583  0.4135  0.2351
11470TIP3    H155901   1.328   3.578  14.954  1.1574  0.4056  0.2025
11470TIP3    H255902   1.268   3.490  14.847 -1.9309  1.7602  0.7508
11471TIP3   OH255903   1.516   6.114   2.900 -0.2922  0.2617  0.0509
11471TIP3    H155904   1.579   6.150   2.838  1.3138 -0.6926  1.1103
11471TIP3    H255905   1.490   6.030   2.862  1.9389 -1.0995  1.4253
11472TIP3   OH255906   2.924   0.395   1.311  0.2503  0.3957 -0.1906
11472TIP3    H155907   2.898   0.303   1.308  0.8436  0.1849  1.2284
11472TIP3    H255908   3.013   0.396   1.276 -0.6078  0.7670 -2.4735
11473TIP3   OH255909   2.030   1.663   4.975  0.0403  0.4832  0.4253
11473TIP3    H155910   2.044   1.665   4.880  0.8515 -0.5461  0.5097
11473TIP3    H255911   1.972   1.589   4.989 -1.6101  1.7768  0.5659
11474TIP3   OH255912   3.825   6.654  11.646 -0.1030  0.2516  0.2430
11474TIP3    H155913   3.914   6.640  11.615 -0.4678 -0.7679 -0.3681
11474TIP3    H255914   3.794   6.567  11.670 -1.9071  0.1401 -2.2508
11475TIP3   OH255915   0.987   5.665  12.186  0.5891  0.0532 -0.0297
11475TIP3    H155916   0.986   5.747  12.235 -0.1881  0.2662 -0.3907
11475TIP3    H255917   1.051   5.611  12.232 -1.4361 -0.4280  2.3256
11476TIP3   OH255918   1.834   6.375   3.707 -0.1834  0.0887  0.5140
11476TIP3    H155919   1.745   6.359   3.675 -0.4273 -1.1635  1.7941
11476TIP3    H255920   1.865   6.448   3.653 -1.5462 -0.2295 -0.7509
11477TIP3   OH255921   2.394   3.567   1.420  0.3509 -0.3630 -0.2575
11477TIP3    H155922   2.472   3.535   1.375  0.0902  0.3177 -1.2245
11477TIP3    H255923   2.402   3.662   1.418  1.0010 -0.3239  2.3724
11478TIP3   OH255924   2.260   4.897  14.997  0.0075 -0.1698  0.7940
11478TIP3    H155925   2.278   4.813  15.040 -0.9996 -0.5733  0.4423
11478TIP3    H255926   2.336   4.912  14.941 -0.2789 -1.3641  0.0793
11479TIP3   OH255927   4.528   5.927   4.626  0.2176 -0.3001 -0.3908
11479TIP3    H155928   4.538   5.885   4.540  1.2079 -0.6313 -0.1177
11479TIP3    H255929   4.609   5.907   4.672 -0.5217 -0.5723  0.8188
11480TIP3   OH255930   3.672   3.269  11.737  0.0242  0.1085  0.1121
11480TIP3    H155931   3.733   3.336  11.705 -0.1169  0.2870  0.2136
11480TIP3    H255932   3.619   3.246  11.660  1.1124 -1.0266 -0.3073
11481TIP3   OH255933   1.416   6.147   0.524  0.5133  0.1520 -0.1448
11481TIP3    H155934   1.440   6.175   0.436  0.9173  0.0334 -0.0734
11481TIP3    H255935   1.499   6.120   0.564  0.0952 -1.4286 -0.3129
11482TIP3   OH255936   0.599   3.701  14.929 -0.1971  1.0118 -0.2762
11482TIP3    H155937   0.690   3.731  14.924  0.1469 -0.1607 -1.0059
11482TIP3    H255938   0.589   3.671  15.020  0.8955 -1.2565 -0.8896
11483TIP3   OH255939   3.168   3.297  15.754 -0.3076 -0.1989  0.1456
11483TIP3    H155940   3.206   3.276  15.839 -0.6122  3.2453  1.2221
11483TIP3    H255941   3.073   3.296  15.769 -0.3621  0.4430 -0.1353
11484TIP3   OH255942   6.164   5.723   1.393 -0.4133  0.6843 -0.1567
11484TIP3    H155943   6.221   5.701   1.466 -0.7895 -0.1009 -0.0985
11484TIP3    H255944   6.172   5.648   1.333  0.0979  1.4326 -1.0462
11485TIP3   OH255945   4.343   0.123  14.166 -0.1011 -0.1699  0.2596
11485TIP3    H155946   4.286   0.129  14.090  0.4746 -4.0728 -0.5996
11485TIP3    H255947   4.404   0.196  14.157 -1.5725  0.8484 -1.6789
11486TIP3   OH255948   4.872   3.943  13.181  0.3346 -0.3393 -0.0888
11486TIP3    H155949   4.907   3.855  13.165  0.8218 -0.1067 -0.2826
11486TIP3    H255950   4.945   3.992  13.217 -0.0410 -0.1114  0.3632
11487TIP3   OH255951   6.007   3.323  15.795  0.0320 -0.6840  0.6675
11487TIP3    H155952   6.063   3.281  15.730 -1.9635  0.4794 -1.8649
11487TIP3    H255953   5.934   3.262  15.807 -2.6707  1.6991 -2.7275
11488TIP3   OH255954   5.057   1.623  11.856 -0.2991  0.1856 -0.4773
11488TIP3    H155955   5.064   1.540  11.809 -1.7768  0.7442 -1.7071
11488TIP3    H255956   4.997   1.676  11.803  1.6793  2.5443 -0.4543
11489TIP3   OH255957   5.051   1.057   0.008 -0.1205 -0.4287  0.2536
11489TIP3    H155958   5.058   1.093   0.096  0.5759 -0.6156  0.2782
11489TIP3    H255959   5.064   0.963   0.020 -1.2047 -0.6067  0.0984
11490TIP3   OH255960   1.809   6.617  12.653  0.1683  0.3355 -0.1641
11490TIP3    H155961   1.752   6.593  12.581 -0.1928  1.9245 -0.4228
11490TIP3    H255962   1.786   6.556  12.724 -0.7413 -0.0344 -0.7724
11491TIP3   OH255963   1.124   5.270   3.771  0.7614 -0.1431  0.1835
11491TIP3    H155964   1.110   5.199   3.834 -0.6323 -0.4337 -0.4359
11491TIP3    H255965   1.113   5.229   3.685 -2.0034  1.1734 -0.1535
11492TIP3   OH255966   3.571   1.707   2.015 -0.4728  0.1173 -0.0012
11492TIP3    H155967   3.663   1.702   1.989 -0.2354  0.2048  0.7986
11492TIP3    H255968   3.566   1.656   2.095 -1.1492  0.0139 -0.1073
11493TIP3   OH255969   3.998   0.728  12.358 -0.3884  0.3564 -0.1406
11493TIP3    H155970   3.997   0.660  12.425 -1.4701 -0.0367 -0.5387
11493TIP3    H255971   4.032   0.805  12.402 -0.8754  0.0381  0.7951
11494TIP3   OH255972   3.878   5.065   3.649 -0.1979 -0.2632 -0.2868
11494TIP3    H155973   3.943   5.033   3.711  0.6520  0.7258 -0.6608
11494TIP3    H255974   3.926   5.126   3.593 -1.1047 -0.6476 -1.5010
11495TIP3   OH255975   6.380   0.996  13.138 -0.2241 -0.2446 -0.7326
11495TIP3    H155976   6.380   1.037  13.224  0.5632  1.0659 -1.3517
11495TIP3    H255977   6.289   1.005  13.107 -0.4218 -0.4039 -0.2041
11496TIP3   OH255978   1.801   5.356  14.964 -0.1732  0.5705  0.3915
11496TIP3    H155979   1.789   5.335  14.871  0.0636  3.4630 -0.3359
11496TIP3    H255980   1.793   5.271  15.008 -1.3813 -0.7183 -2.1443
11497TIP3   OH255981   0.577   5.195   2.222  0.0789 -0.3388  0.4142
11497TIP3    H155982   0.562   5.112   2.268 -1.7170  0.2014  0.8521
11497TIP3    H255983   0.670   5.214   2.238  0.7851 -2.7645 -0.5802
11498TIP3   OH255984   6.415   2.796   3.731 -0.5007  0.2444 -0.0907
11498TIP3    H155985   6.338   2.762   3.776 -0.1620 -0.7350 -0.2290
11498TIP3    H255986   6.420   2.744   3.651  0.2670  0.3344 -0.1028
11499TIP3   OH255987   5.873   1.928   8.747 -0.3167  0.7600  0.0278
11499TIP3    H155988   5.931   1.994   8.710  1.3532 -1.5885 -1.6866
11499TIP3    H255989   5.925   1.887   8.817 -0.6112 -0.0461 -0.2170
11500TIP3   OH255990   1.436   5.171  11.013  0.1246  0.4624 -0.0433
11500TIP3    H155991   1.434   5.267  11.009  0.1767  0.5081  0.8073
11500TIP3    H255992   1.501   5.152  11.081  0.1593 -0.1736 -0.2607
11501TIP3   OH255993   6.714   2.089  12.702  1.1989 -0.5415  0.7364
11501TIP3    H155994   6.765   2.013  12.728 -0.9142 -1.2387  2.9851
11501TIP3    H255995   6.726   2.152  12.773 -0.7051 -0.5683  1.1151
11502TIP3   OH255996   3.317   1.019   6.278  0.2477  0.1977 -0.8385
11502TIP3    H155997   3.327   1.104   6.321  2.2268  0.1357 -1.1545
11502TIP3    H255998   3.271   0.965   6.343 -0.4054  1.2859 -0.3729
11503TIP3   OH255999   0.686   4.348   4.182 -0.3903 -0.0182 -0.2918
11503TIP3    H156000   0.604   4.370   4.226 -0.3966 -0.8178  0.1208
11503TIP3    H256001   0.701   4.256   4.204  0.5136  0.0607 -0.5293
11504TIP3   OH256002   1.930   5.221  16.878  0.3730  0.3529  0.1796
11504TIP3    H156003   2.007   5.276  16.862  0.5627  0.4244  1.2625
11504TIP3    H256004   1.902   5.192  16.791  1.9650 -0.1377 -0.1823
11505TIP3   OH256005   4.052   1.787   1.548 -0.1121  1.0280  0.1868
11505TIP3    H156006   4.106   1.709   1.540  0.0499  1.1959 -0.3819
11505TIP3    H256007   3.994   1.784   1.471 -1.7576  0.2062  1.4355
11506TIP3   OH256008   1.901   6.270   4.239 -0.2786  0.8408  0.1888
11506TIP3    H156009   1.902   6.182   4.203  0.3016  0.5970  0.8046
11506TIP3    H256010   1.891   6.327   4.162  0.2353  0.2867 -0.2929
11507TIP3   OH256011   0.473   1.666   2.603  0.0903  0.0910  0.3927
11507TIP3    H156012   0.522   1.748   2.612 -0.9135  0.8041 -0.4587
11507TIP3    H256013   0.431   1.673   2.517  1.3543 -2.0843 -0.4356
11508TIP3   OH256014   6.519   1.463   1.731  0.1889  0.6131  0.3362
11508TIP3    H156015   6.579   1.536   1.746  2.2962 -0.8737 -0.5796
11508TIP3    H256016   6.555   1.391   1.784 -1.0529 -0.1761  0.1282
11509TIP3   OH256017   5.696   4.589   1.224 -0.4828 -0.3078 -0.4418
11509TIP3    H156018   5.729   4.573   1.135 -4.2935  1.7622 -2.3792
11509TIP3    H256019   5.732   4.674   1.248  0.1677 -0.6536 -0.1810
11510TIP3   OH256020   5.285   3.832   3.159  0.2836 -0.4257  0.2472
11510TIP3    H156021   5.261   3.746   3.193 -1.1629 -0.7237 -1.4198
11510TIP3    H256022   5.374   3.822   3.126  0.9714 -0.6465  2.1458
11511TIP3   OH256023   5.882   0.993   5.873  0.1487 -0.2543  0.6837
11511TIP3    H156024   5.827   0.969   5.799  1.4912  2.3918 -1.2941
11511TIP3    H256025   5.834   0.964   5.950 -2.8543 -0.1376 -1.0870
11512TIP3   OH256026   2.014   3.473  16.231  0.2795 -0.4111 -0.2801
11512TIP3    H156027   1.936   3.526  16.213  0.2922 -0.1787  0.3419
11512TIP3    H256028   1.986   3.411  16.298  0.6319 -0.3143 -0.0387
11513TIP3   OH256029   5.127   2.908   4.389 -0.2439  0.4381 -0.2914
11513TIP3    H156030   5.078   2.968   4.332 -2.2085  1.0702  2.0038
11513TIP3    H256031   5.217   2.913   4.356 -0.7864  2.9931 -1.5135
11514TIP3   OH256032   6.254   2.464  12.536  0.1839 -0.5729 -0.1605
11514TIP3    H156033   6.328   2.500  12.586  0.2778 -1.5293  0.4093
11514TIP3    H256034   6.177   2.496  12.583  0.1819  1.8261 -1.7382
11515TIP3   OH256035   0.418   4.448  14.565 -0.1080  0.1185 -0.3708
11515TIP3    H156036   0.374   4.509  14.623  1.3900  0.4551  0.4314
11515TIP3    H256037   0.446   4.376  14.622 -1.5556 -1.1758 -1.2433
11516TIP3   OH256038   3.414   6.671  14.191 -0.8911 -0.2426 -0.4914
11516TIP3    H156039   3.501   6.695  14.159  0.1067 -1.0979  1.4988
11516TIP3    H256040   3.364   6.752  14.187  0.3425  0.5338 -0.5857
11517TIP3   OH256041   3.489   5.265  15.905 -0.4590  0.1074 -0.0890
11517TIP3    H156042   3.462   5.174  15.901  1.2227 -0.5743  2.4819
11517TIP3    H256043   3.408   5.314  15.922 -0.9514 -1.2590  1.6479
11518TIP3   OH256044   4.772   0.014   4.042 -0.4917  0.1307 -0.1311
11518TIP3    H156045   4.825   0.017   4.122 -1.5763  1.3466  0.5629
11518TIP3    H256046   4.762  -0.079   4.024  1.2355 -0.1192  0.1594
11519TIP3   OH256047   4.725   4.391   5.504  0.0437 -0.5792  0.4298
11519TIP3    H156048   4.722   4.369   5.597 -1.4075  1.5182  0.9250
11519TIP3    H256049   4.636   4.417   5.483  0.1615 -1.9002 -1.7900
11520TIP3   OH256050   5.407   4.597   0.820 -0.0871  0.3766 -0.7317
11520TIP3    H156051   5.423   4.537   0.893  0.1305 -0.2894 -1.3304
11520TIP3    H256052   5.324   4.568   0.782 -0.3859  0.9514 -0.5292
11521TIP3   OH256053   6.420   3.595   2.807 -0.0780 -0.3838  0.8652
11521TIP3    H156054   6.459   3.574   2.722 -0.4764 -0.6863  0.7576
11521TIP3    H256055   6.378   3.680   2.794  1.1311  0.2777  1.1722
11522TIP3   OH256056   3.788   5.498   1.803 -0.0684 -0.7055  0.1857
11522TIP3    H156057   3.862   5.552   1.828 -0.8939  0.7811 -0.4902
11522TIP3    H256058   3.765   5.451   1.883  0.2922  0.4049  0.9615
11523TIP3   OH256059   2.204   6.011   2.858 -1.0476  0.3516  0.0965
11523TIP3    H156060   2.203   5.968   2.943  1.1440 -2.3652 -1.1852
11523TIP3    H256061   2.157   5.951   2.800 -0.1054  0.8411 -1.1979
11524TIP3   OH256062   5.233   1.902  13.590 -0.1695 -0.0195  0.5699
11524TIP3    H156063   5.224   1.867  13.501 -0.9111 -0.1830  0.7047
11524TIP3    H256064   5.263   1.828  13.642  2.6689  0.6660  0.0109
11525TIP3   OH256065   6.505   3.635   5.432  0.2502  0.1487 -0.1716
11525TIP3    H156066   6.413   3.613   5.422  0.1851 -0.8921  2.3704
11525TIP3    H256067   6.506   3.706   5.496  1.1692  0.5939 -0.6691
11526TIP3   OH256068   1.685   2.240  14.032 -0.4587 -0.0460 -0.0179
11526TIP3    H156069   1.625   2.172  14.062  0.1697 -0.1400  1.0050
11526TIP3    H256070   1.661   2.317  14.084 -1.2068  0.5584 -1.2066
11527TIP3   OH256071   2.694   0.616  15.046 -0.1396 -0.7619  0.1638
11527TIP3    H156072   2.743   0.562  15.108  0.5798 -1.3943 -0.9578
11527TIP3    H256073   2.658   0.687  15.100  0.5970 -1.2289  1.2809
11528TIP3   OH256074   3.886   2.938   1.469 -0.5379  0.1157 -0.2896
11528TIP3    H156075   3.823   2.973   1.533 -1.2091 -1.6705  0.0497
11528TIP3    H256076   3.848   2.958   1.384 -0.1808  1.5284 -0.1266
11529TIP3   OH256077   1.754   0.186  11.808  0.3411 -0.2110  0.5463
11529TIP3    H156078   1.697   0.116  11.842 -1.4802  0.3232 -1.3051
11529TIP3    H256079   1.743   0.182  11.713 -1.6721  4.0626  0.4554
11530TIP3   OH256080   2.644   5.369   1.155 -0.4145  0.1228  0.3455
11530TIP3    H156081   2.625   5.392   1.245  1.3652 -1.0762  1.0475
11530TIP3    H256082   2.567   5.319   1.126 -2.3461  3.0572  0.1765
11531TIP3   OH256083   3.564   4.314  12.481  0.4906 -0.3912  0.0417
11531TIP3    H156084   3.527   4.349  12.561 -0.0415  0.1859 -0.4566
11531TIP3    H256085   3.614   4.386  12.443 -0.1635 -0.3256 -0.7062
11532TIP3   OH256086   2.788   3.134   3.637 -0.0046  0.1829  0.6715
11532TIP3    H156087   2.863   3.077   3.653  0.1317  0.2199  0.1497
11532TIP3    H256088   2.744   3.095   3.562 -1.2379 -0.5915  1.7600
11533TIP3   OH256089   0.906   1.600   1.836  0.5733 -0.4100  0.1404
11533TIP3    H156090   0.951   1.595   1.920  0.8728  0.2597  0.0180
11533TIP3    H256091   0.970   1.639   1.776  1.2423 -3.0545 -0.9936
11534TIP3   OH256092   5.771   6.219  10.693 -0.0091  0.5121  0.3261
11534TIP3    H156093   5.739   6.162  10.763 -1.7519 -1.7445 -2.2411
11534TIP3    H256094   5.867   6.208  10.696 -0.0741  0.1383  2.0553
11535TIP3   OH256095   5.031   6.665   2.350  0.3832  0.1286 -0.2298
11535TIP3    H156096   5.041   6.601   2.279 -0.1295 -0.6898  0.4249
11535TIP3    H256097   4.953   6.716   2.326 -0.2783 -0.6901  0.1490
11536TIP3   OH256098   2.773   6.344   2.925  0.8740 -0.5633  0.2933
11536TIP3    H156099   2.801   6.418   2.871  0.3570  1.4156  2.6113
11536TIP3    H256100   2.680   6.333   2.904 -0.0085  1.9061  2.5418
11537TIP3   OH256101   2.133   5.360  14.076  0.2057  0.1525  0.0678
11537TIP3    H156102   2.076   5.406  14.015 -0.7094 -0.9482  0.0781
11537TIP3    H256103   2.092   5.371  14.161  1.1307  1.1224  0.3994
11538TIP3   OH256104   1.987   2.619   3.469  0.0506  0.4591 -0.0714
11538TIP3    H156105   2.038   2.687   3.426  0.7002  1.0622  1.6194
11538TIP3    H256106   2.053   2.563   3.512 -0.5246 -0.7183 -0.7001
11539TIP3   OH256107   2.849   3.867  12.989 -0.4517 -0.3209 -0.1745
11539TIP3    H156108   2.897   3.801  13.039  2.1395  0.1687 -1.9427
11539TIP3    H256109   2.785   3.817  12.938  0.8612 -1.4092 -0.7914
11540TIP3   OH256110   5.669   1.505   2.453 -0.0955 -0.0369  0.1010
11540TIP3    H156111   5.747   1.452   2.466 -0.8399 -1.6119 -1.5948
11540TIP3    H256112   5.700   1.595   2.452  2.1736 -0.7711 -3.6024
11541TIP3   OH256113   5.646   5.208   1.121  0.1971  0.7251  0.7512
11541TIP3    H156114   5.600   5.178   1.043 -0.0108  1.1221  0.7200
11541TIP3    H256115   5.712   5.269   1.088  0.8333  0.0742  0.7836
11542TIP3   OH256116   2.709   5.034  14.864 -0.2150  0.1615  0.3087
11542TIP3    H156117   2.785   4.980  14.840 -0.5385  0.3599 -1.2662
11542TIP3    H256118   2.660   5.043  14.782 -2.5080 -0.8521  1.5150
11543TIP3   OH256119   2.101   1.750  13.692 -0.0557 -0.0174  0.2626
11543TIP3    H156120   2.044   1.674  13.701 -1.4416  1.2707  2.9734
11543TIP3    H256121   2.175   1.732  13.749 -0.0197  0.2957  0.3194
11544TIP3   OH256122   4.907   6.495  14.992 -0.1341  0.0935 -0.5046
11544TIP3    H156123   4.908   6.590  14.988  0.9847  0.0978 -0.4075
11544TIP3    H256124   4.985   6.472  15.043 -1.0713 -0.8367  0.5424
11545TIP3   OH256125   1.063   3.893  14.844 -0.2032 -0.1902  0.3567
11545TIP3    H156126   1.141   3.897  14.789 -0.2256  0.6423  0.3800
11545TIP3    H256127   1.006   3.831  14.799 -0.3353  0.6962 -0.7343
11546TIP3   OH256128   2.500   0.327  14.271  0.0594  0.0578  0.1081
11546TIP3    H156129   2.498   0.423  14.276  1.1774 -0.0179  2.2495
11546TIP3    H256130   2.592   0.305  14.262 -0.1289 -0.8507  0.3284
11547TIP3   OH256131   6.720   2.699   4.220  0.0383  0.5069  0.2029
11547TIP3    H156132   6.695   2.722   4.130 -1.2151 -2.1973 -0.1949
11547TIP3    H256133   6.814   2.681   4.215 -0.1560 -0.3137 -0.7291
11548TIP3   OH256134   5.224   6.322  16.584 -0.1466  0.4689  0.4612
11548TIP3    H156135   5.202   6.264  16.511  0.5038  0.2505  0.4340
11548TIP3    H256136   5.313   6.296  16.609 -0.0444  1.1136  0.7784
11549TIP3   OH256137   4.470   2.603  13.715 -0.2307  0.3074 -0.1260
11549TIP3    H156138   4.526   2.680  13.713  1.0835 -0.6396 -0.7023
11549TIP3    H256139   4.429   2.600  13.629  1.5769 -0.9504 -0.9779
11550TIP3   OH256140   4.946   0.841  12.635 -0.3187 -0.3972  0.1647
11550TIP3    H156141   5.040   0.836  12.619 -0.5762 -0.0390 -1.5414
11550TIP3    H256142   4.935   0.803  12.722  1.4793  0.1742  0.6781
11551TIP3   OH256143   1.744   5.947  15.283  0.2259  0.5177 -0.2376
11551TIP3    H156144   1.679   5.878  15.297 -0.4302  0.8005 -1.8469
11551TIP3    H256145   1.794   5.949  15.365 -0.5220 -1.0359  0.2810
11552TIP3   OH256146   5.043   4.183   3.013 -0.4731 -0.0081  0.0811
11552TIP3    H156147   5.053   4.091   2.991  1.9550  0.1634  0.3555
11552TIP3    H256148   5.053   4.228   2.929 -0.4844  0.0725  0.1229
11553TIP3   OH256149   0.647   6.734   7.125 -0.2039 -0.1291 -0.1244
11553TIP3    H156150   0.552   6.720   7.124 -0.2169 -0.6946  2.9196
11553TIP3    H256151   0.680   6.665   7.182  1.7080  1.7153  1.0716
11554TIP3   OH256152   5.031   0.802  13.788 -0.0299 -0.6897  0.1018
11554TIP3    H156153   5.087   0.766  13.857  1.2061 -0.9021 -0.9871
11554TIP3    H256154   5.075   0.882  13.761 -0.9135 -0.2111  0.0781
11555TIP3   OH256155   0.315   4.850   3.912  0.2355 -0.3657  0.2988
11555TIP3    H156156   0.289   4.762   3.939  0.9555 -1.3923 -2.1713
11555TIP3    H256157   0.232   4.897   3.904 -0.1811 -0.8904  1.3499
11556TIP3   OH256158   5.015   5.627   0.914  0.1685 -0.1654  0.3974
11556TIP3    H156159   5.038   5.537   0.937  0.7048 -0.1509 -0.0731
11556TIP3    H256160   4.994   5.668   0.998 -1.1859 -1.0301  0.4980
11557TIP3   OH256161   5.779   5.750  14.415 -0.1351 -0.3461 -0.4592
11557TIP3    H156162   5.817   5.835  14.392  0.1544 -0.7916 -1.7119
11557TIP3    H256163   5.810   5.733  14.504 -1.0883  1.3508  0.2227
11558TIP3   OH256164   3.828   5.693  12.788  0.3881  0.1226  0.1714
11558TIP3    H156165   3.902   5.635  12.767  0.3162  0.4098 -0.8728
11558TIP3    H256166   3.769   5.638  12.840  0.2655 -0.7811 -0.9220
11559TIP3   OH256167   0.020   0.414  11.726  0.7996  0.0353  0.0866
11559TIP3    H156168  -0.018   0.499  11.748  0.9470  0.9491 -2.9967
11559TIP3    H256169  -0.051   0.352  11.739 -0.4318  1.1416 -1.2481
11560TIP3   OH256170   4.620   5.674   1.979  0.5395  0.5583 -0.0770
11560TIP3    H156171   4.629   5.585   2.013 -1.4218 -0.1942 -1.4482
11560TIP3    H256172   4.560   5.717   2.040 -1.5474 -0.2462 -1.5154
11561TIP3   OH256173   5.347   3.106   2.688  0.1690  0.2323  1.0408
11561TIP3    H156174   5.279   3.157   2.732  0.1364  0.7758  0.3762
11561TIP3    H256175   5.297   3.044   2.634  0.2079 -0.3964  1.7202
11562TIP3   OH256176   1.585   6.387   3.568 -0.5080  1.0591 -0.1659
11562TIP3    H156177   1.526   6.347   3.504 -0.6507  0.1700  0.5077
11562TIP3    H256178   1.621   6.464   3.523 -0.1716  0.1432 -1.5087
11563TIP3   OH256179   1.098   4.363  15.533 -0.4405  0.2489 -0.6629
11563TIP3    H156180   1.078   4.290  15.592 -1.2548  0.5378 -0.5841
11563TIP3    H256181   1.033   4.356  15.463  1.7941 -1.3660 -2.6921
11564TIP3   OH256182   6.783   3.672  16.009  0.0616  0.1316  0.1290
11564TIP3    H156183   6.769   3.690  15.916  1.8135 -0.3175 -0.2447
11564TIP3    H256184   6.771   3.577  16.017 -1.6297  0.3735  0.6739
11565TIP3   OH256185   3.755   2.012  16.204 -0.2335 -0.0006 -0.1591
11565TIP3    H156186   3.674   2.061  16.186 -0.3848 -0.2910 -0.2743
11565TIP3    H256187   3.809   2.026  16.126  0.2596  1.0718  0.3673
11566TIP3   OH256188   5.213   4.731   3.838  0.1809 -0.0043 -0.2757
11566TIP3    H156189   5.210   4.643   3.802  1.9634  0.1949 -0.9487
11566TIP3    H256190   5.164   4.725   3.920  2.0558 -2.1385  0.7316
11567TIP3   OH256191   5.759   6.155  15.813 -0.3554 -0.3790  0.6306
11567TIP3    H156192   5.734   6.066  15.834 -1.8117 -0.0027  0.5382
11567TIP3    H256193   5.854   6.152  15.803 -0.2645 -1.6629  1.8216
11568TIP3   OH256194   2.369   2.159  12.866 -0.2885 -0.5925  0.0711
11568TIP3    H156195   2.447   2.156  12.809  0.0289  0.9177  0.3908
11568TIP3    H256196   2.304   2.206  12.814 -0.4545 -0.4267  0.4288
11569TIP3   OH256197   0.963   5.528   0.052 -0.4963  0.4871 -0.2156
11569TIP3    H156198   0.952   5.613   0.095  0.8909  1.1601 -1.1845
11569TIP3    H256199   0.926   5.540  -0.035  0.4981  0.3407 -0.6543
11570TIP3   OH256200   3.191   5.327  10.960  0.4852 -0.1480  0.1435
11570TIP3    H156201   3.251   5.299  11.029  1.3258  0.4240 -0.3379
11570TIP3    H256202   3.115   5.362  11.006  1.6146  1.4972  0.8170
11571TIP3   OH256203   4.459   5.360   0.362  0.9294  0.0448  0.5300
11571TIP3    H156204   4.504   5.435   0.401  1.7908  0.1720 -0.6751
11571TIP3    H256205   4.502   5.283   0.401 -0.6783  0.1341  2.5927
11572TIP3   OH256206   1.992   1.517   3.527 -0.6602  0.2243  0.4915
11572TIP3    H156207   2.057   1.587   3.528  0.0923 -0.4958  3.1512
11572TIP3    H256208   1.953   1.518   3.614 -2.1586 -1.2876 -0.1208
11573TIP3   OH256209   4.230   0.141   2.857 -0.1170  0.0134 -0.5455
11573TIP3    H156210   4.243   0.079   2.929  1.8955 -0.2184 -1.0882
11573TIP3    H256211   4.183   0.090   2.790  1.4605 -0.9466 -0.9577
11574TIP3   OH256212   1.256   3.267  16.223 -0.1833  0.5996  0.0070
11574TIP3    H156213   1.227   3.190  16.175  1.1177 -0.7728  1.3550
11574TIP3    H256214   1.194   3.336  16.199 -1.7157 -1.0259 -0.7602
11575TIP3   OH256215   6.630   1.006  15.113  0.5684  0.9963  0.2758
11575TIP3    H156216   6.657   0.995  15.204  0.5022  1.3590  0.3392
11575TIP3    H256217   6.589   1.092  15.111  3.5652  2.4572 -0.8332
11576TIP3   OH256218   0.738   2.899   6.692 -0.3853  0.5791 -0.0242
11576TIP3    H156219   0.788   2.832   6.648  0.9252  3.2272 -2.7392
11576TIP3    H256220   0.650   2.892   6.655 -1.2205 -1.8568  2.2772
11577TIP3   OH256221   0.360   5.640   5.260 -0.3641  0.4839  0.2678
11577TIP3    H156222   0.340   5.640   5.354  0.3641  0.2551  0.4333
11577TIP3    H256223   0.382   5.731   5.240  1.0992  0.2361  0.6925
11578TIP3   OH256224   0.536   4.620  11.640  0.0783  0.3642  0.5103
11578TIP3    H156225   0.459   4.669  11.611  0.0640  2.2153  3.4478
11578TIP3    H256226   0.501   4.536  11.670 -0.6125  0.6822  0.5970
11579TIP3   OH256227   4.059   2.890   2.542  0.2380 -0.3645 -0.0099
11579TIP3    H156228   4.070   2.925   2.453 -1.2966  1.1125  0.3727
11579TIP3    H256229   4.120   2.941   2.595  1.5856 -1.6459 -0.2941
11580TIP3   OH256230   0.067   3.016  12.624 -0.2438  0.4963 -0.5542
11580TIP3    H156231   0.085   3.095  12.572 -0.5884  0.1577 -1.1859
11580TIP3    H256232  -0.012   2.980  12.587  0.9292 -1.1747 -1.4675
11581TIP3   OH256233   4.451   4.657  17.081 -0.8702  0.0891 -0.3286
11581TIP3    H156234   4.362   4.689  17.096 -0.8284 -0.0384  0.2037
11581TIP3    H256235   4.503   4.735  17.065 -0.8942  0.2421  0.3165
11582TIP3   OH256236   2.585   3.907  11.688 -0.8089 -0.1176 -0.6092
11582TIP3    H156237   2.643   3.897  11.764 -1.8399  0.5779  0.2836
11582TIP3    H256238   2.641   3.943  11.619  0.2758 -1.3004 -0.3751
11583TIP3   OH256239   2.950   6.544  11.340 -0.1966  0.8173  0.3903
11583TIP3    H156240   2.979   6.509  11.255  0.0404  0.9447  0.4182
11583TIP3    H256241   2.916   6.632  11.319 -0.1376  0.8491  0.4287
11584TIP3   OH256242   3.102   5.516   0.510  0.4165  0.3325  0.0104
11584TIP3    H156243   3.013   5.550   0.513  0.0200 -0.7109  0.1577
11584TIP3    H256244   3.122   5.490   0.600  1.2507  1.5038  0.1808
11585TIP3   OH256245   4.325   4.028   3.356 -0.1014  0.0571 -0.2851
11585TIP3    H156246   4.372   3.961   3.406 -1.0455 -0.3448  0.0739
11585TIP3    H256247   4.292   4.089   3.422  0.4319  0.6670 -0.5816
11586TIP3   OH256248   1.543   4.993  15.072 -0.0018  0.1891 -0.4713
11586TIP3    H156249   1.616   5.039  15.031  1.2182  0.1925  1.6688
11586TIP3    H256250   1.484   4.972  14.999  0.9841  2.2611 -1.8921
11587TIP3   OH256251   0.550   5.238  12.985  0.2693 -0.0377  0.3125
11587TIP3    H156252   0.493   5.171  12.946 -0.0969  0.8403 -0.7061
11587TIP3    H256253   0.593   5.278  12.909 -1.3221  2.4992  0.6979
11588TIP3   OH256254   2.168   5.057   0.360  0.4597  0.2108  0.3346
11588TIP3    H156255   2.188   5.143   0.324 -0.3089  0.6424  0.9255
11588TIP3    H256256   2.141   5.075   0.450 -0.1099 -0.6140  0.3265
11589TIP3   OH256257   5.204   4.231  14.979  0.4029 -0.2169  0.0823
11589TIP3    H156258   5.124   4.265  15.017  0.6064 -0.5125  0.7768
11589TIP3    H256259   5.180   4.207  14.890 -0.4964 -1.1382  0.5691
11590TIP3   OH256260   0.777   6.313  11.817 -0.2641  0.0649 -0.4098
11590TIP3    H156261   0.706   6.261  11.855  0.4037 -0.1107  0.6206
11590TIP3    H256262   0.747   6.403  11.825 -1.1074 -0.1018 -1.5348
11591TIP3   OH256263   1.295   1.663   5.196 -0.1080  0.3293  0.0562
11591TIP3    H156264   1.247   1.741   5.172  0.2146  0.8449  1.0656
11591TIP3    H256265   1.350   1.690   5.270  0.9769 -0.5032 -0.4346
11592TIP3   OH256266   3.013   5.891   1.685  0.1325  0.4435  0.0820
11592TIP3    H156267   2.954   5.963   1.707 -3.9426 -2.9929  0.9997
11592TIP3    H256268   3.058   5.870   1.767  1.5284  2.0570 -0.2511
11593TIP3   OH256269   5.436   2.009  16.538 -0.1635  0.3467  0.5619
11593TIP3    H156270   5.424   2.098  16.571  1.2224  0.7645 -0.0156
11593TIP3    H256271   5.402   2.011  16.449  0.3980  0.4585  0.3476
11594TIP3   OH256272   1.622   0.471  12.677  0.5685 -0.4528  0.4363
11594TIP3    H156273   1.614   0.564  12.698 -0.0078 -0.6347  1.0298
11594TIP3    H256274   1.550   0.453  12.617 -0.4737 -0.9294  1.7879
11595TIP3   OH256275   3.588   6.218  14.245 -0.0877  0.0514  0.5029
11595TIP3    H156276   3.536   6.291  14.213 -0.8666 -0.2766  1.0079
11595TIP3    H256277   3.663   6.214  14.186 -1.4909 -0.5191 -1.2982
11596TIP3   OH256278   3.191   4.396  13.628 -0.1126 -0.0574 -1.0226
11596TIP3    H156279   3.123   4.377  13.564 -0.1504  4.9924 -2.6216
11596TIP3    H256280   3.254   4.451  13.582  2.5324 -0.4840  1.8659
11597TIP3   OH256281   4.317   3.783   3.917 -0.0614 -0.6443 -0.0961
11597TIP3    H156282   4.237   3.834   3.926 -0.1143 -1.1391  2.7961
11597TIP3    H256283   4.287   3.696   3.891 -0.3055 -0.3724 -0.7474
11598TIP3   OH256284   0.737   5.642  14.938 -0.1257 -0.0566 -0.0473
11598TIP3    H156285   0.663   5.590  14.970  1.0764 -1.5437  0.3943
11598TIP3    H256286   0.800   5.641  15.011  0.8075  0.2238 -0.8377
11599TIP3   OH256287   2.700   5.959   5.219 -1.0139  0.0843  0.8972
11599TIP3    H156288   2.618   5.915   5.197 -0.7267 -0.2308  0.4496
11599TIP3    H256289   2.736   5.987   5.135 -1.2496  1.2950  1.1776
11600TIP3   OH256290   4.690   6.565  16.854  0.1590  0.0534 -0.2205
11600TIP3    H156291   4.615   6.572  16.913 -1.5325  1.4485 -2.4023
11600TIP3    H256292   4.759   6.617  16.895 -0.6614  0.2251  0.9572
11601TIP3   OH256293   3.845   4.964   4.481  0.0147  0.3804 -0.5385
11601TIP3    H156294   3.822   5.052   4.452  1.1010  1.1073  0.7644
11601TIP3    H256295   3.760   4.921   4.494 -0.5256  1.2010 -1.2814
11602TIP3   OH256296   3.885   2.486  11.145 -0.0455 -0.1205  0.2299
11602TIP3    H156297   3.881   2.564  11.090  1.5126 -0.0788  0.1544
11602TIP3    H256298   3.969   2.493  11.190 -0.6049 -0.9524  1.4340
11603TIP3   OH256299   6.632   4.124  12.208  0.0319 -0.3109  0.2805
11603TIP3    H156300   6.606   4.032  12.214 -1.2668 -0.2070 -2.6117
11603TIP3    H256301   6.593   4.166  12.284 -0.8419 -1.8380  0.6894
11604TIP3   OH256302   5.909   5.061   1.202 -0.0421 -0.8538 -1.0179
11604TIP3    H156303   5.965   5.123   1.248 -0.4989 -1.1050 -0.0927
11604TIP3    H256304   5.828   5.109   1.185 -0.0911 -0.9388 -1.0268
11605TIP3   OH256305   0.706   6.638   0.033  0.7382  0.0668  0.4187
11605TIP3    H156306   0.719   6.723   0.076 -0.4755  1.1604 -1.3188
11605TIP3    H256307   0.628   6.650  -0.021  0.1603 -2.3808  0.6667
11606TIP3   OH256308   3.993   1.213   0.633 -0.4262  0.1279 -0.2275
11606TIP3    H156309   3.990   1.304   0.664  2.2450 -0.4820  1.9680
11606TIP3    H256310   3.925   1.168   0.683 -0.7451  0.5785 -0.2461
11607TIP3   OH256311   6.587   4.623   3.929  0.0766 -0.4244 -0.0292
11607TIP3    H156312   6.614   4.680   3.858 -0.0674 -0.7807 -0.3717
11607TIP3    H256313   6.562   4.683   4.000 -0.3299 -0.0596 -0.4763
11608TIP3   OH256314   3.373   3.092  10.979 -0.3216 -0.2794  0.2564
11608TIP3    H156315   3.443   3.157  10.977 -0.6932  0.1295  0.4256
11608TIP3    H256316   3.381   3.044  10.897 -0.5338  0.4957 -0.2115
11609TIP3   OH256317   3.006   0.764  16.446  0.2356  0.0570 -0.0370
11609TIP3    H156318   2.919   0.774  16.407  0.1363 -0.2663  0.0952
11609TIP3    H256319   3.033   0.853  16.468 -0.3651  0.0981  0.5659
11610TIP3   OH256320   1.967   0.102   3.101  0.0465  0.3903 -0.3137
11610TIP3    H156321   1.956   0.071   3.012 -0.6847 -0.4377  0.0547
11610TIP3    H256322   1.991   0.194   3.092 -0.6398  0.4719 -1.3503
11611TIP3   OH256323   0.480   5.334  11.938  0.0207 -0.1025  0.2296
11611TIP3    H156324   0.566   5.326  11.896  0.9060  3.6468  1.1402
11611TIP3    H256325   0.496   5.313  12.030 -0.1447 -0.0404  0.2728
11612TIP3   OH256326   4.069   5.404   4.839  0.1435  0.3869  0.3274
11612TIP3    H156327   3.989   5.455   4.830 -0.3131 -0.2730  0.6831
11612TIP3    H256328   4.049   5.319   4.801 -0.0501 -0.5448  2.4589
11613TIP3   OH256329   4.675   1.876  10.401 -0.0419  0.0712  0.9016
11613TIP3    H156330   4.655   1.886  10.495 -0.5915 -0.1313  0.8088
11613TIP3    H256331   4.647   1.959  10.362  0.4542  0.2685  0.9561
11614TIP3   OH256332   2.107   3.300  16.687 -0.1715 -0.3353  0.6887
11614TIP3    H156333   2.126   3.370  16.749 -0.8537  0.7960 -0.3556
11614TIP3    H256334   2.185   3.294  16.632 -0.9202  1.0398 -0.5459
11615TIP3   OH256335   3.207   3.973   1.289  0.4698  0.1406 -0.3544
11615TIP3    H156336   3.115   3.994   1.304  1.0631  1.6271  1.4024
11615TIP3    H256337   3.205   3.908   1.219 -1.9524 -0.3412  0.0833
11616TIP3   OH256338   1.967   4.351  10.940  0.1620  0.9796  0.1798
11616TIP3    H156339   1.990   4.338  10.848 -0.7993  1.3897 -0.1291
11616TIP3    H256340   1.988   4.268  10.982 -0.3428  0.4366 -0.6136
11617TIP3   OH256341   2.851   5.761  10.995  0.1774  0.2042 -0.0529
11617TIP3    H156342   2.870   5.738  11.086  1.4971 -0.0042 -0.3774
11617TIP3    H256343   2.883   5.687  10.944  0.0374  0.6135 -0.7389
11618TIP3   OH256344   4.063   6.289  12.745 -0.5308 -0.1120  0.1308
11618TIP3    H156345   4.031   6.338  12.821 -0.7529  1.1473 -0.7547
11618TIP3    H256346   4.016   6.206  12.749  0.5811 -0.6642  2.2006
11619TIP3   OH256347   0.152   3.128   1.574 -0.1343 -0.1030  0.0270
11619TIP3    H156348   0.178   3.103   1.662 -0.6762 -1.6546 -0.2390
11619TIP3    H256349   0.057   3.141   1.580 -0.3657 -1.4147 -0.5895
11620TIP3   OH256350   0.943   4.384  11.586  0.0723 -0.3877  0.3858
11620TIP3    H156351   0.955   4.423  11.673 -1.9109 -0.9271  0.9303
11620TIP3    H256352   0.884   4.445  11.541  0.6703 -0.3842 -0.3905
11621TIP3   OH256353   0.353   3.278   0.128 -0.2351 -0.0875 -0.0264
11621TIP3    H156354   0.362   3.184   0.118  0.2032  0.0638 -1.0799
11621TIP3    H256355   0.272   3.300   0.083  0.2304  0.1856 -0.7425
11622TIP3   OH256356   6.595   3.981   1.870 -0.1348 -0.3523  0.3370
11622TIP3    H156357   6.562   3.973   1.780  0.7703  0.2691 -0.0526
11622TIP3    H256358   6.609   3.890   1.898 -1.8558 -0.6151  0.3993
11623TIP3   OH256359   0.383   4.065  12.380 -0.2442 -0.2972  0.7712
11623TIP3    H156360   0.413   4.075  12.470  0.3563 -0.3496  0.5796
11623TIP3    H256361   0.461   4.037  12.332 -0.5409 -0.1785  0.2180
11624TIP3   OH256362   0.632   3.168   3.159 -0.7122  0.7810  0.4208
11624TIP3    H156363   0.687   3.173   3.238  0.6371  0.3937 -0.4784
11624TIP3    H256364   0.547   3.200   3.188 -0.9117 -1.5695  2.6395
11625TIP3   OH256365   6.814   5.509  14.657  0.3373 -0.2367  0.1144
11625TIP3    H156366   6.859   5.548  14.731 -1.2330  0.6390  0.6380
11625TIP3    H256367   6.842   5.561  14.581  1.9124 -1.1125  0.0889
11626TIP3   OH256368   2.059   0.535  15.043 -0.2380  0.2328  0.5648
11626TIP3    H156369   2.078   0.448  15.007 -1.7666  0.2991 -0.4429
11626TIP3    H256370   2.050   0.520  15.138 -0.8157 -0.7594  0.3550
11627TIP3   OH256371   3.414   6.134   1.576  0.2565  0.8424  0.2202
11627TIP3    H156372   3.415   6.221   1.537 -2.1590  0.4307 -0.8550
11627TIP3    H256373   3.342   6.136   1.638 -0.6780 -0.7566 -0.7590
11628TIP3   OH256374   5.036   5.727   1.194  1.1077  0.4923  0.1845
11628TIP3    H156375   5.100   5.708   1.263 -0.2249  1.9397  1.8596
11628TIP3    H256376   4.975   5.789   1.234 -0.5724  0.1870 -1.8291
11629TIP3   OH256377   0.505   4.709  11.913  0.0468 -0.3626 -0.6913
11629TIP3    H156378   0.587   4.728  11.867 -0.0831 -1.4345 -1.3866
11629TIP3    H256379   0.532   4.695  12.004  0.5780 -0.2557 -0.8272
11630TIP3   OH256380   1.504   4.044  12.741  0.5412 -0.5380  0.0618
11630TIP3    H156381   1.512   4.139  12.753 -2.1932 -0.1098 -1.2540
11630TIP3    H256382   1.594   4.014  12.728  1.0859  2.6050 -4.7007
11631TIP3   OH256383   4.068   5.100   4.460  0.2092 -0.0900 -0.1549
11631TIP3    H156384   3.999   5.033   4.468 -0.8400  0.9887 -0.0192
11631TIP3    H256385   4.126   5.065   4.392  1.0494 -2.2878  1.6170
11632TIP3   OH256386   5.375   2.628  13.175  0.0140 -0.0568 -0.2710
11632TIP3    H156387   5.447   2.689  13.163  0.2357 -0.3374 -0.3574
11632TIP3    H256388   5.308   2.657  13.113  0.3566 -0.2685 -0.7467
11633TIP3   OH256389   0.158   0.809   4.902 -0.7967  0.1387  0.0343
11633TIP3    H156390   0.071   0.842   4.927 -0.6472  0.8577 -0.4052
11633TIP3    H256391   0.218   0.879   4.926 -0.1980 -0.8151  1.3958
11634TIP3   OH256392   0.582   6.804  12.684 -0.1583  0.2850 -0.1650
11634TIP3    H156393   0.572   6.808  12.779 -0.5271  0.6141 -0.2182
11634TIP3    H256394   0.618   6.716  12.668 -1.3436 -0.2693  0.1636
11635TIP3   OH256395   5.994   0.111  12.135  0.1772 -0.2464  0.3459
11635TIP3    H156396   6.013   0.036  12.078 -1.1528 -0.6745  0.4483
11635TIP3    H256397   6.060   0.176  12.111 -0.4871 -0.3294 -1.8775
11636TIP3   OH256398   1.401   6.544  13.082 -0.0160 -0.0041 -0.0830
11636TIP3    H156399   1.406   6.573  13.173 -0.4013 -0.0241 -0.0524
11636TIP3    H256400   1.416   6.450  13.086  1.1503  0.1762 -0.1712
11637TIP3   OH256401   0.005   5.567  17.086  0.1061 -0.5147  0.9305
11637TIP3    H156402  -0.080   5.595  17.119  0.1713 -0.7101  1.2785
11637TIP3    H256403  -0.013   5.486  17.038 -0.1866  0.4895 -0.6790
11638TIP3   OH256404   0.234   2.740   0.097  0.3088  0.1578  0.3454
11638TIP3    H156405   0.176   2.669   0.125 -0.5076  0.4983 -0.4271
11638TIP3    H256406   0.230   2.737   0.001  1.4434  0.2991  0.2937
11639TIP3   OH256407   3.654   1.992  13.700  0.4097  0.6318 -0.2441
11639TIP3    H156408   3.609   1.908  13.712  0.9201  0.3570 -0.2481
11639TIP3    H256409   3.603   2.054  13.752  0.8539  0.0375  0.9143
11640TIP3   OH256410   5.915   2.520  14.147 -0.0637  0.0954  0.2932
11640TIP3    H156411   5.927   2.574  14.224  0.1815  1.4673 -0.6794
11640TIP3    H256412   5.851   2.567  14.093  0.9031 -0.0514 -1.0260
11641TIP3   OH256413   0.758   5.601  14.338  0.2513 -0.0366 -0.1142
11641TIP3    H156414   0.760   5.513  14.375 -0.6219 -1.3144 -2.9724
11641TIP3    H256415   0.668   5.613  14.309  0.4655  1.6680 -0.1410
11642TIP3   OH256416   5.065   6.637  14.202  0.3157  0.4297 -0.0335
11642TIP3    H156417   5.083   6.712  14.259 -0.3683  1.0046 -0.5687
11642TIP3    H256418   5.095   6.665  14.116  1.7781 -0.6099  0.1059
11643TIP3   OH256419   3.268   1.810   4.937 -0.1698  0.5559 -0.1900
11643TIP3    H156420   3.326   1.795   5.011 -0.8764  0.6403  0.3896
11643TIP3    H256421   3.230   1.723   4.918  0.1333  0.5028 -0.5580
11644TIP3   OH256422   0.377   2.145  11.895  0.4238 -0.1564 -0.3595
11644TIP3    H156423   0.431   2.075  11.860  0.3388 -1.1283  1.4507
11644TIP3    H256424   0.433   2.191  11.957  0.4470  1.3254 -1.4498
11645TIP3   OH256425   5.222   5.283   4.316 -0.1074  0.8200 -0.1215
11645TIP3    H156426   5.313   5.273   4.343 -0.3212  2.2154  1.1805
11645TIP3    H256427   5.197   5.196   4.284  1.5515  0.3299 -0.1249
11646TIP3   OH256428   4.986   3.824  11.449  0.2254 -0.5417 -0.5908
11646TIP3    H156429   5.055   3.767  11.481 -0.2245  0.4133  2.2745
11646TIP3    H256430   5.032   3.901  11.415  0.6568 -0.6362 -0.2304
11647TIP3   OH256431   4.561   6.306  14.147 -0.0199  0.2679 -0.1460
11647TIP3    H156432   4.578   6.227  14.095  0.3189  0.2773 -0.0553
11647TIP3    H256433   4.469   6.301  14.171  0.6993 -1.7088  2.4994
11648TIP3   OH256434   5.295   2.952   5.272  0.9589  0.1854  0.3347
11648TIP3    H156435   5.366   2.955   5.208  0.0181  0.3026 -0.7251
11648TIP3    H256436   5.327   2.893   5.341  1.9287 -0.0519 -0.3056
11649TIP3   OH256437   2.739   5.916   5.621  0.3361  0.0604  0.7939
11649TIP3    H156438   2.670   5.953   5.675  1.3914  1.6659  1.0688
11649TIP3    H256439   2.805   5.985   5.615  0.6980 -0.4446 -1.7182
11650TIP3   OH256440   0.684   0.104  12.409  0.5416 -0.2461 -0.3463
11650TIP3    H156441   0.664   0.062  12.493 -1.4714  0.6489 -0.3453
11650TIP3    H256442   0.707   0.194  12.432  2.2050 -0.6030 -0.5773
11651TIP3   OH256443   4.962   2.508  11.699  0.5929  0.0058 -0.0679
11651TIP3    H156444   4.981   2.561  11.776 -0.0029  0.5250 -0.2762
11651TIP3    H256445   4.898   2.559  11.650 -0.4564 -1.1715  0.0401
11652TIP3   OH256446   6.175   6.722  13.787  0.2126 -0.2813 -0.5020
11652TIP3    H156447   6.187   6.729  13.692 -0.1341  0.2568 -0.5114
11652TIP3    H256448   6.144   6.633  13.802  1.5091 -0.7901 -0.7626
11653TIP3   OH256449   4.073   5.463  14.085  0.3033 -0.5652 -0.3819
11653TIP3    H156450   4.066   5.373  14.055  0.0701 -0.1737 -1.5523
11653TIP3    H256451   4.019   5.513  14.023 -1.5292  0.0691  1.6602
11654TIP3   OH256452   4.782   0.570   0.072  0.0445  0.1716  0.2940
11654TIP3    H156453   4.831   0.539  -0.004  0.2049  1.1227  0.0052
11654TIP3    H256454   4.735   0.647   0.041 -1.3303 -0.4881  0.6792
11655TIP3   OH256455   5.070   5.256  16.771 -0.7309  0.5981  0.6918
11655TIP3    H156456   4.976   5.237  16.769 -0.9864  1.8637 -1.6211
11655TIP3    H256457   5.103   5.224  16.687  0.8130  0.6147  1.2742
11656TIP3   OH256458   4.809   0.167  13.912 -0.1178  0.2795  0.1470
11656TIP3    H156459   4.735   0.213  13.873  1.2593  1.6570 -0.8900
11656TIP3    H256460   4.771   0.120  13.987 -2.1458  0.4300 -0.7500
11657TIP3   OH256461   4.809   0.949  11.420 -0.3493  0.3724  0.6444
11657TIP3    H156462   4.840   0.874  11.471  0.8555  0.5930  0.2497
11657TIP3    H256463   4.719   0.925  11.395 -0.1911 -0.6759  1.0425
11658TIP3   OH256464   1.163   5.805   3.058  0.5016 -0.2811 -0.0825
11658TIP3    H156465   1.255   5.813   3.031  0.0096  0.1349 -1.6559
11658TIP3    H256466   1.114   5.800   2.976 -0.9173 -0.2160  0.7491
11659TIP3   OH256467   3.346   0.404  14.284  0.2803  0.2292 -0.2031
11659TIP3    H156468   3.390   0.359  14.212  0.4069  1.1234 -0.6786
11659TIP3    H256469   3.352   0.342  14.357  2.9315  0.6490 -0.0500
11660TIP3   OH256470   0.696   4.427   3.620  0.2159  0.3464  0.1132
11660TIP3    H156471   0.736   4.442   3.706 -0.1986  0.6839  0.2478
11660TIP3    H256472   0.612   4.385   3.640  0.0206  0.6266 -0.1124
11661TIP3   OH256473   4.077   5.698   3.408  0.7049  0.1198 -0.1385
11661TIP3    H156474   4.028   5.632   3.457  0.5654  0.4750  0.2083
11661TIP3    H256475   4.119   5.752   3.476 -0.3028  1.2277 -0.3834
11662TIP3   OH256476   3.094   6.483  11.092  0.3491  0.5714  0.2245
11662TIP3    H156477   3.106   6.577  11.093  1.4358  0.4254  1.6752
11662TIP3    H256478   3.094   6.459  10.999 -3.4868  2.4273 -0.3437
11663TIP3   OH256479   5.582   0.562   0.135 -0.0578  0.4542  0.1013
11663TIP3    H156480   5.624   0.549   0.220 -1.2902  1.3306  0.8583
11663TIP3    H256481   5.541   0.478   0.115  0.7035  0.0788  0.1015
11664TIP3   OH256482   6.280   3.337  16.636  0.4819  0.4507  0.2211
11664TIP3    H156483   6.204   3.279  16.647  0.1705  0.4411 -1.8347
11664TIP3    H256484   6.259   3.413  16.691 -1.5612  0.9561 -1.1956
11665TIP3   OH256485   4.192   1.681   2.133  0.0745  0.2034 -0.2638
11665TIP3    H156486   4.262   1.728   2.178  0.5665 -1.1978  0.4800
11665TIP3    H256487   4.112   1.724   2.161  0.3045 -1.0289  2.5365
11666TIP3   OH256488   0.147   0.122   6.030  0.2781 -0.1867  0.9954
11666TIP3    H156489   0.063   0.086   6.057 -0.3834  1.1046  0.6911
11666TIP3    H256490   0.135   0.146   5.938  0.3139  1.9259  1.5224
11667TIP3   OH256491   5.003   0.376   1.721 -0.6274  0.1700 -0.1880
11667TIP3    H156492   4.982   0.326   1.800  0.3310  1.2212  0.7447
11667TIP3    H256493   5.069   0.439   1.749  1.1120 -0.6856 -2.2540
11668TIP3   OH256494   0.801   2.431  14.594 -0.2914 -0.6328  0.2274
11668TIP3    H156495   0.857   2.458  14.667 -1.0618 -1.6032  1.1921
11668TIP3    H256496   0.737   2.501  14.586 -0.3625 -0.6454  0.6574
11669TIP3   OH256497   2.685   2.077  14.580 -0.3119 -0.0238 -0.9051
11669TIP3    H156498   2.741   2.041  14.511  1.1164  0.1714  0.1331
11669TIP3    H256499   2.714   2.168  14.590 -0.9229  0.1294 -0.4580
11670TIP3   OH256500   1.178   0.886  11.252 -0.0370 -0.0549 -0.1678
11670TIP3    H156501   1.155   0.831  11.178 -1.5844 -1.2037  1.1267
11670TIP3    H256502   1.205   0.825  11.321  2.1381  1.0247  0.0055
11671TIP3   OH256503   4.838   6.035  14.510 -0.3963  0.3059 -0.3528
11671TIP3    H156504   4.783   6.081  14.573  0.2045 -0.3347  0.6518
11671TIP3    H256505   4.839   6.092  14.433 -2.0148  0.5815 -0.1873
11672TIP3   OH256506   1.618   4.830  12.599  0.3238  0.3749 -0.6441
11672TIP3    H156507   1.609   4.735  12.593  1.3301  0.2200  0.1709
11672TIP3    H256508   1.709   4.844  12.627 -0.4191  1.5036  1.2795
11673TIP3   OH256509   1.411   0.959  11.594 -0.1882 -0.5951  0.2984
11673TIP3    H156510   1.484   0.918  11.547  0.9425  0.8985  0.7313
11673TIP3    H256511   1.397   1.042  11.549  0.7631  0.7548  2.4192
11674TIP3   OH256512   3.805   2.333   2.106  0.0562 -0.6181  0.8509
11674TIP3    H156513   3.828   2.256   2.053 -0.4699  0.4552 -0.9515
11674TIP3    H256514   3.886   2.384   2.110  0.0107 -0.5478  0.8520
11675TIP3   OH256515   5.616   1.721  14.771  0.0759  0.0077  0.0821
11675TIP3    H156516   5.584   1.688  14.854  0.8962 -0.7489  0.1122
11675TIP3    H256517   5.598   1.650  14.708 -0.7497  0.6651 -0.4285
11676TIP3   OH256518   2.652   1.462   0.699  0.8663  0.1818  0.1878
11676TIP3    H156519   2.618   1.521   0.766 -0.5360  0.2482 -0.5823
11676TIP3    H256520   2.673   1.519   0.625  0.6703 -0.1341 -0.1109
11677TIP3   OH256521   5.567   1.798   4.272  1.0000  0.1880  0.2879
11677TIP3    H156522   5.590   1.879   4.226  0.5998 -0.0648 -0.3595
11677TIP3    H256523   5.505   1.826   4.340  0.4447  0.3465 -0.2843
11678TIP3   OH256524   3.816   5.987   3.276  0.4151 -0.0438  0.3641
11678TIP3    H156525   3.892   5.951   3.231  1.1380  2.7640 -0.7700
11678TIP3    H256526   3.808   5.934   3.356  2.0108 -1.9853 -0.7266
11679TIP3   OH256527   5.040   4.363   0.501 -0.0442 -0.3088  0.2459
11679TIP3    H156528   4.957   4.359   0.548  1.3828  0.8820  3.0118
11679TIP3    H256529   5.028   4.306   0.425 -2.6233 -1.9054  1.7793
11680TIP3   OH256530   2.488   2.545  16.100 -0.3205 -0.3106  0.0958
11680TIP3    H156531   2.546   2.469  16.092 -0.4283 -0.3064 -0.7804
11680TIP3    H256532   2.547   2.620  16.091 -0.5742 -0.3052 -1.8550
11681TIP3   OH256533   3.114   1.148  14.299  0.5058 -0.1611 -0.1260
11681TIP3    H156534   3.199   1.145  14.342  0.4812  0.8478 -0.0170
11681TIP3    H256535   3.053   1.175  14.367  0.2911  0.3167 -0.5025
11682TIP3   OH256536   0.401   6.143   4.832 -0.4565  0.4682  0.3625
11682TIP3    H156537   0.313   6.108   4.844 -0.6359  0.1263 -1.8093
11682TIP3    H256538   0.396   6.195   4.751  0.8248  2.1463  1.3103
11683TIP3   OH256539   0.065   4.938  12.359 -0.0653  0.3642 -0.1457
11683TIP3    H156540   0.091   4.861  12.309 -1.5647 -1.1905  1.3905
11683TIP3    H256541  -0.021   4.961  12.323  0.4182  1.3896 -0.6560
11684TIP3   OH256542   5.988   3.001   1.429 -0.2502 -0.0940  0.3592
11684TIP3    H156543   5.993   3.004   1.333  0.2932 -0.9509  0.3559
11684TIP3    H256544   5.929   2.929   1.448 -1.8520  1.2726  0.6526
11685TIP3   OH256545   3.587   0.528  15.018  0.0864 -0.4638  0.1490
11685TIP3    H156546   3.507   0.570  15.049  1.3577  1.4220  0.9215
11685TIP3    H256547   3.593   0.447  15.069  0.4102  1.0104  2.5257
11686TIP3   OH256548   2.018   4.108  11.055  1.0724  0.3445  0.4625
11686TIP3    H156549   1.945   4.067  11.101 -0.2992  2.3153  0.0787
11686TIP3    H256550   2.048   4.041  10.993  0.2901 -0.8452  1.3517
11687TIP3   OH256551   4.285   6.677   2.143 -0.0319 -0.0345  0.1252
11687TIP3    H156552   4.231   6.644   2.072 -0.9790  0.9776  0.3638
11687TIP3    H256553   4.298   6.770   2.122  0.8433 -0.0569  0.5444
11688TIP3   OH256554   6.569   6.168   2.166  0.0131  0.0983 -0.2295
11688TIP3    H156555   6.654   6.135   2.137 -0.9886 -0.4380 -2.5979
11688TIP3    H256556   6.584   6.262   2.180  1.5714 -0.3773  1.7078
11689TIP3   OH256557   5.717   0.700  10.780 -0.0636 -0.2848  0.0706
11689TIP3    H156558   5.808   0.704  10.810 -0.1369 -0.0690  0.2705
11689TIP3    H256559   5.707   0.779  10.727  0.1329 -0.7884 -0.7150
11690TIP3   OH256560   3.664   1.177   3.066 -0.3593  0.1511 -0.2425
11690TIP3    H156561   3.741   1.138   3.024  0.1030 -1.0003  1.6098
11690TIP3    H256562   3.590   1.129   3.029 -0.0452 -0.0901 -0.5633
11691TIP3   OH256563   2.746   4.908  13.470 -0.4344 -0.5560  0.1682
11691TIP3    H156564   2.725   4.966  13.544 -0.3255  0.1236 -0.3337
11691TIP3    H256565   2.788   4.832  13.511 -0.3598 -0.1744  0.8087
11692TIP3   OH256566   5.384   0.199   6.547 -0.2066 -0.2880  0.2347
11692TIP3    H156567   5.381   0.146   6.627  2.9280 -1.8390 -0.5762
11692TIP3    H256568   5.456   0.261   6.562 -1.5944  1.4768 -0.2022
11693TIP3   OH256569   0.717   0.520  12.251 -0.2400 -0.1027  0.2664
11693TIP3    H156570   0.630   0.483  12.265 -0.3994  0.3877  0.6044
11693TIP3    H256571   0.703   0.615  12.252  0.2299 -0.0301 -0.1340
11694TIP3   OH256572   5.681   1.965  13.372  0.3417  0.1622 -0.0459
11694TIP3    H156573   5.711   2.020  13.299 -0.2215  0.2081 -0.2477
11694TIP3    H256574   5.640   2.026  13.433  1.0981  0.1640  0.4628
11695TIP3   OH256575   0.976   3.909   3.466  0.3679 -0.4915 -0.1765
11695TIP3    H156576   1.012   3.848   3.401 -0.2151  1.1651 -2.0938
11695TIP3    H256577   1.006   3.995   3.437 -1.0504  0.4087  0.9855
11696TIP3   OH256578   4.177   5.241   4.158 -0.0507 -0.3260 -0.0732
11696TIP3    H156579   4.182   5.287   4.074 -1.1865  2.4329  1.2895
11696TIP3    H256580   4.209   5.305   4.222  1.8455 -2.7397  1.5085
11697TIP3   OH256581   5.084   1.552   2.104  0.4829  0.1224  0.8119
11697TIP3    H156582   5.052   1.489   2.168  0.6363 -0.7287  0.0600
11697TIP3    H256583   5.007   1.573   2.050  0.7022 -0.3032  0.3359
11698TIP3   OH256584   4.112   1.827  12.559 -0.1244  0.0573 -0.2872
11698TIP3    H156585   4.177   1.872  12.613 -1.1113 -1.0226  1.9104
11698TIP3    H256586   4.154   1.744  12.535  0.4590  0.7038 -1.5313
11699TIP3   OH256587   2.877   5.633   4.805  0.3120  1.0503  0.0067
11699TIP3    H156588   2.817   5.611   4.734  0.2219  1.6201 -0.0983
11699TIP3    H256589   2.963   5.637   4.763  0.4265  0.2389  0.1561
11700TIP3   OH256590   5.857   6.421   5.078  0.5750  0.2336 -0.2155
11700TIP3    H156591   5.851   6.331   5.110  1.3181 -0.0360 -0.8165
11700TIP3    H256592   5.947   6.448   5.099  0.8723  0.2641 -1.5185
11701TIP3   OH256593   4.255   4.829  16.832 -0.4156 -0.3529 -0.0912
11701TIP3    H156594   4.219   4.836  16.744  1.3855 -0.1735 -0.8459
11701TIP3    H256595   4.258   4.735  16.849  2.5599 -0.6086 -1.6982
11702TIP3   OH256596   3.716   4.048   2.770 -0.7099  0.3836  0.4470
11702TIP3    H156597   3.791   4.106   2.757 -0.0122 -0.8846 -1.5037
11702TIP3    H256598   3.735   4.002   2.851 -0.1253  1.1877  0.7697
11703TIP3   OH256599   2.975   3.893   3.380 -0.2621 -0.0915  0.1016
11703TIP3    H156600   3.031   3.887   3.303  0.2510 -1.2323  0.5484
11703TIP3    H256601   2.916   3.817   3.372 -0.9315  0.4040  0.2687
11704TIP3   OH256602   5.347   0.063  13.037  0.1218  0.5240 -0.3538
11704TIP3    H156603   5.307   0.042  12.953  0.4404  0.8606 -0.5929
11704TIP3    H256604   5.283   0.119  13.081  0.1277  0.6788 -0.5411
11705TIP3   OH256605   4.627   1.276   3.464 -0.7069  0.2735 -0.1946
11705TIP3    H156606   4.644   1.287   3.371 -1.0948 -0.7888 -0.3999
11705TIP3    H256607   4.651   1.185   3.482  3.4048  1.5968  1.6278
11706TIP3   OH256608   6.473   2.660  15.426  0.3154 -0.4456  0.1776
11706TIP3    H156609   6.520   2.658  15.510 -0.8711 -1.4107  0.8454
11706TIP3    H256610   6.460   2.753  15.408  0.5244 -0.2282  1.0966
11707TIP3   OH256611   6.400   2.927  15.408  0.4423  0.0852 -0.2130
11707TIP3    H156612   6.315   2.945  15.449 -0.8747 -0.9957 -2.3996
11707TIP3    H256613   6.435   3.014  15.387  0.4184  0.5895  1.6846
11708TIP3   OH256614   5.157   6.657   4.048  0.7162 -0.1610  0.0932
11708TIP3    H156615   5.235   6.711   4.042 -0.2076  0.9003 -3.0292
11708TIP3    H256616   5.189   6.573   4.082  3.0080  0.6014 -0.0966
11709TIP3   OH256617   1.262   4.567   1.236  0.0016 -0.4423  0.2399
11709TIP3    H156618   1.291   4.542   1.148  1.1108 -1.7745  0.9545
11709TIP3    H256619   1.303   4.652   1.250  1.3801 -1.0658  0.1646
11710TIP3   OH256620   3.175   3.745  12.129  0.3812 -0.6726  0.1147
11710TIP3    H156621   3.105   3.694  12.170 -0.4951  0.3916 -0.0669
11710TIP3    H256622   3.176   3.715  12.038 -2.1588  1.7536 -0.7781
11711TIP3   OH256623   3.639   1.415  17.180 -0.4200 -0.0648  0.3043
11711TIP3    H156624   3.620   1.372  17.097  0.7057  1.0507 -0.5519
11711TIP3    H256625   3.652   1.343  17.242 -1.4347 -0.9007 -0.4456
11712TIP3   OH256626   4.067   1.210   3.582  0.1565 -0.1013 -0.3054
11712TIP3    H156627   4.082   1.150   3.510  1.8840 -0.8425  0.6287
11712TIP3    H256628   3.982   1.185   3.617 -0.4422 -0.0901 -1.7410
11713TIP3   OH256629   2.249   4.465   2.406 -0.2071  0.0561 -0.0775
11713TIP3    H156630   2.214   4.434   2.489 -0.4767 -0.7957 -0.5058
11713TIP3    H256631   2.230   4.395   2.344  1.2124  0.0812 -0.5729
11714TIP3   OH256632   1.404   5.862   1.969  0.2017 -0.1052 -0.0995
11714TIP3    H156633   1.377   5.952   1.989  0.7299  0.1145 -0.3461
11714TIP3    H256634   1.341   5.832   1.904 -2.3585 -1.3105  2.8481
11715TIP3   OH256635   1.709   4.747  17.145 -0.2699  0.3022 -0.1625
11715TIP3    H156636   1.743   4.658  17.139 -1.4698 -0.1404 -0.5388
11715TIP3    H256637   1.678   4.767  17.056  0.3430  1.2415 -0.1758
11716TIP3   OH256638   3.922   5.888  13.936  0.0071 -0.0755  0.6194
11716TIP3    H156639   3.946   5.950  13.867 -1.5321 -0.2992 -0.1375
11716TIP3    H256640   4.003   5.840  13.953  0.5049  0.2101 -0.8029
11717TIP3   OH256641   4.341   5.757   2.053 -0.4613  0.7046 -0.2983
11717TIP3    H156642   4.411   5.790   2.110 -1.4331  0.0537  1.3153
11717TIP3    H256643   4.261   5.780   2.099 -1.3266  1.5432 -2.1891
11718TIP3   OH256644   6.012   5.434  16.642 -0.1049 -0.1845 -0.3049
11718TIP3    H156645   6.037   5.344  16.621  0.6048 -0.1707  0.4618
11718TIP3    H256646   6.092   5.485  16.625 -0.5757  0.3400 -0.9759
11719TIP3   OH256647   3.915   3.862  11.821  0.7109 -0.0211  0.0526
11719TIP3    H156648   3.846   3.918  11.784  1.0714  0.4438  0.0826
11719TIP3    H256649   3.988   3.921  11.836  0.9832 -0.4416  0.3923
11720TIP3   OH256650   0.625   5.546   0.318 -0.3559 -0.4925 -0.4168
11720TIP3    H156651   0.618   5.637   0.347  0.4052 -0.0526 -1.6283
11720TIP3    H256652   0.680   5.504   0.384  0.7502  0.3394 -0.8028
11721TIP3   OH256653   4.979   6.095  16.660  0.7878 -0.1202 -0.2336
11721TIP3    H156654   4.945   6.104  16.572  3.2227 -0.0172 -1.2115
11721TIP3    H256655   5.070   6.066  16.648 -0.1154 -4.5272  2.2877
11722TIP3   OH256656   6.351   0.068   5.035  0.0553  0.0650 -0.0344
11722TIP3    H156657   6.419   0.119   4.991  0.1586  0.8743  1.0393
11722TIP3    H256658   6.396  -0.009   5.069  0.5123  0.7319  0.9095
11723TIP3   OH256659   3.225   5.885  16.020 -0.0798  0.2778 -0.9120
11723TIP3    H156660   3.259   5.918  15.937  0.0484  1.5095 -0.3844
11723TIP3    H256661   3.131   5.900  16.015 -0.3216 -1.3705 -1.5864
11724TIP3   OH256662   1.509   6.489  13.763  0.2221 -1.0300  0.4676
11724TIP3    H156663   1.604   6.494  13.762  0.0978  2.0049 -0.4737
11724TIP3    H256664   1.485   6.508  13.854  0.4546  0.1956  0.2790
11725TIP3   OH256665   3.277   2.895  13.970  0.4389 -0.2830  0.4575
11725TIP3    H156666   3.244   2.892  13.880 -1.8160  0.0508  1.2434
11725TIP3    H256667   3.352   2.955  13.965 -0.5112  0.8418 -0.9607
11726TIP3   OH256668   4.448   1.123  12.146  0.1449 -0.2651 -0.5824
11726TIP3    H156669   4.429   1.168  12.063  0.7218  0.0902 -0.5258
11726TIP3    H256670   4.428   1.031  12.129 -5.4360  0.5550  0.6316
11727TIP3   OH256671   1.083   4.053   5.385 -1.2188 -0.4746  0.1889
11727TIP3    H156672   1.032   4.056   5.304 -0.3078 -1.6409 -0.4464
11727TIP3    H256673   1.144   4.127   5.377  1.2185 -2.6187 -1.8203
11728TIP3   OH256674   5.195   2.282  12.477 -0.7005  0.5984  0.2661
11728TIP3    H156675   5.258   2.213  12.459 -0.9030  0.7555 -1.0800
11728TIP3    H256676   5.164   2.310  12.391 -4.2157 -0.9906  0.9035
11729TIP3   OH256677   4.080   5.818  14.697 -0.5962  0.1409 -0.2740
11729TIP3    H156678   4.086   5.911  14.676 -0.8098  0.2943  0.3521
11729TIP3    H256679   4.150   5.803  14.761 -1.7484  0.2685  1.0350
11730TIP3   OH256680   5.279   3.649   5.323 -0.2001  0.2724 -0.0504
11730TIP3    H156681   5.306   3.617   5.409 -2.1635 -1.3063  0.0202
11730TIP3    H256682   5.285   3.744   5.329  1.0763  0.1123  1.3538
11731TIP3   OH256683   6.554   5.284   2.196  0.0145 -0.0118 -0.5827
11731TIP3    H156684   6.590   5.199   2.222 -0.4446 -0.5528 -1.6503
11731TIP3    H256685   6.522   5.323   2.277  1.5734 -0.2079  0.1357
11732TIP3   OH256686   2.650   3.229   0.407 -0.5431  0.1371  0.7101
11732TIP3    H156687   2.673   3.306   0.355 -0.6512  0.4913  1.1945
11732TIP3    H256688   2.722   3.219   0.469 -1.3032  0.7800  1.6989
11733TIP3   OH256689   1.243   4.737  15.184  0.5254  1.2792  0.1689
11733TIP3    H156690   1.283   4.679  15.120 -1.4768  0.9609 -0.8253
11733TIP3    H256691   1.248   4.688  15.267 -2.2364 -0.8868 -0.8799
11734TIP3   OH256692   3.124   4.212   4.235 -0.2908 -0.6957 -0.4072
11734TIP3    H156693   3.065   4.137   4.238  1.9904 -2.5351 -0.2919
11734TIP3    H256694   3.119   4.242   4.144 -1.1765 -1.0132 -0.4696
11735TIP3   OH256695   4.220   2.658  13.221  0.2483  0.0079 -0.0013
11735TIP3    H156696   4.129   2.666  13.249  0.3437 -0.3936  0.4235
11735TIP3    H256697   4.271   2.661  13.302  0.6906  1.4392 -0.3226
11736TIP3   OH256698   1.908   3.574  16.573 -0.5447 -0.2168  0.3045
11736TIP3    H156699   1.859   3.496  16.549 -1.1232  0.3095 -0.2266
11736TIP3    H256700   1.877   3.596  16.661 -2.2795  0.9071 -0.5642
11737TIP3   OH256701   5.088   0.167  13.907  0.4911 -0.1206 -0.0484
11737TIP3    H156702   4.994   0.149  13.908  0.7206 -1.3309 -0.4043
11737TIP3    H256703   5.111   0.170  13.814  0.4815  1.9623 -0.0187
11738TIP3   OH256704   3.549   3.835   2.807  0.0756 -0.0719  0.1921
11738TIP3    H156705   3.619   3.770   2.804  0.8060  0.7578 -1.3354
11738TIP3    H256706   3.594   3.919   2.796 -0.9425  0.6385  1.2923
11739TIP3   OH256707   1.652   3.677   4.768  0.0643  0.3180  0.1464
11739TIP3    H156708   1.562   3.648   4.754  0.0784  0.3918 -0.1163
11739TIP3    H256709   1.694   3.606   4.815  0.2184 -0.2873 -0.8851
11740TIP3   OH256710   2.848   0.002   0.198 -0.4607  0.3739 -0.1706
11740TIP3    H156711   2.931   0.043   0.172 -0.1755  1.1571  1.9091
11740TIP3    H256712   2.784   0.074   0.196 -0.4869  0.3976  0.9892
11741TIP3   OH256713   4.802   2.397  13.480  0.5333 -0.0443 -0.2519
11741TIP3    H156714   4.806   2.492  13.468 -0.7569  0.2635  1.5945
11741TIP3    H256715   4.808   2.384  13.574 -0.5508 -1.7262 -0.4006
11742TIP3   OH256716   1.721   2.507   4.130  0.3647 -0.0191  0.1511
11742TIP3    H156717   1.667   2.429   4.115 -1.8619  1.1678  1.7524
11742TIP3    H256718   1.785   2.479   4.195 -0.6500 -0.4345  0.9956
11743TIP3   OH256719   6.413   5.670  12.446 -0.4376 -0.0802 -0.3691
11743TIP3    H156720   6.456   5.585  12.457  0.2646  0.2921 -0.1960
11743TIP3    H256721   6.470   5.732  12.490 -0.5883  0.5888 -1.0896
11744TIP3   OH256722   5.645   5.890   0.409  0.2370 -0.2109  0.8794
11744TIP3    H156723   5.651   5.982   0.381 -1.2761 -0.3868 -0.0941
11744TIP3    H256724   5.670   5.840   0.332 -0.0809 -0.6341  1.0474
11745TIP3   OH256725   4.493   4.828   5.829  0.2337 -0.2811 -0.0425
11745TIP3    H156726   4.507   4.836   5.924 -1.0489 -3.1220  0.4503
11745TIP3    H256727   4.571   4.780   5.798  0.8587  1.0240 -0.5097
11746TIP3   OH256728   0.984   0.456   1.899 -0.3400 -0.3997  0.6857
11746TIP3    H156729   0.997   0.542   1.939 -0.2392 -0.2830  0.4045
11746TIP3    H256730   0.970   0.397   1.973 -1.3913  0.0327  0.8404
11747TIP3   OH256731   0.069   5.657  12.969 -0.0440  0.8268  0.5957
11747TIP3    H156732   0.151   5.705  12.955  1.1811 -0.8400  1.8066
11747TIP3    H256733   0.093   5.586  13.028 -2.4389  0.4491  1.1623
11748TIP3   OH256734   2.682   1.269  10.936 -0.6365 -0.0072 -0.4968
11748TIP3    H156735   2.758   1.210  10.931 -0.0938  0.5139  1.1192
11748TIP3    H256736   2.719   1.356  10.925 -1.1895  0.1571 -1.0519
11749TIP3   OH256737   2.636   4.561   0.291  0.3045 -0.4918 -0.1186
11749TIP3    H156738   2.636   4.657   0.287  0.1686 -0.4325  1.0647
11749TIP3    H256739   2.723   4.538   0.322 -0.1991 -0.6620  1.2053
11750TIP3   OH256740   2.002   2.409  13.770  0.0319 -0.2709 -0.2275
11750TIP3    H156741   2.001   2.432  13.677 -0.3732  0.6727  0.0027
11750TIP3    H256742   2.027   2.490  13.815 -2.5137  0.0533  0.6822
11751TIP3   OH256743   3.813   0.879  15.737  0.4155 -0.6489 -0.5484
11751TIP3    H156744   3.742   0.834  15.783  0.9826 -0.3991  0.5608
11751TIP3    H256745   3.820   0.964  15.780  0.2088  0.0253 -1.8127
11752TIP3   OH256746   6.060   6.805  16.662 -0.0700 -0.3656  0.1431
11752TIP3    H156747   6.039   6.770  16.748  0.5459  0.7291  0.7545
11752TIP3    H256748   6.155   6.816  16.663 -0.0560 -0.3726 -0.6844
11753TIP3   OH256749   2.325   1.360   2.012 -0.3650  0.3675  0.5599
11753TIP3    H156750   2.325   1.444   1.965 -1.2806  0.3187  0.4601
11753TIP3    H256751   2.399   1.311   1.974 -0.6157  0.6310 -0.2854
11754TIP3   OH256752   6.637   5.725  13.828  0.2006 -0.3477 -0.5483
11754TIP3    H156753   6.565   5.787  13.814  0.4525  0.8155  2.8186
11754TIP3    H256754   6.716   5.780  13.826  0.4021 -0.4206  2.8595
11755TIP3   OH256755   1.888   4.186  12.036  0.0574  0.0193 -0.2206
11755TIP3    H156756   1.926   4.110  11.992 -1.5029 -0.4701 -0.7731
11755TIP3    H256757   1.963   4.239  12.063  1.0698 -0.1033 -2.7189
11756TIP3   OH256758   0.898   3.215  16.421  0.4736 -0.3123  0.4893
11756TIP3    H156759   0.807   3.188  16.416  0.3301  0.2401  0.0486
11756TIP3    H256760   0.944   3.139  16.456 -0.3425 -0.1999  1.8749
11757TIP3   OH256761   2.831   0.914  14.047 -0.0707  0.5064 -0.1276
11757TIP3    H156762   2.739   0.939  14.060  0.1586  0.8500  0.8030
11757TIP3    H256763   2.832   0.875  13.959 -0.8933  1.5287 -0.6127
11758TIP3   OH256764   1.119   2.759  16.386  0.4936  0.1170  0.4520
11758TIP3    H156765   1.148   2.771  16.477 -0.7675  2.0162  0.6180
11758TIP3    H256766   1.064   2.835  16.368  0.2811 -0.5333 -1.7381
11759TIP3   OH256767   0.286   3.012   0.084  0.0013 -0.2776 -0.1790
11759TIP3    H156768   0.301   2.924   0.119  0.4617 -0.3496 -0.5568
11759TIP3    H256769   0.323   3.009  -0.004  1.7893  0.8646  0.5003
11760TIP3   OH256770   5.738   6.633   5.789  0.3217  0.0179 -0.2433
11760TIP3    H156771   5.697   6.657   5.872  0.3828  1.2797 -0.5608
11760TIP3    H256772   5.667   6.596   5.737 -0.1453  0.9842 -0.3153
11761TIP3   OH256773   1.479   3.917  11.205  0.0878  0.6470 -0.1323
11761TIP3    H156774   1.522   3.847  11.254  0.3997 -0.3570 -1.8108
11761TIP3    H256775   1.400   3.876  11.169 -0.0907  1.3401 -0.5468
11762TIP3   OH256776   4.389   5.597   5.691  0.3296  0.7289  0.0058
11762TIP3    H156777   4.352   5.679   5.724  0.0751  0.8978 -0.6814
11762TIP3    H256778   4.321   5.563   5.632  0.1027 -0.3629  0.8725
11763TIP3   OH256779   1.552   2.844   3.469 -0.3363 -0.0637 -0.1970
11763TIP3    H156780   1.642   2.838   3.500 -0.1287  0.7497 -0.6254
11763TIP3    H256781   1.559   2.887   3.384 -1.0318 -0.9772 -0.7126
11764TIP3   OH256782   5.842   1.882   4.393  0.2854  0.2876 -0.0419
11764TIP3    H156783   5.775   1.948   4.414  0.7558  0.8000 -0.1334
11764TIP3    H256784   5.841   1.822   4.467 -0.1626  0.3855  0.0341
11765TIP3   OH256785   1.185   3.765  12.084 -0.2493 -0.1939  0.9460
11765TIP3    H156786   1.236   3.790  12.007  1.2242 -2.5250  1.1392
11765TIP3    H256787   1.094   3.768  12.054  0.2125  0.4682 -0.4266
11766TIP3   OH256788   5.468   0.376   3.606  0.1442 -0.5188  0.5266
11766TIP3    H156789   5.382   0.345   3.578 -0.3416  1.0956  0.2182
11766TIP3    H256790   5.498   0.432   3.535  1.1181 -0.4475  0.9850
11767TIP3   OH256791   3.252   3.202  15.475  0.1119  0.0152 -0.7614
11767TIP3    H156792   3.231   3.210  15.568 -2.8469 -0.2113 -1.3631
11767TIP3    H256793   3.308   3.277  15.457 -0.1579  0.6615  0.9682
11768TIP3   OH256794   5.017   0.212   3.403  0.1543 -0.1915  0.4753
11768TIP3    H156795   4.955   0.151   3.441 -1.5695  1.5911  0.5977
11768TIP3    H256796   4.965   0.267   3.345  1.8933  0.3369 -0.6266
11769TIP3   OH256797   4.600   2.203  14.567 -0.1472  0.5329  0.1385
11769TIP3    H156798   4.554   2.250  14.636  0.8008  0.7508  0.6274
11769TIP3    H256799   4.691   2.232  14.574  0.7138 -2.2633  1.2254
11770TIP3   OH256800   6.164   5.453   0.504  0.4425 -0.2844 -0.3620
11770TIP3    H156801   6.128   5.398   0.434  1.6144 -0.3248 -0.9412
11770TIP3    H256802   6.190   5.534   0.460  0.7006 -0.1098  0.1127
11771TIP3   OH256803   2.162   0.806  16.563  0.1716 -0.3076 -0.4442
11771TIP3    H156804   2.170   0.728  16.618 -1.2223  1.0553  1.7476
11771TIP3    H256805   2.070   0.809  16.539  0.2224  0.6281 -0.5503
11772TIP3   OH256806   3.486   0.441   4.824  0.4149  0.4151 -0.0772
11772TIP3    H156807   3.536   0.520   4.802  1.1799  0.2403  0.9727
11772TIP3    H256808   3.499   0.431   4.918  0.5168 -1.0843 -0.2436
11773TIP3   OH256809   4.649   6.707  13.941  0.1085  0.0476  0.1428
11773TIP3    H156810   4.649   6.770  14.013 -2.0121 -2.4782  2.4687
11773TIP3    H256811   4.712   6.640  13.968  0.5654 -0.0663 -1.1735
11774TIP3   OH256812   3.967   3.555  14.097  0.2985  0.0102 -0.1551
11774TIP3    H156813   3.975   3.583  14.189 -3.1113 -2.1906  0.9121
11774TIP3    H256814   4.044   3.500  14.083  0.1896 -0.7312  1.8661
11775TIP3   OH256815   1.273   6.022   3.436 -0.3118 -0.4840 -0.4274
11775TIP3    H156816   1.194   6.067   3.405 -0.8846 -0.7880  0.5364
11775TIP3    H256817   1.252   5.999   3.527  1.4727  0.7805  0.3203
11776TIP3   OH256818   1.724   5.322  12.994  0.4886 -0.4039 -0.4851
11776TIP3    H156819   1.717   5.298  12.901  0.3933  0.1947 -0.6358
11776TIP3    H256820   1.777   5.253  13.033 -0.4427 -1.2871 -0.7495
11777TIP3   OH256821   5.412   0.922   4.162  0.7937 -0.4451 -0.0383
11777TIP3    H156822   5.388   1.011   4.135  1.0824 -0.1350  0.7025
11777TIP3    H256823   5.448   0.933   4.250 -0.4455 -1.4619  0.6168
11778TIP3   OH256824   6.747   3.971  15.619 -0.1390  0.5036 -0.1234
11778TIP3    H156825   6.811   3.987  15.688 -0.4861 -0.3496  0.4046
11778TIP3    H256826   6.662   3.980  15.661 -0.3566  0.2394 -0.4999
11779TIP3   OH256827   6.385   2.073   5.724 -0.7029 -0.5056  0.0400
11779TIP3    H156828   6.289   2.077   5.726 -0.7164 -0.1750 -1.2149
11779TIP3    H256829   6.404   1.990   5.680 -0.4208  0.1766 -1.1466
11780TIP3   OH256830   5.732   1.657  15.541 -0.0758 -0.6134  0.4859
11780TIP3    H156831   5.721   1.719  15.468 -0.7734  0.6920  1.6893
11780TIP3    H256832   5.651   1.606  15.542 -0.4287 -0.0530  0.8770
11781TIP3   OH256833   1.917   1.408  13.920  0.2390  0.1115  0.3629
11781TIP3    H156834   1.964   1.331  13.953 -1.4287 -1.4471 -0.8434
11781TIP3    H256835   1.967   1.434  13.842  0.3513 -0.2270  0.3189
11782TIP3   OH256836   2.846   0.650  14.662 -0.1312  0.5631 -0.3410
11782TIP3    H156837   2.765   0.614  14.700  1.1101 -0.3388  1.5345
11782TIP3    H256838   2.816   0.725  14.610 -2.1793  0.2362  0.2959
11783TIP3   OH256839   3.590   5.412  16.122  0.3038  0.3172  0.3941
11783TIP3    H156840   3.516   5.356  16.144  0.6325 -0.0231  0.6420
11783TIP3    H256841   3.571   5.443  16.034  0.4896 -0.7942 -0.0492
11784TIP3   OH256842   0.845   5.585   3.167  0.1212  0.4317  0.3402
11784TIP3    H156843   0.837   5.559   3.258 -2.9290 -1.3185 -0.3765
11784TIP3    H256844   0.857   5.503   3.119 -1.9510  0.9577 -1.1671
11785TIP3   OH256845   5.799   1.893  14.404 -0.0505  0.0028 -0.6137
11785TIP3    H156846   5.730   1.866  14.343  0.2864 -0.1266 -0.9443
11785TIP3    H256847   5.752   1.922  14.482 -0.4845  0.0509 -0.8873
11786TIP3   OH256848   1.621   3.903   5.442 -0.3808 -0.1190 -0.5189
11786TIP3    H156849   1.547   3.935   5.391 -0.2696 -0.8536 -1.1415
11786TIP3    H256850   1.595   3.917   5.533 -1.7910 -1.4821 -0.6925
11787TIP3   OH256851   2.798   0.247   0.521  0.1979 -0.3293 -0.5865
11787TIP3    H156852   2.807   0.333   0.479 -0.1784 -0.7365 -1.5155
11787TIP3    H256853   2.880   0.234   0.568  0.0311  0.7898  0.0383
11788TIP3   OH256854   2.746   4.780   0.999 -0.4589 -0.0820  0.1600
11788TIP3    H156855   2.820   4.777   0.938 -0.3345  0.3396  0.2905
11788TIP3    H256856   2.750   4.867   1.039 -0.5050 -0.3725  0.8143
11789TIP3   OH256857   2.637   0.977   4.204  0.1040 -0.0928 -0.4128
11789TIP3    H156858   2.634   1.069   4.179 -0.0934  0.2705  0.9100
11789TIP3    H256859   2.730   0.955   4.205  0.2624  0.5842  0.9801
11790TIP3   OH256860   2.945   5.602   1.828  0.6464 -0.1519  0.0290
11790TIP3    H156861   2.911   5.513   1.816 -1.1092  0.5231 -0.0845
11790TIP3    H256862   2.953   5.611   1.923 -0.3441 -0.0143  0.1068
11791TIP3   OH256863   3.993   3.841  16.587  0.3730  0.3482  0.4368
11791TIP3    H156864   4.075   3.809  16.626  1.0904  0.0931 -1.2279
11791TIP3    H256865   3.925   3.815  16.649  1.3660 -0.9780  0.9954
11792TIP3   OH256866   2.909   2.909  16.063  0.2630 -0.8021 -0.3106
11792TIP3    H156867   2.848   2.903  16.136  0.1883 -1.0008 -0.3890
11792TIP3    H256868   2.987   2.950  16.100 -0.2852  0.3762 -0.4433
11793TIP3   OH256869   6.771   4.723   2.680  0.0524  0.4691 -0.5391
11793TIP3    H156870   6.760   4.649   2.739  2.4979  0.1622 -0.4264
11793TIP3    H256871   6.812   4.790   2.733  0.4944  0.8789 -1.3898
11794TIP3   OH256872   2.968   1.605   2.217  0.3545  1.0820  0.0410
11794TIP3    H156873   3.005   1.607   2.305  0.1457  2.1135  0.1095
11794TIP3    H256874   2.911   1.528   2.216  2.2320 -0.3439  0.0381
11795TIP3   OH256875   3.503   1.315  16.044  0.1620  0.1582  0.0834
11795TIP3    H156876   3.524   1.296  15.952  0.6295 -0.3195  0.2843
11795TIP3    H256877   3.417   1.274  16.058 -0.3372  1.0349 -0.3973
11796TIP3   OH256878   5.222   5.459   5.517 -0.1889 -0.7494 -0.0118
11796TIP3    H156879   5.169   5.466   5.596 -0.5628 -1.6877 -0.1754
11796TIP3    H256880   5.291   5.525   5.528 -1.5759  0.7089  0.0489
11797TIP3   OH256881   4.613   1.861  12.984 -0.1319 -0.3288 -0.0358
11797TIP3    H156882   4.673   1.904  13.046 -0.6910 -1.5612  1.4030
11797TIP3    H256883   4.671   1.815  12.923  0.4077 -0.2166  0.3815
11798TIP3   OH256884   0.105   3.363  17.271 -0.3081 -0.1968  0.0882
11798TIP3    H156885   0.071   3.431  17.214 -1.1161 -1.7890 -1.3742
11798TIP3    H256886   0.057   3.284  17.246  0.2520 -1.2095  2.0782
11799TIP3   OH256887   1.696   3.973   3.722 -0.0093  0.4720  0.7881
11799TIP3    H156888   1.716   3.897   3.667 -0.8633  1.2362 -0.6246
11799TIP3    H256889   1.601   3.983   3.714 -0.1836  0.3963  2.6905
11800TIP3   OH256890   2.523   0.291  14.762 -0.4439 -0.3533 -0.2110
11800TIP3    H156891   2.470   0.365  14.732 -0.6179 -0.1632  0.5378
11800TIP3    H256892   2.608   0.330  14.784 -0.2704 -0.5150 -0.5857
11801TIP3   OH256893   6.433   4.912   6.638  0.0254  0.1695 -0.2772
11801TIP3    H156894   6.519   4.872   6.628 -0.1983 -0.0393 -1.5433
11801TIP3    H256895   6.426   4.972   6.563 -1.0307 -0.0254 -0.3441
11802TIP3   OH256896   2.061   6.290  13.349 -0.5163  0.7789  0.7173
11802TIP3    H156897   2.042   6.249  13.433  1.5000 -1.6038  0.0747
11802TIP3    H256898   2.150   6.325  13.359 -0.8347  1.8109  0.0554
11803TIP3   OH256899   6.374   2.822   1.769 -0.7358 -0.0297 -0.2567
11803TIP3    H156900   6.396   2.781   1.685 -2.3651 -1.1522 -0.1657
11803TIP3    H256901   6.374   2.916   1.751  0.1250 -0.2067 -1.2136
11804TIP3   OH256902   2.321   4.035   4.341 -0.1803 -0.3030  0.3296
11804TIP3    H156903   2.409   4.005   4.364 -0.0995 -0.1083  0.2785
11804TIP3    H256904   2.275   3.957   4.311  0.5555 -0.0655 -1.4582
11805TIP3   OH256905   5.414   6.597   3.779  0.1861  0.1457 -0.4903
11805TIP3    H156906   5.508   6.578   3.773  0.3911  1.1310 -0.5305
11805TIP3    H256907   5.405   6.686   3.745 -0.8200 -0.0804 -0.8358
11806TIP3   OH256908   4.698   2.863  13.819  0.1232  0.6790  0.0048
11806TIP3    H156909   4.659   2.940  13.863 -0.5815  1.0114 -1.1773
11806TIP3    H256910   4.761   2.829  13.883 -2.8316 -0.4912  2.4404
11807TIP3   OH256911   4.117   2.384  15.184  0.7020  0.6972  0.5012
11807TIP3    H156912   4.188   2.445  15.202 -0.6099  2.2358  0.5682
11807TIP3    H256913   4.062   2.387  15.262  0.4948 -0.3987  0.4094
11808TIP3   OH256914   6.290   0.520  16.581  0.1897  0.0381 -0.3192
11808TIP3    H156915   6.247   0.567  16.510  0.7152 -1.5288 -1.6954
11808TIP3    H256916   6.270   0.428  16.565  3.7203 -0.7286 -0.8094
11809TIP3   OH256917   2.679   2.268  12.400 -0.0056  0.1152  0.3946
11809TIP3    H156918   2.667   2.180  12.363  0.7830 -0.0846  0.6095
11809TIP3    H256919   2.729   2.253  12.481  2.4558  1.0050 -0.9123
11810TIP3   OH256920   0.674   5.417   4.099 -0.4571 -0.2283 -0.2142
11810TIP3    H156921   0.678   5.419   4.004 -0.2438  0.0746 -0.2009
11810TIP3    H256922   0.596   5.366   4.119 -0.4762 -0.3319 -0.5504
11811TIP3   OH256923   5.124   6.448  16.272 -0.1363  0.0966 -0.5661
11811TIP3    H156924   5.032   6.461  16.297 -0.3279  1.2973 -1.8429
11811TIP3    H256925   5.148   6.365  16.313 -2.0721 -0.7003 -0.9911
11812TIP3   OH256926   5.231   1.370  10.791  0.2734 -0.5576 -0.1703
11812TIP3    H156927   5.297   1.439  10.796  0.2415 -0.4703 -1.0170
11812TIP3    H256928   5.272   1.301  10.740 -0.0812 -0.7406 -0.2106
11813TIP3   OH256929   1.470   5.986  16.826  0.5782 -0.3215  0.0734
11813TIP3    H156930   1.516   5.993  16.742 -1.1380 -0.5571 -0.9113
11813TIP3    H256931   1.421   6.068  16.833 -2.7161 -2.0912 -1.2752
11814TIP3   OH256932   1.391   2.708  13.493  0.2617 -0.1857  0.7195
11814TIP3    H156933   1.467   2.650  13.493 -0.2963 -1.0164  4.1202
11814TIP3    H256934   1.323   2.659  13.539 -1.4645  1.6502  0.2074
11815TIP3   OH256935   6.144   5.085  14.522  0.1112 -0.0614  0.4972
11815TIP3    H156936   6.101   5.012  14.478 -0.7983  0.7334  0.0463
11815TIP3    H256937   6.135   5.158  14.462  0.9431  0.4453  0.9818
11816TIP3   OH256938   2.455   4.481  14.523  0.1355 -0.0566 -0.1706
11816TIP3    H156939   2.383   4.543  14.520  0.2115  0.0842  0.6967
11816TIP3    H256940   2.429   4.417  14.590  0.5398 -0.3468 -0.2892
11817TIP3   OH256941   5.634   1.178   4.397 -0.4502  0.4664 -0.1787
11817TIP3    H156942   5.631   1.240   4.324  0.1204  0.4193 -0.2436
11817TIP3    H256943   5.710   1.205   4.448  0.5862 -0.9827 -0.9220
11818TIP3   OH256944   1.119   2.657   4.411 -0.1683  0.2209  0.5227
11818TIP3    H156945   1.116   2.642   4.316  0.1280  1.3385  0.3240
11818TIP3    H256946   1.158   2.578   4.447  1.6430  0.6040 -0.5120
11819TIP3   OH256947   0.749   2.733   4.578  0.2487  0.6742 -0.1300
11819TIP3    H156948   0.809   2.757   4.508 -0.9779  1.6511 -0.8595
11819TIP3    H256949   0.730   2.640   4.564  0.2795  0.7836 -0.8745
11820TIP3   OH256950   0.284   4.029  10.769  0.3721  0.2419  0.2802
11820TIP3    H156951   0.307   4.085  10.696  2.7251 -0.2282  0.6390
11820TIP3    H256952   0.273   3.941  10.731  1.5474  0.0068  0.4768
11821TIP3   OH256953   3.653   2.340  11.145 -0.3671  0.3162  0.2145
11821TIP3    H156954   3.651   2.333  11.049  0.4698  0.0978  0.2087
11821TIP3    H256955   3.722   2.405  11.163  1.1717 -1.4226  0.7396
11822TIP3   OH256956   3.998   5.482  10.644  0.2592 -0.2360  0.1047
11822TIP3    H156957   3.922   5.521  10.599 -0.1790  0.2076  1.2000
11822TIP3    H256958   4.073   5.512  10.594 -0.2634 -0.2709 -0.7107
11823TIP3   OH256959   0.952   0.320   3.455  0.4054 -0.2963  0.1638
11823TIP3    H156960   0.925   0.357   3.371  0.3855 -0.6393  0.0173
11823TIP3    H256961   0.902   0.239   3.462  1.5960 -1.0827 -0.2379
11824TIP3   OH256962   3.707   1.421  14.443 -0.0092 -0.2945  0.6809
11824TIP3    H156963   3.772   1.407  14.373 -1.8070 -1.3424 -0.8174
11824TIP3    H256964   3.727   1.509  14.476 -0.7846  1.3511 -2.9864
11825TIP3   OH256965   6.441   5.276   5.627 -0.3828 -0.5518 -0.2227
11825TIP3    H156966   6.428   5.317   5.712  2.7728  0.6774 -0.2796
11825TIP3    H256967   6.436   5.348   5.565 -0.6644 -1.1548 -0.9118
11826TIP3   OH256968   1.332   3.094  10.374  0.0951 -0.1267 -0.2233
11826TIP3    H156969   1.248   3.089  10.329  0.7339 -1.8246 -1.2938
11826TIP3    H256970   1.311   3.131  10.460 -2.1102 -2.5361  0.3493
11827TIP3   OH256971   1.704   6.815  16.528  0.2507  0.0528 -0.5981
11827TIP3    H156972   1.756   6.749  16.574  0.1672 -0.3898 -1.1408
11827TIP3    H256973   1.642   6.765  16.475 -0.8089  0.5744  0.1306
11828TIP3   OH256974   3.319   3.065   2.633 -0.5890 -0.2018  0.3970
11828TIP3    H156975   3.365   3.097   2.555  0.7175  1.9223  1.9784
11828TIP3    H256976   3.230   3.048   2.602 -1.0398  3.8388 -0.8797
11829TIP3   OH256977   5.502   1.744  15.387 -0.7090  0.2719 -0.2125
11829TIP3    H156978   5.425   1.736  15.445 -0.5524  0.7660  0.0622
11829TIP3    H256979   5.494   1.830  15.348 -0.6344  0.0677 -0.6774
11830TIP3   OH256980   3.247   6.387  16.238 -0.0352  0.1475  0.5615
11830TIP3    H156981   3.208   6.326  16.175  0.6107  0.2241  0.0925
11830TIP3    H256982   3.295   6.332  16.299 -1.5629 -0.0281  1.6618
11831TIP3   OH256983   2.103   3.144  13.612 -0.3060  0.1162  0.4308
11831TIP3    H156984   2.192   3.158  13.578 -0.2235  2.6880  1.5546
11831TIP3    H256985   2.049   3.141  13.533  0.5856  0.1300 -0.1995
11832TIP3   OH256986   1.767   5.406  17.225  0.5319 -0.1209 -0.3020
11832TIP3    H156987   1.763   5.413  17.129  3.4504 -1.4701 -0.5623
11832TIP3    H256988   1.782   5.496  17.254  0.4976  0.1739 -1.1659
11833TIP3   OH256989   2.896   0.839   4.204 -0.4972  0.6382  0.2107
11833TIP3    H156990   2.881   0.747   4.186 -1.3482  0.4533  1.7797
11833TIP3    H256991   2.977   0.860   4.157 -0.1351 -0.9814  0.0971
11834TIP3   OH256992   6.555   6.025  13.042 -0.2712  0.9124 -0.2533
11834TIP3    H156993   6.491   6.073  12.989  0.0956  1.2328 -0.4060
11834TIP3    H256994   6.502   5.979  13.108 -0.7965 -0.0147 -1.2877
11835TIP3   OH256995   1.697   3.800   4.540  0.1255  0.3254  0.2461
11835TIP3    H156996   1.694   3.722   4.485 -0.5452  0.6298 -0.1589
11835TIP3    H256997   1.686   3.768   4.629  0.3515 -0.0848  0.1276
11836TIP3   OH256998   3.636   4.516   0.238  0.2957  0.4689  0.5981
11836TIP3    H156999   3.553   4.512   0.285  0.8693  0.5386  1.6138
11836TIP3    H257000   3.610   4.524   0.146 -0.8220  0.4795  0.9042
11837TIP3   OH257001   5.867   2.953  13.705 -0.2115 -0.4142 -0.8222
11837TIP3    H157002   5.877   3.000  13.787  0.2890 -1.1617 -0.4537
11837TIP3    H257003   5.946   2.899  13.698  1.4090  2.1500 -3.4494
11838TIP3   OH257004   0.179   4.009  11.958  0.3129  0.0287 -0.2824
11838TIP3    H157005   0.109   4.065  11.925  0.6659  0.7937  0.2481
11838TIP3    H257006   0.179   4.024  12.053 -0.4536 -1.8658  0.0284
11839TIP3   OH257007   0.195   2.367   4.609  0.2907  0.2701  0.3216
11839TIP3    H157008   0.137   2.370   4.684  0.6291 -0.7954  0.6223
11839TIP3    H257009   0.273   2.416   4.636 -0.2156  1.2061  0.1156
11840TIP3   OH257010   4.999   6.416  17.290  0.2539 -0.5834 -0.1694
11840TIP3    H157011   5.057   6.453  17.357  1.5101 -0.1212 -1.4779
11840TIP3    H257012   5.054   6.353  17.243 -0.7824 -1.3253 -0.3998
11841TIP3   OH257013   4.812   2.975  16.740  0.2454  0.2284 -0.0475
11841TIP3    H157014   4.874   3.017  16.682  0.9371 -0.5947  0.0811
11841TIP3    H257015   4.732   2.964  16.688 -0.7493  3.7763  0.6302
11842TIP3   OH257016   4.972   6.664   2.935  0.5002  0.1663 -0.1696
11842TIP3    H157017   5.040   6.687   2.998  0.1213 -0.5712  0.5125
11842TIP3    H257018   4.919   6.744   2.927  0.2920  0.1207  0.7699
11843TIP3   OH257019   6.280   2.048  16.673 -0.1901  0.3937  0.4957
11843TIP3    H157020   6.340   2.094  16.615 -1.8351  2.4983  0.4159
11843TIP3    H257021   6.330   2.037  16.754  1.6473 -1.3813 -0.8286
11844TIP3   OH257022   0.156   3.206   2.061 -0.4005 -0.3155  0.6466
11844TIP3    H157023   0.073   3.246   2.088  0.3103  1.9218 -0.3251
11844TIP3    H257024   0.137   3.170   1.974  0.0171  1.5895 -0.2702
11845TIP3   OH257025   2.917   2.985   1.127 -0.0257  0.4155  0.7190
11845TIP3    H157026   2.889   2.901   1.164  0.1126 -0.0758 -0.2663
11845TIP3    H257027   2.835   3.029   1.104 -0.0700  0.0329  0.1272
11846TIP3   OH257028   2.829   0.247   6.857  0.5145  0.2532 -0.5238
11846TIP3    H157029   2.810   0.189   6.931  2.1931 -2.0041 -1.7892
11846TIP3    H257030   2.881   0.317   6.895 -0.3915  0.2230  0.8060
11847TIP3   OH257031   4.304   6.634   5.741  0.7148 -0.2316 -0.6090
11847TIP3    H157032   4.295   6.672   5.653 -0.2015  0.7550 -0.0950
11847TIP3    H257033   4.256   6.551   5.736  1.5538 -0.6887 -1.3322
11848TIP3   OH257034   2.141   4.043  16.749 -0.2201 -0.8720  0.1533
11848TIP3    H157035   2.144   3.948  16.761 -1.3069 -0.8102  0.9542
11848TIP3    H257036   2.163   4.078  16.835 -1.4369 -0.3982  0.2773
11849TIP3   OH257037   1.585   2.631   5.555 -0.1096  0.6312 -0.3336
11849TIP3    H157038   1.577   2.656   5.647  1.6410  0.5685 -0.1474
11849TIP3    H257039   1.529   2.693   5.508  1.3973  2.6274  0.4572
11850TIP3   OH257040   6.022   4.965   1.628  0.4160 -0.5633  0.5595
11850TIP3    H157041   6.060   5.004   1.549  0.3600 -0.6590  0.4843
11850TIP3    H257042   6.064   5.011   1.700 -0.0778  0.0369  0.4682
11851TIP3   OH257043   3.462   2.437  16.813  0.4179 -0.0247  0.2032
11851TIP3    H157044   3.385   2.431  16.757  0.3142  1.9067  0.1054
11851TIP3    H257045   3.464   2.528  16.842  1.9281 -0.3644  1.2648
11852TIP3   OH257046   0.139   6.430  14.625 -0.4337 -0.0713  0.3699
11852TIP3    H157047   0.070   6.378  14.585 -0.6691  0.0998  0.5546
11852TIP3    H257048   0.109   6.521  14.617 -0.5179 -0.0408  1.0078
11853TIP3   OH257049   3.091   4.100   0.530  0.8509 -0.2130 -0.1848
11853TIP3    H157050   3.088   4.004   0.524 -2.5685 -0.2376  1.1891
11853TIP3    H257051   3.071   4.130   0.441  1.4199 -0.7582 -0.5005
11854TIP3   OH257052   6.363   4.498  12.633  0.2129 -0.0231 -0.0182
11854TIP3    H157053   6.405   4.499  12.719 -0.1797  0.2664  0.1738
11854TIP3    H257054   6.323   4.585  12.625  0.1024 -0.1099 -0.4187
11855TIP3   OH257055   3.955   2.202   0.041  0.3997 -0.5903 -0.5901
11855TIP3    H157056   3.974   2.119   0.085  0.5891  0.1424  0.7250
11855TIP3    H257057   3.872   2.231   0.079  0.6202  0.0977 -0.6207
11856TIP3   OH257058   4.081   5.242  13.273 -0.3188 -0.2005  0.0493
11856TIP3    H157059   3.989   5.216  13.262 -0.0899  0.0103 -2.5626
11856TIP3    H257060   4.130   5.162  13.253  0.0910 -0.3507  1.5832
11857TIP3   OH257061   1.834   1.843  12.280 -0.4991 -0.1481  0.1764
11857TIP3    H157062   1.795   1.776  12.224 -0.9021 -1.1495  1.6206
11857TIP3    H257063   1.766   1.863  12.345  0.5910 -0.3131  1.3914
11858TIP3   OH257064   0.151   5.606   3.709  0.1478 -0.0642  0.2797
11858TIP3    H157065   0.154   5.701   3.707  1.3407 -0.0364  2.2599
11858TIP3    H257066   0.242   5.578   3.712 -0.1871 -1.2727 -0.2688
11859TIP3   OH257067   6.614   1.975   0.119  0.2657  0.0589 -0.2244
11859TIP3    H157068   6.655   1.990   0.034  3.1512 -2.8871  0.5347
11859TIP3    H257069   6.665   2.029   0.179  0.4397 -0.4955  0.1278
11860TIP3   OH257070   3.156   5.130   2.086 -0.0680  0.3681  0.1638
11860TIP3    H157071   3.176   5.221   2.068 -1.0381  0.1112 -2.3699
11860TIP3    H257072   3.061   5.123   2.072 -0.0444 -0.9794  0.5687
11861TIP3   OH257073   2.952   3.805   5.429  0.2984 -0.1591  0.6660
11861TIP3    H157074   3.033   3.774   5.390  0.1494 -1.7833  1.6411
11861TIP3    H257075   2.901   3.837   5.354  0.5132 -2.1219 -0.3362
11862TIP3   OH257076   1.845   0.189  16.343 -0.0553 -0.0787 -0.2929
11862TIP3    H157077   1.798   0.269  16.366 -0.9710 -0.5647 -0.4335
11862TIP3    H257078   1.808   0.122  16.401 -2.7722 -1.4435 -3.4557
11863TIP3   OH257079   5.738   3.436   3.262 -0.1967 -0.0521  0.2515
11863TIP3    H157080   5.742   3.507   3.325 -0.5264  0.0726  0.1370
11863TIP3    H257081   5.693   3.365   3.308 -1.0793  0.2861 -0.0646
11864TIP3   OH257082   2.036   5.739  14.959  0.1257  0.1777 -0.5992
11864TIP3    H157083   2.063   5.664  15.011  0.3413 -0.2587 -1.3347
11864TIP3    H257084   2.116   5.770  14.917  0.0249  0.7777 -0.3575
11865TIP3   OH257085   5.952   5.638  15.647 -0.4742 -0.0183 -0.5136
11865TIP3    H157086   5.944   5.725  15.609  1.4296 -0.0567 -1.0491
11865TIP3    H257087   5.930   5.579  15.575 -0.7978  0.0028 -0.4310
11866TIP3   OH257088   5.642   5.432   1.850 -0.3812 -0.1122  0.3276
11866TIP3    H157089   5.621   5.360   1.911  0.0207 -0.8440 -0.3843
11866TIP3    H257090   5.558   5.474   1.833 -0.6261 -0.4172  0.7520
11867TIP3   OH257091   5.315   2.544  11.837  0.2751 -0.6628  0.4628
11867TIP3    H157092   5.402   2.560  11.799 -0.0075 -0.2636 -0.0198
11867TIP3    H257093   5.264   2.507  11.765 -0.3964  0.5133  0.3304
11868TIP3   OH257094   5.599   0.343  16.854 -0.6403 -0.3957 -0.5163
11868TIP3    H157095   5.527   0.290  16.889 -1.2684  0.4605 -0.5083
11868TIP3    H257096   5.672   0.326  16.913 -1.0633 -0.6509 -0.0634
11869TIP3   OH257097   5.754   4.012   2.315  0.1403 -0.0916 -0.2596
11869TIP3    H157098   5.765   3.946   2.383  0.0244  0.8322  0.6557
11869TIP3    H257099   5.834   4.007   2.263  0.2001 -0.8326 -0.0952
11870TIP3   OH257100   5.402   5.767  17.148 -0.0314 -0.2052  0.1294
11870TIP3    H157101   5.459   5.826  17.097 -1.0786  1.0206  0.3442
11870TIP3    H257102   5.341   5.826  17.193 -1.0541 -1.4604  0.4182
11871TIP3   OH257103   1.865   1.302   1.580 -0.0175  0.3261  0.1058
11871TIP3    H157104   1.902   1.382   1.543  1.3671  1.0258  2.9041
11871TIP3    H257105   1.771   1.320   1.587 -0.0736  0.7507 -1.5660
11872TIP3   OH257106   1.835   3.641  14.459  0.5024 -0.0475 -0.4412
11872TIP3    H157107   1.869   3.591  14.533 -1.2006 -2.6281 -1.3346
11872TIP3    H257108   1.807   3.724  14.497  2.7019 -0.0123  1.2100
11873TIP3   OH257109   1.373   5.993  12.157 -0.3101 -0.5257 -0.3981
11873TIP3    H157110   1.376   5.898  12.166  3.1107 -0.4096  0.0166
11873TIP3    H257111   1.388   6.009  12.064  0.9688 -0.3329 -0.1639
11874TIP3   OH257112   6.387   0.417  16.314  0.3718 -0.3677 -0.4361
11874TIP3    H157113   6.375   0.330  16.352 -2.2463  0.8051  1.5874
11874TIP3    H257114   6.344   0.412  16.229 -2.1412 -0.3696  0.7716
11875TIP3   OH257115   1.817   0.034   1.579 -0.0214  0.1160  0.6210
11875TIP3    H157116   1.772   0.043   1.495 -0.2646  0.4773  0.7909
11875TIP3    H257117   1.885  -0.032   1.562  0.4008  0.7078 -0.0631
11876TIP3   OH257118   1.227   0.397   0.258  0.4895 -0.0300  0.0684
11876TIP3    H157119   1.198   0.422   0.346  0.8430  2.4642 -0.4928
11876TIP3    H257120   1.153   0.417   0.202  1.9182  2.9684 -0.8537
11877TIP3   OH257121   5.361   2.984  15.134 -0.0722  0.2512 -0.3384
11877TIP3    H157122   5.385   2.895  15.160 -0.7771  0.8210  2.4154
11877TIP3    H257123   5.266   2.982  15.129 -0.0540  0.7112 -0.7724
11878TIP3   OH257124   5.291   1.690  12.516 -0.5871 -0.0708 -0.5069
11878TIP3    H157125   5.252   1.606  12.492 -0.8235 -0.1688  0.2075
11878TIP3    H257126   5.231   1.756  12.481 -0.6330 -0.2077 -0.6840
11879TIP3   OH257127   0.806   6.194   3.342 -0.3257  0.4025 -0.1705
11879TIP3    H157128   0.901   6.183   3.346 -0.3808  0.1390  0.6210
11879TIP3    H257129   0.790   6.239   3.259  0.5564  1.1392  0.0522
11880TIP3   OH257130   0.868   2.574  16.899 -0.2718 -0.4489  0.1587
11880TIP3    H157131   0.909   2.515  16.961 -2.8658 -1.4776  0.9629
11880TIP3    H257132   0.886   2.662  16.933  0.5698 -0.9135  0.9102
11881TIP3   OH257133   6.365   5.379  10.408 -0.3469 -0.3504  0.1913
11881TIP3    H157134   6.303   5.353  10.475 -0.5235 -0.3238  0.0398
11881TIP3    H257135   6.311   5.408  10.335 -0.1568  0.7135  0.4584
11882TIP3   OH257136   4.804   3.499   6.285  0.4106  0.2198 -0.0463
11882TIP3    H157137   4.718   3.514   6.247  0.1515 -0.8516  0.0840
11882TIP3    H257138   4.789   3.431   6.351  1.1882  0.6973  0.6253
11883TIP3   OH257139   2.438   5.292  16.720  0.1605  0.2624  0.5296
11883TIP3    H157140   2.384   5.213  16.720 -1.4033  1.2945 -0.1139
11883TIP3    H257141   2.478   5.293  16.633  0.0225  0.2675  0.4658
11884TIP3   OH257142   6.330   6.196   2.026  0.0190 -0.3309  0.0445
11884TIP3    H157143   6.331   6.292   2.030 -0.5170 -0.3078 -0.4316
11884TIP3    H257144   6.411   6.170   2.070  0.0746  0.3336  0.3455
11885TIP3   OH257145   1.125   3.189   6.729  0.2533 -0.2142  0.5668
11885TIP3    H157146   1.086   3.117   6.778 -3.0146  0.6005 -0.7068
11885TIP3    H257147   1.130   3.261   6.792  1.5192 -0.8930  1.2547
11886TIP3   OH257148   4.998   5.105  17.087  0.0302 -0.1364 -0.1870
11886TIP3    H157149   5.030   5.037  17.147  0.8486  0.1833 -0.2501
11886TIP3    H257150   5.022   5.073  17.000  0.8823  0.4759 -0.1799
11887TIP3   OH257151   0.062   4.077   5.927 -0.0896  0.7316  0.2015
11887TIP3    H157152   0.156   4.072   5.945  0.2640 -1.4542 -1.9462
11887TIP3    H257153   0.049   4.162   5.886  1.2395  0.3510 -1.0083
11888TIP3   OH257154   6.662   3.300   2.389  0.5446  0.0605 -0.5551
11888TIP3    H157155   6.571   3.310   2.363  0.1178  0.8172  1.1589
11888TIP3    H257156   6.710   3.295   2.306 -0.9926  0.0746 -1.4716
11889TIP3   OH257157   5.967   6.170   0.586  0.3862 -0.0038  0.3370
11889TIP3    H157158   5.988   6.258   0.554 -3.3873  1.4767  1.7137
11889TIP3    H257159   5.946   6.120   0.507 -1.8049  1.6180 -0.1468
11890TIP3   OH257160   5.130   5.406   3.050  0.4221 -0.3888 -0.0305
11890TIP3    H157161   5.200   5.341   3.044 -0.4379 -1.1817 -1.7065
11890TIP3    H257162   5.142   5.462   2.973  0.2945  0.6003  0.6488
11891TIP3   OH257163   1.128   4.577   3.075 -0.4168  0.0600  0.6488
11891TIP3    H157164   1.052   4.632   3.096 -0.7393 -1.2308  3.0595
11891TIP3    H257165   1.201   4.622   3.118 -0.2796 -0.1489  0.6305
11892TIP3   OH257166   0.525   0.991   6.805 -0.0049 -0.1984 -0.3710
11892TIP3    H157167   0.557   0.916   6.855 -0.4324 -0.1293  0.0031
11892TIP3    H257168   0.470   0.952   6.737  0.1326 -0.2501 -0.4552
11893TIP3   OH257169   6.406   0.080   0.371 -0.0985  0.1138  0.1193
11893TIP3    H157170   6.479   0.049   0.317 -0.3807  1.0784 -0.8528
11893TIP3    H257171   6.382   0.005   0.425  1.8642 -0.1027  0.7368
11894TIP3   OH257172   3.144   3.510  10.669 -0.2316 -0.1435 -0.4672
11894TIP3    H157173   3.209   3.543  10.731 -0.9177  2.7427 -1.2225
11894TIP3    H257174   3.143   3.415  10.684  1.2803  0.2180  2.2991
11895TIP3   OH257175   1.430   5.430   1.906 -0.4377 -0.2867  0.7743
11895TIP3    H157176   1.467   5.488   1.972  1.6716 -0.6486 -0.0648
11895TIP3    H257177   1.462   5.343   1.929  0.4262 -0.3969 -0.7591
11896TIP3   OH257178   2.226   1.752  13.936 -0.1129 -0.4310 -0.0837
11896TIP3    H157179   2.314   1.770  13.967 -0.5668  0.6771  0.5815
11896TIP3    H257180   2.190   1.690  14.000 -0.2183  0.0056  0.2780
11897TIP3   OH257181   3.343   4.767   1.246  0.6008  0.2373 -0.2343
11897TIP3    H157182   3.328   4.848   1.296  0.0749  0.3557 -0.5828
11897TIP3    H257183   3.332   4.697   1.310 -0.7305  0.3566 -0.3265
11898TIP3   OH257184   6.564   4.803  14.503  0.3949 -0.4646 -0.0616
11898TIP3    H157185   6.497   4.850  14.552 -0.7022 -2.7264  0.6631
11898TIP3    H257186   6.531   4.801  14.413 -0.5058 -1.5749  0.2946
11899TIP3   OH257187   4.008   6.526   3.066 -0.4296  0.4048 -0.0058
11899TIP3    H157188   4.067   6.464   3.023 -0.5069  0.1198  0.2960
11899TIP3    H257189   3.937   6.472   3.100 -0.0572  0.5417  1.0135
11900TIP3   OH257190   6.157   3.302   5.382  0.3949  0.3871  0.4373
11900TIP3    H157191   6.091   3.356   5.425 -0.0003  0.7418 -0.5978
11900TIP3    H257192   6.110   3.224   5.354  0.9274 -0.4255  1.7727
11901TIP3   OH257193   6.024   0.475  14.678 -0.6380  0.1947 -0.9692
11901TIP3    H157194   6.022   0.519  14.763 -2.4986 -1.1217 -0.2850
11901TIP3    H257195   6.086   0.526  14.626  0.4220  1.1065  1.1225
11902TIP3   OH257196   4.655   3.249   4.917  0.3300  0.2902 -0.1641
11902TIP3    H157197   4.634   3.247   5.010  0.3820 -1.2324 -0.1774
11902TIP3    H257198   4.747   3.276   4.914  0.7044 -0.8979  0.2959
11903TIP3   OH257199   6.795   2.904  16.500 -0.2104 -0.2270 -0.2582
11903TIP3    H157200   6.731   2.833  16.496 -1.9553  1.3260 -0.6360
11903TIP3    H257201   6.858   2.884  16.431 -1.4645 -0.6827 -1.2769
11904TIP3   OH257202   6.194   4.430   5.795 -0.0140 -0.0049  0.5878
11904TIP3    H157203   6.189   4.455   5.702  1.5125 -1.1640  0.1743
11904TIP3    H257204   6.226   4.340   5.794 -0.3871 -0.1766  2.2437
11905TIP3   OH257205   1.597   4.088   2.355 -0.0196  0.4275 -0.3398
11905TIP3    H157206   1.535   4.127   2.417 -0.1343  0.1768 -0.2974
11905TIP3    H257207   1.574   4.127   2.271  1.1740  2.0097  0.0338
11906TIP3   OH257208   4.727   3.983   2.978  0.2464  0.2284 -0.6335
11906TIP3    H157209   4.755   4.063   3.023 -0.6695 -1.4097  3.0517
11906TIP3    H257210   4.642   4.004   2.941  0.3327  1.1723 -0.3105
11907TIP3   OH257211   5.466   2.879   0.559 -0.0100  0.7334 -0.1987
11907TIP3    H157212   5.385   2.857   0.512  0.0134 -1.6914  0.8172
11907TIP3    H257213   5.441   2.877   0.651  1.0079  0.8021  0.0795
11908TIP3   OH257214   6.306   3.959  10.539  0.7780  0.0337  0.0961
11908TIP3    H157215   6.308   3.891  10.606 -1.1465  0.8753  1.0685
11908TIP3    H257216   6.269   3.917  10.462 -1.8542  0.2786  1.1487
11909TIP3   OH257217   3.711   0.886  16.760  0.3796  0.5041  0.2670
11909TIP3    H157218   3.719   0.938  16.680  0.4514  0.8914  0.5260
11909TIP3    H257219   3.658   0.811  16.735  3.1954 -1.1378 -0.9971
11910TIP3   OH257220   1.695   1.951  11.541 -0.2804  0.4002  0.3463
11910TIP3    H157221   1.629   1.968  11.608 -0.1163 -0.8576  0.8462
11910TIP3    H257222   1.656   1.882  11.486  0.5348 -0.2081  0.5280
11911TIP3   OH257223   0.229   3.580   4.891 -0.3065 -0.4527  0.0354
11911TIP3    H157224   0.183   3.618   4.815 -1.2404  0.2062  0.9166
11911TIP3    H257225   0.186   3.620   4.967  0.3397 -1.4361  0.9238
11912TIP3   OH257226   2.278   2.895  11.765 -0.8086  0.0846  0.0289
11912TIP3    H157227   2.199   2.851  11.734  0.5246 -1.8911 -0.6022
11912TIP3    H257228   2.351   2.847  11.725  0.7309  2.1029  0.2904
11913TIP3   OH257229   0.458   4.281  15.226  0.0656 -0.2648  0.0956
11913TIP3    H157230   0.539   4.233  15.213  1.0101  1.4195 -0.4622
11913TIP3    H257231   0.438   4.319  15.140 -1.0187 -0.2115  0.3546
11914TIP3   OH257232   1.378   4.737  15.569 -0.4685  0.0695 -0.2640
11914TIP3    H157233   1.393   4.703  15.481  1.2953  2.4898 -0.9484
11914TIP3    H257234   1.285   4.760  15.571 -0.4701  0.1615 -1.5218
11915TIP3   OH257235   1.761   0.609   6.256 -0.2631 -0.2206  0.2307
11915TIP3    H157236   1.679   0.647   6.288  0.4428  0.3543  1.4082
11915TIP3    H257237   1.753   0.516   6.275 -0.8932 -0.2552 -0.1986
11916TIP3   OH257238   1.174   3.328  13.423  0.6739 -0.1741 -0.0523
11916TIP3    H157239   1.166   3.417  13.457  0.9673 -0.3421  0.4727
11916TIP3    H257240   1.247   3.290  13.473  1.4642 -0.2566 -1.2574
11917TIP3   OH257241   3.376   3.715   4.487 -0.0952  0.1362 -0.5943
11917TIP3    H157242   3.440   3.769   4.440 -0.1023 -0.3968 -1.2247
11917TIP3    H257243   3.420   3.631   4.498 -0.4219 -0.0101 -0.4140
11918TIP3   OH257244   2.219   5.534  15.346  0.2904  0.2951  0.0251
11918TIP3    H157245   2.213   5.461  15.284  2.1216  2.9296 -3.3370
11918TIP3    H257246   2.131   5.539  15.385 -1.2653 -0.6797 -3.2029
11919TIP3   OH257247   4.971   6.586  11.662 -0.0119  0.0382 -0.7419
11919TIP3    H157248   4.995   6.545  11.745 -1.3396  0.8634  0.0804
11919TIP3    H257249   4.908   6.526  11.622 -1.6120  1.0201  0.2503
11920TIP3   OH257250   0.258   5.393   0.379  0.3486 -0.6219  0.1554
11920TIP3    H157251   0.252   5.486   0.400  1.0048  0.0214 -2.3051
11920TIP3    H257252   0.177   5.374   0.332 -0.0751 -1.4634  1.2163
11921TIP3   OH257253   3.764   0.935  13.645 -0.3982  0.4530  0.0123
11921TIP3    H157254   3.679   0.898  13.668  0.0024 -0.4674  0.0388
11921TIP3    H257255   3.764   0.939  13.549 -0.2260 -0.1661 -0.0194
11922TIP3   OH257256   5.482   3.477  13.506  0.1305 -0.0496 -0.5790
11922TIP3    H157257   5.518   3.424  13.577  1.6799  0.1614 -1.1881
11922TIP3    H257258   5.401   3.432  13.481 -0.4962 -0.0651  1.3764
11923TIP3   OH257259   5.070   4.397  10.200 -0.2407 -0.9618  0.4989
11923TIP3    H157260   5.008   4.386  10.273  1.1664 -0.9221  1.7280
11923TIP3    H257261   5.019   4.439  10.131 -1.3710 -0.1605  1.7950
11924TIP3   OH257262   0.107   3.175   3.052  0.5326 -0.0530  0.0006
11924TIP3    H157263   0.189   3.162   3.005  0.6064 -1.0732  0.4022
11924TIP3    H257264   0.091   3.092   3.097 -0.6003  0.2169  0.1169
11925TIP3   OH257265   2.890   4.382   4.316  0.0870  0.1513 -0.0598
11925TIP3    H157266   2.965   4.326   4.293  0.7972  0.3991  1.5810
11925TIP3    H257267   2.908   4.464   4.271 -1.3798 -1.1502 -3.1707
11926TIP3   OH257268   2.202   1.558   2.957  0.2112 -0.1500  0.3738
11926TIP3    H157269   2.154   1.632   2.995 -0.1869 -0.3309  0.2274
11926TIP3    H257270   2.152   1.535   2.879  0.9039  0.0736 -0.1340
11927TIP3   OH257271   4.250   4.495  14.723  0.0505 -0.1728  0.5064
11927TIP3    H157272   4.285   4.573  14.681  0.3386 -0.7195 -0.2769
11927TIP3    H257273   4.155   4.509  14.724  0.0138 -0.3029 -0.6253
11928TIP3   OH257274   1.950   4.612   2.199  0.1106  0.8446 -0.0762
11928TIP3    H157275   1.959   4.607   2.294 -0.6485  1.7508  0.0540
11928TIP3    H257276   2.000   4.690   2.175  2.0295 -0.5450 -0.6713
11929TIP3   OH257277   2.154   1.639   0.022 -0.3661  0.1025 -0.4123
11929TIP3    H157278   2.143   1.565   0.082 -1.4396  0.1929 -0.4837
11929TIP3    H257279   2.180   1.599  -0.061 -3.0169 -0.4120 -1.0433
11930TIP3   OH257280   3.461   3.379  15.489  0.1268 -0.0241 -0.0245
11930TIP3    H157281   3.473   3.406  15.399 -0.5959  0.6137  0.0705
11930TIP3    H257282   3.548   3.384  15.528  0.4369 -0.3030 -0.6855
11931TIP3   OH257283   1.228   3.330   6.088  0.7175  0.2411  0.1807
11931TIP3    H157284   1.311   3.297   6.123  1.0180  2.6257  1.8497
11931TIP3    H257285   1.162   3.268   6.121  1.3762  0.6295  2.2975
11932TIP3   OH257286   6.155   6.262  14.008 -0.6678 -0.5386 -0.0329
11932TIP3    H157287   6.184   6.181  13.966  0.5059 -0.4527  0.5897
11932TIP3    H257288   6.219   6.277  14.079  0.2783  1.9375 -1.3352
11933TIP3   OH257289   0.762   3.974   3.653  0.7856 -0.0653 -0.2756
11933TIP3    H157290   0.813   3.986   3.732  0.6810 -1.7660  0.0566
11933TIP3    H257291   0.822   3.935   3.590  0.4253 -0.2272 -0.5244
11934TIP3   OH257292   0.438   0.066  12.211 -0.0035  0.3010 -0.6062
11934TIP3    H157293   0.352   0.101  12.237  0.2700  1.2275 -0.9376
11934TIP3    H257294   0.501   0.124  12.253  0.4483  0.8752 -2.0683
11935TIP3   OH257295   0.234   6.064  14.462  0.0698 -0.2636  0.6227
11935TIP3    H157296   0.241   6.062  14.557  3.1473  1.2970  0.4886
11935TIP3    H257297   0.318   6.096  14.432 -1.1472  0.1363 -2.6209
11936TIP3   OH257298   5.653   1.966  15.658  0.3769  0.1498  0.8816
11936TIP3    H157299   5.596   1.977  15.734 -0.0588  0.4517  0.5191
11936TIP3    H257300   5.636   2.044  15.604  1.0463  0.1820  0.7131
11937TIP3   OH257301   3.029   6.651   5.385 -0.0038  0.0686 -0.5213
11937TIP3    H157302   2.973   6.608   5.448  1.0607 -0.7504 -0.1171
11937TIP3    H257303   3.042   6.587   5.315  3.0105 -0.9857  0.9232
11938TIP3   OH257304   0.940   6.573   1.593 -0.0833 -0.1918 -0.6297
11938TIP3    H157305   0.956   6.483   1.566 -0.9461 -0.5031 -0.1374
11938TIP3    H257306   1.018   6.599   1.642  0.8370 -0.1355 -2.1106
11939TIP3   OH257307   0.947   6.708   5.504  0.9654 -0.7241  0.0273
11939TIP3    H157308   0.889   6.726   5.430  1.5682  1.6690  0.0829
11939TIP3    H257309   0.889   6.674   5.573  0.2450 -1.9445 -1.1591
11940TIP3   OH257310   1.484   0.212   1.379 -0.0486  0.0695  0.0722
11940TIP3    H157311   1.397   0.205   1.418  1.3085 -0.9131  3.1353
11940TIP3    H257312   1.501   0.306   1.375 -1.1786  0.2632 -0.4354
11941TIP3   OH257313   6.280   2.998  16.865  0.2681  0.1270 -0.8557
11941TIP3    H157314   6.371   3.024  16.874  0.1219  0.7023 -1.0147
11941TIP3    H257315   6.269   2.926  16.927  0.7755  0.1891 -0.6950
11942TIP3   OH257316   1.119   0.904   5.012  0.1027  0.4123 -0.0760
11942TIP3    H157317   1.189   0.840   5.024 -0.1749  0.2088  0.4532
11942TIP3    H257318   1.137   0.972   5.076 -1.7484 -1.0009  1.9979
11943TIP3   OH257319   1.917   0.886  11.554 -0.3640 -0.5126  0.1930
11943TIP3    H157320   1.890   0.810  11.502 -0.5837 -0.3242  0.0310
11943TIP3    H257321   1.972   0.937  11.495 -1.9000  0.5226 -0.3990
11944TIP3   OH257322   2.345   5.761   5.838 -0.1028 -0.5797  0.3303
11944TIP3    H157323   2.382   5.804   5.915  0.5889 -0.6609  0.0478
11944TIP3    H257324   2.421   5.723   5.793 -0.3864  0.2783 -0.8914
11945TIP3   OH257325   4.680   6.594   3.975  0.5956  0.5423  0.0296
11945TIP3    H157326   4.751   6.559   3.921 -0.1991  0.2111 -0.8142
11945TIP3    H257327   4.683   6.541   4.055  1.8179  1.0805  0.3572
11946TIP3   OH257328   0.492   3.532  13.748 -0.0891  0.0167  0.6021
11946TIP3    H157329   0.570   3.508  13.697 -0.1695  2.8118 -0.9847
11946TIP3    H257330   0.522   3.604  13.804 -1.1949  0.2182  0.9447
11947TIP3   OH257331   5.879   1.001   3.612 -0.1297  0.0582 -0.2872
11947TIP3    H157332   5.821   1.078   3.609 -1.8417 -1.1790  0.5268
11947TIP3    H257333   5.820   0.926   3.611  1.4401 -1.2379  0.7749
11948TIP3   OH257334   4.625   4.098  13.669  0.1277 -0.1254 -0.9848
11948TIP3    H157335   4.672   4.165  13.619 -0.8166  0.4458 -1.1219
11948TIP3    H257336   4.674   4.017  13.654  1.9613  0.7507  0.1322
11949TIP3   OH257337   1.243   4.438  11.070  0.4320 -0.2582 -0.1479
11949TIP3    H157338   1.236   4.344  11.055  3.8222 -0.6182  0.1782
11949TIP3    H257339   1.305   4.469  11.004  3.2201  0.8342  2.8576
11950TIP3   OH257340   1.550   2.382  13.832  0.1407  0.4452  0.2071
11950TIP3    H157341   1.471   2.431  13.854 -0.2154  0.6052 -1.4004
11950TIP3    H257342   1.575   2.339  13.914 -1.8216  0.0857  0.6331
11951TIP3   OH257343   0.257   4.077   0.839  0.2714  0.7226  0.0030
11951TIP3    H157344   0.172   4.039   0.862  1.2033 -1.2554  0.3139
11951TIP3    H257345   0.236   4.163   0.803 -1.7087  1.2105  2.1647
11952TIP3   OH257346   4.417   3.131  13.724  0.5077  0.0309  0.3844
11952TIP3    H157347   4.454   3.125  13.812 -1.6438 -1.5562  1.2103
11952TIP3    H257348   4.366   3.212  13.724  1.8928  0.9180  0.0352
11953TIP3   OH257349   4.832   0.024   5.899  1.1221 -0.5024  0.1441
11953TIP3    H157350   4.899   0.041   5.966 -0.3411  0.1372  1.4628
11953TIP3    H257351   4.773  -0.039   5.939 -0.0174  0.2184 -0.3701
11954TIP3   OH257352   2.609   4.826  12.248  0.5134  0.7718 -0.1595
11954TIP3    H157353   2.594   4.801  12.339 -2.8356 -4.6382 -1.9933
11954TIP3    H257354   2.531   4.875  12.223  1.1142  1.6286 -0.4046
11955TIP3   OH257355   2.536   0.681   1.587 -0.1757  0.2255  0.0949
11955TIP3    H157356   2.525   0.611   1.523  0.7636  0.2353 -0.0776
11955TIP3    H257357   2.490   0.756   1.548  0.1397  0.1495 -0.4337
11956TIP3   OH257358   1.560   4.841   2.477 -0.6036 -0.3589  0.1887
11956TIP3    H157359   1.648   4.876   2.463 -1.3797  0.8518 -1.8834
11956TIP3    H257360   1.573   4.764   2.532  1.7593 -0.2119 -0.1228
11957TIP3   OH257361   3.848   5.283  14.637  0.0576 -0.0916 -0.3096
11957TIP3    H157362   3.892   5.241  14.563 -0.1600  0.9688 -1.0409
11957TIP3    H257363   3.766   5.234  14.646 -1.2649  1.6314 -2.6506
11958TIP3   OH257364   5.382   5.907   3.103  0.0328 -0.2120  0.3511
11958TIP3    H157365   5.343   5.954   3.029  0.4684 -1.0225 -0.3985
11958TIP3    H257366   5.362   5.815   3.087  1.2465 -0.5236  0.5657
11959TIP3   OH257367   3.386   0.576  15.183  0.4293  0.1426  0.1887
11959TIP3    H157368   3.433   0.585  15.266 -1.4487 -0.4769  1.3422
11959TIP3    H257369   3.372   0.482  15.173  1.5726  0.1236 -1.3781
11960TIP3   OH257370   6.730   3.316   0.994 -0.4840  0.0001 -0.2859
11960TIP3    H157371   6.694   3.230   0.972 -0.4163 -0.3773  0.9725
11960TIP3    H257372   6.774   3.301   1.078 -1.2861  1.4879  0.4152
11961TIP3   OH257373   5.841   1.726   1.531  0.0016  0.5512  0.1413
11961TIP3    H157374   5.879   1.653   1.580  1.0298  2.5484  2.4216
11961TIP3    H257375   5.875   1.715   1.442  1.4568 -0.8103  0.8401
11962TIP3   OH257376   0.410   2.961  17.134  0.0020  0.1259 -0.3030
11962TIP3    H157377   0.458   3.009  17.067  1.7405 -0.4935  0.4924
11962TIP3    H257378   0.460   2.880  17.146 -0.8224 -0.1938  1.0673
11963TIP3   OH257379   1.271   5.274  12.001  0.0165 -0.1590 -0.1489
11963TIP3    H157380   1.242   5.235  12.083  0.7401  2.3583  1.3653
11963TIP3    H257381   1.311   5.357  12.027  1.5157  0.0465 -2.9162
11964TIP3   OH257382   4.089   0.511  13.062  0.3757  0.3075 -0.3689
11964TIP3    H157383   4.118   0.471  13.144  1.0088  0.3605 -0.5612
11964TIP3    H257384   4.169   0.547  13.025 -0.1358  1.4266 -0.3758
11965TIP3   OH257385   4.885   5.286  13.524 -0.2247 -0.0534 -0.3002
11965TIP3    H157386   4.924   5.198  13.522  1.1854  0.5405  0.9751
11965TIP3    H257387   4.924   5.329  13.600 -1.1215  1.5939 -0.7422
11966TIP3   OH257388   5.458   6.403  13.866 -0.3307 -0.0534 -0.0775
11966TIP3    H157389   5.418   6.450  13.940 -0.6707  0.3386 -0.5018
11966TIP3    H257390   5.441   6.311  13.884  0.2665 -0.0098  0.7252
11967TIP3   OH257391   4.294   6.195  13.626  0.3798  0.4421  0.2750
11967TIP3    H157392   4.228   6.243  13.576 -1.0392 -1.0681  0.6551
11967TIP3    H257393   4.305   6.245  13.707  0.2967  1.1268 -0.1329
11968TIP3   OH257394   2.993   4.763   4.912 -0.1212  0.4347  0.6116
11968TIP3    H157395   3.072   4.786   4.863  0.1359 -0.0245  0.8086
11968TIP3    H257396   2.997   4.817   4.991  0.2390  0.0645  0.8482
11969TIP3   OH257397   1.521   2.678  16.222  0.3828 -0.1090  0.2290
11969TIP3    H157398   1.477   2.627  16.289 -0.4675 -0.5240 -0.6406
11969TIP3    H257399   1.453   2.701  16.159  1.3756 -0.7769 -1.1397
11970TIP3   OH257400   5.920   3.743   5.961  0.2793  0.0259  0.6117
11970TIP3    H157401   5.967   3.786   6.033 -0.4278  0.0950  1.0303
11970TIP3    H257402   5.889   3.661   5.999  0.2147 -0.1008  0.2793
11971TIP3   OH257403   0.780   5.289  11.766 -0.0960  0.8315 -0.0109
11971TIP3    H157404   0.730   5.317  11.689 -1.2342  1.6676  1.0056
11971TIP3    H257405   0.753   5.199  11.780 -1.2437  1.2348  0.4475
11972TIP3   OH257406   6.751   4.078   2.962 -0.0961 -0.2703 -0.7112
11972TIP3    H157407   6.777   4.030   3.041 -2.7203  1.3534  1.2464
11972TIP3    H257408   6.833   4.107   2.923  1.2690 -0.9158  1.5474
11973TIP3   OH257409   5.856   4.935  15.492  0.1311 -0.7576  0.1722
11973TIP3    H157410   5.775   4.884  15.492  0.2990 -1.0425 -0.6465
11973TIP3    H257411   5.828   5.026  15.504 -0.3099 -0.8596 -0.0803
11974TIP3   OH257412   4.731   5.587   2.377 -0.2534 -0.1003  0.1944
11974TIP3    H157413   4.792   5.570   2.306  1.1837  0.6098  1.2169
11974TIP3    H257414   4.724   5.504   2.424 -0.2385 -0.2430 -0.0603
11975TIP3   OH257415   4.244   3.994   1.287 -0.4494 -0.1687 -0.4970
11975TIP3    H157416   4.218   4.030   1.372  0.0877 -0.0878 -0.3670
11975TIP3    H257417   4.169   3.941   1.260 -0.4759 -0.4837  0.1932
11976TIP3   OH257418   3.508   4.474   1.353  0.1051  0.0488 -0.0741
11976TIP3    H157419   3.486   4.473   1.260  2.0470 -0.0205 -0.5539
11976TIP3    H257420   3.554   4.392   1.368  1.7697  1.0437  0.4291
11977TIP3   OH257421   6.324   2.068   1.062  0.0817  0.4415 -0.1770
11977TIP3    H157422   6.374   2.044   1.140  0.4795  0.1180 -0.5260
11977TIP3    H257423   6.326   2.164   1.061 -1.7486  0.5164  1.3689
11978TIP3   OH257424   2.296   4.832  12.918  0.4018  0.3690 -0.0797
11978TIP3    H157425   2.385   4.843  12.884 -0.1160  1.6015 -1.0613
11978TIP3    H257426   2.303   4.759  12.980  1.6607 -0.9266 -1.7108
11979TIP3   OH257427   5.248   0.957   3.498  0.1046 -0.2451 -0.5882
11979TIP3    H157428   5.314   0.953   3.567 -0.0401  1.7829 -0.2930
11979TIP3    H257429   5.165   0.943   3.544  0.0146  1.0258 -0.3593
11980TIP3   OH257430   0.929   3.236   4.080  0.1920 -0.4688  0.0010
11980TIP3    H157431   0.881   3.228   3.998  2.8586  0.3024 -1.6981
11980TIP3    H257432   0.908   3.323   4.112  0.5872 -0.0675 -0.8245
11981TIP3   OH257433   5.763   2.796  14.401 -0.4997  0.4900  1.0331
11981TIP3    H157434   5.715   2.879  14.392  0.0274  0.7593  0.6871
11981TIP3    H257435   5.852   2.817  14.372  0.3446  0.4839  3.5106
11982TIP3   OH257436   6.634   1.855  13.298 -0.3061 -0.4694 -0.9040
11982TIP3    H157437   6.602   1.768  13.274 -0.4645 -0.3239 -1.2300
11982TIP3    H257438   6.624   1.860  13.393 -3.0942  0.3061 -1.1942
11983TIP3   OH257439   1.861   6.079   2.895 -0.2887  0.5501 -0.2194
11983TIP3    H157440   1.878   5.985   2.898 -1.6289  0.3094  0.3235
11983TIP3    H257441   1.909   6.110   2.819  1.6622 -0.2575  0.6518
11984TIP3   OH257442   5.376   3.169  13.013 -0.4511  0.3900  0.0748
11984TIP3    H157443   5.400   3.172  13.105  0.8106 -0.0710 -0.2355
11984TIP3    H257444   5.453   3.134  12.968 -1.7594 -1.3190 -0.9189
11985TIP3   OH257445   2.725   5.113   0.765  0.0839  0.5484  0.2455
11985TIP3    H157446   2.744   5.097   0.858  0.6224 -0.6099 -0.0509
11985TIP3    H257447   2.812   5.117   0.724 -0.1862 -0.2451 -0.4086
11986TIP3   OH257448   4.918   2.075  11.282  0.1915  0.5302 -0.0738
11986TIP3    H157449   4.915   2.165  11.251  2.1848 -0.3956 -3.1147
11986TIP3    H257450   4.860   2.027  11.224 -0.0411 -0.3636  0.8735
11987TIP3   OH257451   5.507   0.146  11.181  0.0184 -0.4504  0.7221
11987TIP3    H157452   5.567   0.120  11.251  0.5879 -0.0465  0.3933
11987TIP3    H257453   5.423   0.109  11.207  0.6450 -1.9692  0.6226
11988TIP3   OH257454   1.041   5.014   3.098  0.3633 -0.2782 -1.0498
11988TIP3    H157455   1.075   5.100   3.123  0.3919 -0.4078 -0.6367
11988TIP3    H257456   1.083   4.994   3.015  0.2086  0.1964 -1.2449
11989TIP3   OH257457   2.631   3.491  15.563  0.6289  0.0007  0.2404
11989TIP3    H157458   2.710   3.460  15.520  0.0774  0.2625 -1.0110
11989TIP3    H257459   2.658   3.571  15.608  1.2478 -0.3299  0.4549
11990TIP3   OH257460   5.191   0.278   4.008 -0.2207  0.1919 -0.2501
11990TIP3    H157461   5.105   0.250   3.977  0.9195 -1.6028 -1.9223
11990TIP3    H257462   5.248   0.271   3.932  2.0264 -1.4325  1.4798
11991TIP3   OH257463   4.908   3.730   4.787 -0.5629 -0.4177 -0.2155
11991TIP3    H157464   4.954   3.650   4.762 -0.7631 -0.8043  0.6587
11991TIP3    H257465   4.823   3.724   4.743 -1.3965 -1.6868  1.5335
11992TIP3   OH257466   4.227   0.092   0.636  0.0493  0.1164 -0.4619
11992TIP3    H157467   4.189   0.064   0.553 -0.0782  0.8600 -0.6539
11992TIP3    H257468   4.217   0.016   0.694 -1.2839  0.1347 -0.6613
11993TIP3   OH257469   5.234   4.363  11.432  0.1737  0.1405  0.4130
11993TIP3    H157470   5.279   4.443  11.408  1.5320 -0.1499  1.8737
11993TIP3    H257471   5.174   4.389  11.502 -0.9112  0.2550 -0.5413
11994TIP3   OH257472   4.637   5.150   0.450  0.3165  0.0096  0.2088
11994TIP3    H157473   4.721   5.141   0.405  0.3462 -1.2746  0.4890
11994TIP3    H257474   4.603   5.060   0.455 -0.9848  0.4945  0.2566
11995TIP3   OH257475   2.270   4.155  12.600  0.4150  0.2997  0.5543
11995TIP3    H157476   2.181   4.127  12.620 -1.0602  2.7357 -2.2370
11995TIP3    H257477   2.307   4.084  12.548 -0.1510 -0.3595  1.0424
11996TIP3   OH257478   2.768   1.486  15.413  0.1713  0.2960  0.4550
11996TIP3    H157479   2.717   1.406  15.398  0.6327  0.2374 -0.8712
11996TIP3    H257480   2.819   1.498  15.333  0.7290  1.4729  0.9628
11997TIP3   OH257481   2.317   2.410   2.017  0.1361  0.3869 -0.0551
11997TIP3    H157482   2.335   2.463   2.094 -0.8289 -0.8313  1.0168
11997TIP3    H257483   2.280   2.328   2.051  2.1382 -1.2313 -1.6477
11998TIP3   OH257484   4.014   0.226   1.207 -0.4039 -0.1574 -0.5912
11998TIP3    H157485   4.097   0.180   1.192 -1.5738 -2.1548 -1.0869
11998TIP3    H257486   4.027   0.311   1.165  2.4464  0.7521  1.8758
11999TIP3   OH257487   0.384   5.187  10.582 -0.0957  0.1991 -0.3810
11999TIP3    H157488   0.467   5.177  10.629  0.9724 -0.2050 -2.3108
11999TIP3    H257489   0.388   5.274  10.542 -1.3003  0.8250  0.8165
12000TIP3   OH257490   3.798   4.703  15.812  0.9485 -0.2566 -0.7827
12000TIP3    H157491   3.761   4.787  15.841  2.1946  0.1236 -0.2308
12000TIP3    H257492   3.724   4.643  15.810 -0.0907  1.0399 -1.8709
12001TIP3   OH257493   5.430   1.408  12.712 -0.0263  0.0236 -0.1118
12001TIP3    H157494   5.423   1.381  12.620  0.2083  0.8029 -0.3599
12001TIP3    H257495   5.346   1.448  12.733 -0.5260 -1.2605  0.3819
12002TIP3   OH257496   1.986   2.511   0.213 -0.1098 -0.0058 -0.1018
12002TIP3    H157497   1.919   2.579   0.213  0.1792  0.2930  0.6146
12002TIP3    H257498   2.034   2.525   0.295 -0.0646 -1.0954  0.0624
12003TIP3   OH257499   0.304   5.035   6.233  0.1963 -0.0727  0.2707
12003TIP3    H157500   0.269   5.122   6.250  0.2370  0.1059 -0.5424
12003TIP3    H257501   0.276   4.982   6.308 -0.4590  0.4589  0.3995
12004TIP3   OH257502   5.903   1.290  11.541 -0.1320 -0.1387 -0.1124
12004TIP3    H157503   5.854   1.333  11.612 -0.7983  0.0804 -0.7009
12004TIP3    H257504   5.898   1.351  11.468  0.4168 -0.4418 -0.3980
12005TIP3   OH257505   0.782   2.178  15.535 -0.0871 -0.1394 -0.0181
12005TIP3    H157506   0.768   2.253  15.478 -0.2385 -2.0333 -2.5718
12005TIP3    H257507   0.702   2.125  15.525  0.0330 -0.6808  1.7077
12006TIP3   OH257508   5.631   1.817  12.515 -0.3055  0.0247  0.4525
12006TIP3    H157509   5.680   1.834  12.595  0.0955  0.1420  0.1822
12006TIP3    H257510   5.547   1.782  12.545 -1.4851  3.1634  1.1099
12007TIP3   OH257511   5.636   5.869   3.226 -0.2334  0.0603 -0.3439
12007TIP3    H157512   5.611   5.895   3.315  0.5102  5.2603 -1.5393
12007TIP3    H257513   5.555   5.874   3.176 -1.0806 -4.7634  0.2495
12008TIP3   OH257514   2.591   4.584  17.245 -0.2122  0.2782 -0.2382
12008TIP3    H157515   2.651   4.659  17.240 -1.1552  0.9041 -3.9963
12008TIP3    H257516   2.648   4.507  17.249  0.8948  0.9415 -2.4468
12009TIP3   OH257517   0.637   5.954  12.920  0.0236  0.0516  0.4664
12009TIP3    H157518   0.609   5.901  12.846 -0.5531  0.4935  0.3692
12009TIP3    H257519   0.682   6.028  12.880  0.0767  0.0764  0.5734
12010TIP3   OH257520   4.471   5.761  11.973 -0.1061 -0.0955  0.0263
12010TIP3    H157521   4.481   5.685  12.031 -0.4496 -0.5755 -0.5415
12010TIP3    H257522   4.405   5.734  11.909  1.2505 -0.0677 -1.4153
12011TIP3   OH257523   3.993   2.619  15.899 -0.4415  0.3242  0.0861
12011TIP3    H157524   4.010   2.540  15.950  1.0455  0.4067 -0.2443
12011TIP3    H257525   4.035   2.689  15.950 -0.2189  0.6257 -0.5013
12012TIP3   OH257526   2.198   1.784   1.834  0.5427  0.7785  0.5076
12012TIP3    H157527   2.252   1.796   1.911  0.2627  1.7257  0.5640
12012TIP3    H257528   2.224   1.855   1.775  0.0499  0.6623  0.1468
12013TIP3   OH257529   3.309   5.390   3.262 -0.4180 -0.3470  0.2247
12013TIP3    H157530   3.380   5.336   3.228 -0.3818 -1.0965  1.4503
12013TIP3    H257531   3.314   5.378   3.357 -0.7639  1.3750  0.4691
12014TIP3   OH257532   6.464   0.065  15.460  0.4577  0.0641 -0.4214
12014TIP3    H157533   6.537   0.008  15.435  0.5984  0.6443 -1.3665
12014TIP3    H257534   6.416   0.079  15.379 -1.5563 -1.4903  0.4759
12015TIP3   OH257535   4.647   5.175  14.676  0.2639 -0.1850 -0.0511
12015TIP3    H157536   4.673   5.122  14.752 -3.3555  0.8582  1.9973
12015TIP3    H257537   4.679   5.263  14.696  0.1935 -0.1226 -0.2138
12016TIP3   OH257538   5.607   4.507  16.814 -0.9153  0.4323  0.1760
12016TIP3    H157539   5.541   4.560  16.858 -1.8178 -1.1025  0.7227
12016TIP3    H257540   5.647   4.455  16.883  0.9866  1.4193 -0.1316
12017TIP3   OH257541   0.403   0.960  15.051 -0.3548  0.3390 -0.8871
12017TIP3    H157542   0.359   0.966  15.136  0.5383 -1.1935 -0.2842
12017TIP3    H257543   0.331   0.955  14.987 -1.0298  0.9858 -0.1885
12018TIP3   OH257544   2.732   0.650   4.903  0.6118 -0.1476  0.0651
12018TIP3    H157545   2.715   0.614   4.816 -0.2983 -0.3603  0.3293
12018TIP3    H257546   2.661   0.617   4.957 -0.5509  2.4855  0.2058
12019TIP3   OH257547   3.463   1.356   4.050 -0.2222  0.2049  0.3077
12019TIP3    H157548   3.532   1.312   4.000 -0.4818 -0.5942  0.6375
12019TIP3    H257549   3.443   1.435   4.000 -0.7374 -0.7661 -1.0517
12020TIP3   OH257550   4.365   1.068  15.669 -0.2718 -0.2656  0.6308
12020TIP3    H157551   4.403   1.057  15.756 -1.4177  1.7886  1.4490
12020TIP3    H257552   4.374   1.162  15.651 -1.2189 -0.4453 -0.9049
12021TIP3   OH257553   3.929   6.632  12.618  0.1621 -0.2826  0.3014
12021TIP3    H157554   3.966   6.548  12.590  0.3659  0.2156 -0.9782
12021TIP3    H257555   3.894   6.671  12.537 -0.8913  0.3887  1.0604
12022TIP3   OH257556   1.780   5.970   5.766 -0.2516  0.1559  0.5202
12022TIP3    H157557   1.809   6.048   5.720 -2.2105  0.0018 -1.0695
12022TIP3    H257558   1.744   6.002   5.849  0.3765  0.7673  0.5572
12023TIP3   OH257559   1.189   6.635  16.143 -0.1327  0.2871 -0.1247
12023TIP3    H157560   1.121   6.650  16.208  0.6081 -0.5825  0.8777
12023TIP3    H257561   1.147   6.581  16.076  0.0996 -2.0417  1.5375
12024TIP3   OH257562   2.876   0.322   3.108  0.0563  0.5026  0.2880
12024TIP3    H157563   2.801   0.377   3.131  0.7812  1.3651  0.6521
12024TIP3    H257564   2.863   0.301   3.015 -0.3500  1.1039  0.2065
12025TIP3   OH257565   3.419   4.673   1.009  0.3130  0.5941 -0.6641
12025TIP3    H157566   3.434   4.581   0.987  1.4341  0.4151  0.7760
12025TIP3    H257567   3.388   4.672   1.100  0.5860  1.6486 -0.5474
12026TIP3   OH257568   2.436   0.612   3.346  0.1882  0.0700  0.5199
12026TIP3    H157569   2.451   0.599   3.440 -1.8605  2.3147  1.2056
12026TIP3    H257570   2.373   0.544   3.322 -0.9124  0.8225  1.2568
12027TIP3   OH257571   6.745   6.741   3.411  0.0378 -0.6025  0.6756
12027TIP3    H157572   6.684   6.682   3.456 -1.0466  0.6747  0.9049
12027TIP3    H257573   6.763   6.697   3.328 -2.1718 -0.4381  0.0660
12028TIP3   OH257574   2.892   3.188   0.105  0.5470  0.4024  0.0876
12028TIP3    H157575   2.833   3.258   0.075  0.7026  0.2208 -0.6426
12028TIP3    H257576   2.879   3.117   0.042  1.8459  0.5170 -0.3147
12029TIP3   OH257577   5.496   6.242  17.260 -0.5318 -0.1457  0.3371
12029TIP3    H157578   5.462   6.174  17.202  1.9292  0.1978 -1.5894
12029TIP3    H257579   5.483   6.323  17.212  0.1307  0.3162  0.9288
12030TIP3   OH257580   0.184   3.676  14.102  0.4852  0.3540  0.1439
12030TIP3    H157581   0.220   3.620  14.034  1.2476  0.1005  0.7472
12030TIP3    H257582   0.226   3.646  14.182  0.1708  1.1547  0.6119
12031TIP3   OH257583   3.019   0.468  11.291  0.3985  0.2341  0.1740
12031TIP3    H157584   3.062   0.416  11.224 -1.4079 -0.1101 -0.7382
12031TIP3    H257585   3.002   0.406  11.362  0.3112  0.1130  0.0457
12032TIP3   OH257586   0.833   0.284   4.445 -0.2213 -0.0448  0.1774
12032TIP3    H157587   0.787   0.201   4.455  0.1034 -0.4423 -1.4928
12032TIP3    H257588   0.815   0.311   4.355  1.8746  0.3561 -0.1471
12033TIP3   OH257589   6.655   4.341  12.688  0.0346 -0.0702  0.2067
12033TIP3    H157590   6.640   4.360  12.781 -1.1236  0.6244 -0.1210
12033TIP3    H257591   6.683   4.425  12.651 -1.2698  0.0777 -0.4443
12034TIP3   OH257592   4.682   0.459   0.310 -0.0094  0.0571 -0.1437
12034TIP3    H157593   4.746   0.488   0.245  1.8251  0.1123  1.6480
12034TIP3    H257594   4.623   0.534   0.320  1.4630  1.1687  0.4288
12035TIP3   OH257595   4.052   1.035  15.853  0.3538  0.0626  0.6416
12035TIP3    H157596   4.064   0.969  15.921 -0.0909  2.2888  2.9729
12035TIP3    H257597   4.035   0.985  15.773 -4.3997 -2.6331  3.1102
12036TIP3   OH257598   1.033   1.335  16.765 -0.5426 -0.6318 -0.3696
12036TIP3    H157599   1.002   1.245  16.753 -1.5673 -0.4203  0.6350
12036TIP3    H257600   0.975   1.372  16.832  1.8694 -0.2099  1.5393
12037TIP3   OH257601   2.388   4.916  16.442  0.3972  0.3309  0.0986
12037TIP3    H157602   2.355   4.876  16.362  1.2294  1.4421 -0.8030
12037TIP3    H257603   2.469   4.870  16.461 -0.7175 -1.1845  1.3391
12038TIP3   OH257604   3.594   5.134  17.071 -0.3056 -0.2826 -0.2095
12038TIP3    H157605   3.516   5.117  17.018 -1.1659 -1.2619  1.3153
12038TIP3    H257606   3.562   5.190  17.142  0.6342  0.2678 -0.2205
12039TIP3   OH257607   3.588   4.906   1.114  0.3713  0.4529  0.5113
12039TIP3    H157608   3.534   4.828   1.101 -0.1801  0.9629 -0.3453
12039TIP3    H257609   3.555   4.968   1.049  1.6908  0.9297  0.3019
12040TIP3   OH257610   3.362   2.586   1.201  0.4237 -0.5977  0.0481
12040TIP3    H157611   3.440   2.534   1.219  0.1682 -1.0671 -0.1883
12040TIP3    H257612   3.378   2.670   1.244  0.1165 -1.4427  1.8642
12041TIP3   OH257613   3.297   3.875  11.226 -0.1750  0.5874 -0.3236
12041TIP3    H157614   3.305   3.844  11.136 -0.7194 -1.4432  0.3071
12041TIP3    H257615   3.246   3.955  11.219 -2.3946 -0.8854 -1.6100
12042TIP3   OH257616   5.723   4.560  11.509  0.0736 -0.8367  0.4474
12042TIP3    H157617   5.812   4.565  11.543  0.5005 -0.3620 -0.6992
12042TIP3    H257618   5.731   4.508  11.429 -0.8944 -1.8725  1.0051
12043TIP3   OH257619   4.336   1.733   2.485 -0.3496  0.4737  0.1868
12043TIP3    H157620   4.370   1.819   2.513 -1.8417  0.8040  1.0069
12043TIP3    H257621   4.280   1.753   2.411  3.2004 -0.3479 -2.8892
12044TIP3   OH257622   1.688   3.064   4.349  0.6197 -0.1005  0.0780
12044TIP3    H157623   1.644   3.019   4.422  2.1303 -1.4781  0.1599
12044TIP3    H257624   1.616   3.094   4.293 -0.4571 -1.7768  0.5277
12045TIP3   OH257625   2.792   0.600  17.286 -0.1264 -0.0937  0.0404
12045TIP3    H157626   2.738   0.605  17.207  0.4855 -0.4727 -0.4074
12045TIP3    H257627   2.737   0.555  17.350 -0.7284  0.4574 -0.0773
12046TIP3   OH257628   6.356   6.475  16.781 -0.6297  0.0359  0.4183
12046TIP3    H157629   6.427   6.485  16.718  0.4910 -0.9719  1.5033
12046TIP3    H257630   6.340   6.564  16.814  0.2762  0.2296  0.3323
12047TIP3   OH257631   5.611   1.906   0.176 -0.0770  0.2439  0.3009
12047TIP3    H157632   5.603   1.813   0.195  1.5647 -0.0894 -0.5262
12047TIP3    H257633   5.528   1.929   0.134 -0.3140 -0.9660  0.0740
12048TIP3   OH257634   3.885   3.129  15.052 -0.7679  0.0035  0.2492
12048TIP3    H157635   3.935   3.194  15.103  0.5740 -0.3321 -0.5978
12048TIP3    H257636   3.864   3.060  15.114 -1.8942  1.0722  1.0777
12049TIP3   OH257637   5.559   4.387  12.829  0.2946  0.1645  0.0873
12049TIP3    H157638   5.537   4.472  12.792  0.1568 -0.6344 -1.7499
12049TIP3    H257639   5.522   4.324  12.767 -0.4373 -1.2457  1.9182
12050TIP3   OH257640   4.285   2.446   6.284  0.4959 -0.4915 -0.0731
12050TIP3    H157641   4.355   2.468   6.345  1.9514 -1.9332 -1.2156
12050TIP3    H257642   4.316   2.477   6.199 -1.5429  1.5493 -0.1422
12051TIP3   OH257643   2.801   5.043   6.341 -0.0929  0.1370 -0.1279
12051TIP3    H157644   2.774   5.116   6.285  0.6399  0.7485  0.2983
12051TIP3    H257645   2.890   5.024   6.314  0.1851  0.2884  0.6640
12052TIP3   OH257646   2.955   0.926  13.297 -0.2822 -0.2937  0.2420
12052TIP3    H157647   2.952   0.939  13.203 -1.1147 -0.3082  0.2677
12052TIP3    H257648   2.945   0.832  13.309  0.6352 -0.3894  0.3085
12053TIP3   OH257649   0.918   0.274   6.447  0.4134  0.5561  0.5368
12053TIP3    H157650   0.992   0.322   6.410  1.8981 -1.5525  0.6764
12053TIP3    H257651   0.932   0.279   6.541  0.4640  0.0329  0.5571
12054TIP3   OH257652   5.835   5.234  15.461  0.0574 -0.5702 -0.2187
12054TIP3    H157653   5.919   5.251  15.419  0.4047  0.3141  0.8477
12054TIP3    H257654   5.793   5.319  15.467 -0.9487 -1.0081 -0.7700
12055TIP3   OH257655   5.241   4.456   3.763  0.2505 -0.2046  0.3688
12055TIP3    H157656   5.285   4.426   3.683  0.5285  1.1903 -0.0087
12055TIP3    H257657   5.148   4.455   3.740  0.4574  2.2259 -0.6965
12056TIP3   OH257658   2.209   6.182  12.309  0.6520 -0.2229 -0.2855
12056TIP3    H157659   2.153   6.227  12.372 -2.0368 -1.6726 -1.5511
12056TIP3    H257660   2.189   6.089  12.321  1.4497 -0.6360 -2.0156
12057TIP3   OH257661   5.726   4.991   4.565 -0.0386 -0.1095 -0.0782
12057TIP3    H157662   5.770   4.915   4.601  1.1561  0.9783  0.8323
12057TIP3    H257663   5.651   5.005   4.624  1.2214  0.9419  1.3314
12058TIP3   OH257664   1.583   1.551   0.128  0.1725 -0.0406  0.4514
12058TIP3    H157665   1.609   1.574   0.039  0.1946 -0.3332  0.3795
12058TIP3    H257666   1.601   1.457   0.133 -1.9723 -0.4820  0.0219
12059TIP3   OH257667   2.820   5.825  12.116  0.2642 -0.6949  0.3275
12059TIP3    H157668   2.834   5.908  12.070  1.1454 -0.2333  1.4126
12059TIP3    H257669   2.843   5.758  12.052  0.6576 -0.0805 -0.1819
12060TIP3   OH257670   2.149   1.689   6.861  0.5512 -0.0325 -0.2034
12060TIP3    H157671   2.166   1.771   6.908 -0.2761 -1.2544  2.2941
12060TIP3    H257672   2.235   1.658   6.835  1.1197  0.1366  1.4451
12061TIP3   OH257673   0.784   5.969  13.824 -0.1258  0.1770  0.3501
12061TIP3    H157674   0.743   6.010  13.901 -0.8655 -1.2285  0.7199
12061TIP3    H257675   0.778   5.875  13.841  0.7819 -0.1175 -0.8871
12062TIP3   OH257676   5.932   6.599  14.375  0.3002 -0.1915  0.1905
12062TIP3    H157677   5.976   6.630  14.454 -1.9895 -2.7771  2.5761
12062TIP3    H257678   5.998   6.545  14.330  2.4321  3.2751 -1.0867
12063TIP3   OH257679   3.932   4.733  10.615 -0.1202  0.1288 -0.2489
12063TIP3    H157680   4.011   4.694  10.651 -0.7557 -1.2730 -0.3247
12063TIP3    H257681   3.879   4.658  10.587 -1.1533  1.0695 -0.8679
12064TIP3   OH257682   3.522   2.698  11.662  0.5141 -0.0048 -0.3139
12064TIP3    H157683   3.596   2.659  11.708  0.4109  0.4559  0.2521
12064TIP3    H257684   3.544   2.791  11.655  0.5357 -0.0757 -1.2147
12065TIP3   OH257685   1.554   0.121   0.915  0.1382 -0.0405  0.0405
12065TIP3    H157686   1.491   0.101   0.984 -0.0121  0.0037 -0.0842
12065TIP3    H257687   1.608   0.191   0.952  1.2401 -1.2817  0.8189
12066TIP3   OH257688   1.995   0.835   5.338 -0.5335  0.0462  0.1819
12066TIP3    H157689   1.917   0.885   5.314 -0.2589 -0.5028 -2.0597
12066TIP3    H257690   2.029   0.804   5.254  1.5325 -0.5645  1.2153
12067TIP3   OH257691   4.961   6.635  11.329  0.7505  0.3945 -0.1885
12067TIP3    H157692   4.977   6.671  11.242 -2.3602 -0.3050 -1.1032
12067TIP3    H257693   4.972   6.709  11.388  1.5739  1.1726 -1.2896
12068TIP3   OH257694   0.706   1.839   6.007 -0.5936  0.0643 -0.6133
12068TIP3    H157695   0.787   1.817   5.961  0.1396  1.3942  0.0199
12068TIP3    H257696   0.650   1.762   5.995  1.3161 -1.4947  0.2371
12069TIP3   OH257697   4.401   2.821   4.125 -0.5965  0.2831  0.0496
12069TIP3    H157698   4.392   2.876   4.203  0.9046  0.7606 -0.0989
12069TIP3    H257699   4.488   2.842   4.091 -0.5340 -1.2271 -0.7552
12070TIP3   OH257700   5.278   6.468  15.726  0.4343  0.1238  1.1382
12070TIP3    H157701   5.223   6.437  15.654  1.4776 -0.0191  0.3854
12070TIP3    H257702   5.244   6.422  15.803 -1.0749  0.7317  0.8623
12071TIP3   OH257703   0.770   2.907   0.883 -0.0532 -0.1067 -0.0457
12071TIP3    H157704   0.734   2.821   0.904  1.9879 -0.4811  2.0388
12071TIP3    H257705   0.816   2.894   0.800 -0.4647 -0.8210 -0.1657
12072TIP3   OH257706   1.524   5.870   1.124 -0.0728  0.3200  0.2577
12072TIP3    H157707   1.609   5.903   1.154 -0.9429  3.1411 -0.3208
12072TIP3    H257708   1.546   5.796   1.067  1.9398  0.2665  1.0695
12073TIP3   OH257709   6.450   5.551   4.063 -0.4141 -0.0365  0.8834
12073TIP3    H157710   6.387   5.478   4.065 -1.0088  0.3786 -1.1236
12073TIP3    H257711   6.474   5.558   3.971 -1.9605  3.6242  0.6859
12074TIP3   OH257712   2.087   5.872  14.267 -0.4124  0.1894 -0.2364
12074TIP3    H157713   2.174   5.869  14.226 -0.0299 -0.4630  0.6073
12074TIP3    H257714   2.034   5.814  14.214  0.0363 -0.5156  0.0789
12075TIP3   OH257715   6.291   4.927   4.316  0.3765 -0.1162  0.4956
12075TIP3    H157716   6.307   4.838   4.347  0.3140 -0.2927  0.0282
12075TIP3    H257717   6.378   4.964   4.303  0.4074 -0.3948 -0.1153
12076TIP3   OH257718   0.084   0.895  14.439  0.2989  0.3611 -0.1587
12076TIP3    H157719   0.172   0.915  14.473  0.5903 -0.3209 -0.5031
12076TIP3    H257720   0.060   0.973  14.390  1.1646  0.1360 -0.9604
12077TIP3   OH257721   2.498   1.337  17.134  0.0084  0.1474  0.3289
12077TIP3    H157722   2.569   1.377  17.084  0.3665 -0.1604  0.5823
12077TIP3    H257723   2.432   1.406  17.143  0.1487  0.3440 -0.1607
12078TIP3   OH257724   3.589   6.118   2.452  0.4182  0.0487  0.3048
12078TIP3    H157725   3.647   6.043   2.437  0.6008  0.6266 -2.0092
12078TIP3    H257726   3.645   6.183   2.495  1.8345  0.9716 -2.7793
12079TIP3   OH257727   3.495   1.148  14.217 -0.6704 -0.2096 -0.1269
12079TIP3    H157728   3.465   1.141  14.308 -2.4228 -0.6976 -0.7205
12079TIP3    H257729   3.452   1.228  14.184 -0.5641 -0.3947 -0.7118
12080TIP3   OH257730   0.211   3.316   4.204 -0.2383  0.3081 -0.2551
12080TIP3    H157731   0.285   3.354   4.156  0.4283 -0.9984 -0.2646
12080TIP3    H257732   0.238   3.321   4.296  0.5563 -1.5930 -0.3566
12081TIP3   OH257733   1.663   0.463  11.620 -0.7851 -0.3057 -0.1145
12081TIP3    H157734   1.697   0.427  11.538  1.1441 -0.6311  0.8058
12081TIP3    H257735   1.568   0.467  11.606 -0.5231 -0.6568 -2.2340
12082TIP3   OH257736   4.785   0.139   2.600  0.3760  0.1637 -0.0861
12082TIP3    H157737   4.847   0.163   2.531  1.5500  0.3968  1.0362
12082TIP3    H257738   4.787   0.214   2.660  1.8315 -1.4383  1.9056
12083TIP3   OH257739   3.436   1.102  14.868 -0.0323  0.1665 -0.1305
12083TIP3    H157740   3.435   1.049  14.788 -0.0786  1.6846 -1.1635
12083TIP3    H257741   3.360   1.073  14.918 -0.3748 -0.3386 -0.9403
12084TIP3   OH257742   6.041   5.960   6.234 -0.1516  0.0147 -0.2397
12084TIP3    H157743   6.036   5.871   6.200 -1.3582  0.2218 -0.6178
12084TIP3    H257744   5.952   5.982   6.260  0.3784  0.6182  1.1565
12085TIP3   OH257745   6.479   2.169   5.234 -0.1415  0.4471 -0.1293
12085TIP3    H157746   6.531   2.204   5.307 -0.3253 -0.5963  0.4944
12085TIP3    H257747   6.406   2.230   5.226  0.1200  0.8195  0.2533
12086TIP3   OH257748   5.315   1.459   3.739 -0.1708  0.2580 -0.1470
12086TIP3    H157749   5.303   1.552   3.755 -3.5119 -0.1278 -0.1729
12086TIP3    H257750   5.238   1.432   3.688  0.0630 -2.7559  0.9692
12087TIP3   OH257751   5.703   2.798   5.798 -0.1605 -0.7843  0.1473
12087TIP3    H157752   5.751   2.875   5.827 -2.1256  0.4833  0.1685
12087TIP3    H257753   5.638   2.783   5.867 -1.0215 -1.2970 -0.7507
12088TIP3   OH257754   2.427   2.097   3.096  0.2163  0.1883 -0.6928
12088TIP3    H157755   2.350   2.040   3.101  0.8331 -0.5074  0.9399
12088TIP3    H257756   2.393   2.179   3.058 -1.1626 -0.3870 -0.7302
12089TIP3   OH257757   3.058   0.236   0.627 -0.1623 -0.3668  0.0361
12089TIP3    H157758   3.085   0.152   0.591 -0.0554  0.0757 -0.9460
12089TIP3    H257759   3.129   0.262   0.685 -0.9112 -1.6888  1.5909
12090TIP3   OH257760   2.771   6.761  15.233  0.6858 -0.0408 -0.7069
12090TIP3    H157761   2.695   6.819  15.227  0.5811 -0.0816  0.1446
12090TIP3    H257762   2.825   6.798  15.303  0.3225 -1.2896  0.2614
12091TIP3   OH257763   4.330   2.827   0.370 -0.2203 -0.0192 -0.0600
12091TIP3    H157764   4.393   2.816   0.299  0.7382  0.4994  0.6844
12091TIP3    H257765   4.246   2.842   0.327  0.8554  3.2289 -1.1154
12092TIP3   OH257766   4.833   2.433   4.998 -0.3081 -0.5104  0.4848
12092TIP3    H157767   4.844   2.464   5.088 -1.1417  0.7858  0.1501
12092TIP3    H257768   4.799   2.509   4.950  0.6674 -1.0181 -1.0509
12093TIP3   OH257769   1.352   0.125   2.524  0.4578  0.4604  0.1872
12093TIP3    H157770   1.312   0.075   2.595  0.9190  0.2636  0.3106
12093TIP3    H257771   1.367   0.062   2.454  1.1252  0.4012  0.3778
12094TIP3   OH257772   1.561   0.007  13.985 -0.2166 -0.2089 -0.0470
12094TIP3    H157773   1.538  -0.084  14.003 -1.1194 -0.2227 -1.2000
12094TIP3    H257774   1.649   0.018  14.021 -1.0950 -0.8236  2.3372
12095TIP3   OH257775   2.946   2.732  11.820  0.0697  0.1350 -0.4653
12095TIP3    H157776   2.943   2.715  11.914  0.5810  1.2271 -0.2469
12095TIP3    H257777   2.915   2.822  11.810 -2.7282 -0.9000 -1.6361
12096TIP3   OH257778   3.293   2.089   3.839 -0.1760 -0.0016 -0.1519
12096TIP3    H157779   3.351   2.017   3.864  0.1255  0.2548 -0.1107
12096TIP3    H257780   3.254   2.119   3.921  1.0776  1.0680  0.0739
12097TIP3   OH257781   0.924   3.887  14.224 -0.3982  0.0408 -0.5460
12097TIP3    H157782   0.988   3.841  14.170  0.0786 -0.4383  0.4018
12097TIP3    H257783   0.976   3.921  14.298 -1.3702 -1.0986  0.6879
12098TIP3   OH257784   6.357   6.691   0.547 -0.0419 -0.6664 -0.0925
12098TIP3    H157785   6.313   6.622   0.598 -0.5533  0.2090  0.6627
12098TIP3    H257786   6.355   6.768   0.604 -0.7002  0.3666 -1.4845
12099TIP3   OH257787   0.853   2.859  11.440 -0.4038 -0.3781 -0.3135
12099TIP3    H157788   0.781   2.869  11.377 -1.6158 -0.2666  1.0640
12099TIP3    H257789   0.862   2.764  11.451 -1.8901 -0.3540  1.2388
12100TIP3   OH257790   4.569   1.677   5.976 -0.1241 -0.4829 -0.7412
12100TIP3    H157791   4.621   1.701   6.053  1.0836 -1.8762 -1.1061
12100TIP3    H257792   4.568   1.756   5.923 -0.4816  0.3183  0.4226
12101TIP3   OH257793   3.434   5.416   5.284 -0.2153  0.6308  0.1823
12101TIP3    H157794   3.368   5.475   5.247  0.2751  0.5067 -0.8876
12101TIP3    H257795   3.430   5.338   5.229  0.9479  0.6903  0.0078
12102TIP3   OH257796   0.217   2.527  15.202 -0.0156 -0.1412  0.1771
12102TIP3    H157797   0.250   2.508  15.290  0.8174  1.3534  0.1958
12102TIP3    H257798   0.297   2.539  15.150 -0.5190  0.8019 -0.3752
12103TIP3   OH257799   0.633   0.314   3.673 -0.6818 -0.8833  0.8384
12103TIP3    H157800   0.694   0.282   3.607  1.6178  0.5543  2.2003
12103TIP3    H257801   0.577   0.376   3.626 -0.0253 -0.9779 -0.0711
12104TIP3   OH257802   6.573   4.975  15.189  0.3699  0.1656 -0.2274
12104TIP3    H157803   6.582   4.893  15.237  0.2143 -0.2700 -0.9423
12104TIP3    H257804   6.529   4.951  15.108 -0.3990  1.0863 -0.0860
12105TIP3   OH257805   2.434   5.738  15.514 -0.1858 -0.3714  0.1368
12105TIP3    H157806   2.355   5.721  15.566  0.6258  0.8280  1.7866
12105TIP3    H257807   2.433   5.832  15.499  0.7981 -0.3935 -0.0709
12106TIP3   OH257808   4.154   3.692   1.487 -0.2547  0.6545  0.1116
12106TIP3    H157809   4.244   3.662   1.503  0.2521  0.9897 -2.0029
12106TIP3    H257810   4.140   3.759   1.554  1.1812  0.8183  0.2825
12107TIP3   OH257811   6.359   0.873   0.193 -0.0622 -0.1001  0.2841
12107TIP3    H157812   6.417   0.949   0.203 -1.0577  0.6879  0.1222
12107TIP3    H257813   6.411   0.800   0.225  0.8483  0.6747  0.6181
12108TIP3   OH257814   3.242   6.378  13.528  0.1518  0.7470 -0.4540
12108TIP3    H157815   3.186   6.453  13.547  0.5897  1.1479 -0.7503
12108TIP3    H257816   3.240   6.325  13.608 -0.1058  1.1039 -0.2272
12109TIP3   OH257817   1.388   4.801  12.405  0.7515 -0.1866 -0.3760
12109TIP3    H157818   1.453   4.816  12.474  0.6185 -0.1553 -0.2556
12109TIP3    H257819   1.437   4.757  12.335  0.6789 -1.0933  0.1333
12110TIP3   OH257820   5.767   4.591  15.887  0.8944 -0.5120  0.6463
12110TIP3    H157821   5.742   4.583  15.794  0.9285 -1.2515  0.6961
12110TIP3    H257822   5.854   4.630  15.885 -0.3828  2.4447  0.4789
12111TIP3   OH257823   4.726   1.331  11.352 -0.2441 -0.2392  0.1998
12111TIP3    H157824   4.670   1.300  11.280  1.7608 -2.1916 -0.5826
12111TIP3    H257825   4.812   1.343  11.312  0.5420  0.1183  1.9584
12112TIP3   OH257826   0.404   5.925  14.686  0.1168  0.3280  0.2877
12112TIP3    H157827   0.341   5.864  14.646 -0.3213  2.1349 -1.9083
12112TIP3    H257828   0.488   5.901  14.646 -0.0752  1.2080 -0.6638
12113TIP3   OH257829   5.777   2.348   5.360  0.0826  0.4339 -0.8736
12113TIP3    H157830   5.715   2.416   5.388 -1.7887 -1.9829  1.1155
12113TIP3    H257831   5.729   2.299   5.293  0.4310 -0.5177 -0.4302
12114TIP3   OH257832   5.228   3.454   1.020 -0.6209 -0.2643 -0.7916
12114TIP3    H157833   5.135   3.432   1.014 -0.7428  0.0084  0.0061
12114TIP3    H257834   5.230   3.548   1.039 -0.1519 -0.0391 -1.9074
12115TIP3   OH257835   5.538   3.018   2.907 -0.6291 -0.0275 -0.1293
12115TIP3    H157836   5.462   3.036   2.851 -0.8307 -1.0220 -0.1926
12115TIP3    H257837   5.591   3.097   2.901 -0.3783 -0.3073 -2.1899
12116TIP3   OH257838   5.667   2.784   4.988 -0.5131  0.3099 -0.2333
12116TIP3    H157839   5.694   2.867   4.950  0.4186 -1.1467 -2.8357
12116TIP3    H257840   5.572   2.786   4.986 -0.4882  1.1080 -0.7375
12117TIP3   OH257841   5.339   2.204   0.417 -0.1074 -0.4592  0.1832
12117TIP3    H157842   5.394   2.183   0.493 -1.5504 -1.3872  1.0105
12117TIP3    H257843   5.348   2.127   0.360  0.5668  0.0130 -0.3581
12118TIP3   OH257844   5.021   4.069  12.732  0.5379  0.3942  0.4998
12118TIP3    H157845   5.025   4.161  12.707  1.0524  0.3247  0.3207
12118TIP3    H257846   4.932   4.057  12.765  0.6309  1.0756  1.0079
12119TIP3   OH257847   4.900   2.035   4.236 -0.1830  0.0420  0.7046
12119TIP3    H157848   4.849   2.099   4.286 -0.2815  0.8874 -0.4561
12119TIP3    H257849   4.847   2.017   4.159  1.4182  1.2074 -0.7054
12120TIP3   OH257850   3.488   6.555   1.292  0.5191 -0.2605 -0.0795
12120TIP3    H157851   3.433   6.624   1.328  0.7704  0.0666 -0.3177
12120TIP3    H257852   3.472   6.479   1.349 -0.2568 -0.2021 -0.2179
12121TIP3   OH257853   2.442   4.876  11.273  0.8429 -0.5791  0.6507
12121TIP3    H157854   2.465   4.836  11.189  0.2870  1.7206 -0.6416
12121TIP3    H257855   2.353   4.909  11.261  1.8385  2.4364  1.1023
12122TIP3   OH257856   5.530   2.943  14.667 -0.5504 -0.1022 -0.4214
12122TIP3    H157857   5.619   2.966  14.691 -0.1987 -1.4872 -0.3727
12122TIP3    H257858   5.475   2.995  14.725  0.2345  0.1421  0.1092
12123TIP3   OH257859   6.122   4.089  12.714 -0.0593  0.2295 -0.5667
12123TIP3    H157860   6.040   4.070  12.669 -0.9275  0.1625  1.0235
12123TIP3    H257861   6.155   4.169  12.671 -0.7440  0.0478 -1.4550
12124TIP3   OH257862   5.095   0.227  12.517 -0.5802 -0.3060 -0.2363
12124TIP3    H157863   5.162   0.207  12.452 -0.4932  1.1987 -0.6185
12124TIP3    H257864   5.082   0.144  12.564 -0.2923 -1.2753 -1.8288
12125TIP3   OH257865   6.092   0.033   5.166  0.3225 -0.6220  0.3722
12125TIP3    H157866   6.129  -0.003   5.247  0.0722 -0.3856  0.5951
12125TIP3    H257867   6.168   0.051   5.111  0.5212 -0.4534  0.6957
12126TIP3   OH257868   2.390   6.086   3.800  0.4716 -0.0819  0.3118
12126TIP3    H157869   2.481   6.089   3.830  0.6910  0.6620 -0.4252
12126TIP3    H257870   2.353   6.009   3.844  0.9233  0.6806  2.0918
12127TIP3   OH257871   5.823   1.055  16.433 -0.0148 -0.3250  0.5117
12127TIP3    H157872   5.806   1.144  16.463  0.8600  0.4993 -1.3392
12127TIP3    H257873   5.879   1.017  16.501  2.0135  1.5295 -0.0624
12128TIP3   OH257874   4.020   0.509  15.284 -0.2038  0.5130 -0.9595
12128TIP3    H157875   4.065   0.531  15.366 -0.3086 -0.6320 -0.5882
12128TIP3    H257876   3.937   0.556  15.289 -0.6063 -0.2912  0.0204
12129TIP3   OH257877   3.261   3.109   3.746  0.3486  0.1041 -0.2271
12129TIP3    H157878   3.253   3.031   3.691  0.8894 -0.8004  0.9605
12129TIP3    H257879   3.220   3.085   3.829  0.6951  1.0074  0.2185
12130TIP3   OH257880   4.345   1.922  11.427 -0.0114  0.2722  0.3014
12130TIP3    H157881   4.266   1.969  11.401 -0.1403  0.8636  1.7241
12130TIP3    H257882   4.314   1.853  11.486  0.3169 -0.8009 -0.7636
12131TIP3   OH257883   0.503   6.741  13.659  0.6242  0.1555 -0.0399
12131TIP3    H157884   0.418   6.782  13.646  0.8946  0.3897 -1.0652
12131TIP3    H257885   0.564   6.795  13.608  1.3751 -0.0662  0.6088
12132TIP3   OH257886   5.908   2.318  11.938  0.1405 -0.7077 -0.0942
12132TIP3    H157887   5.884   2.330  11.846 -0.8030 -0.9911  0.1067
12132TIP3    H257888   5.891   2.225  11.956  3.9337 -1.5796 -0.6469
12133TIP3   OH257889   6.776   1.126   4.782 -0.1697  0.0551 -0.1492
12133TIP3    H157890   6.750   1.049   4.833  1.2583 -2.1488 -2.6673
12133TIP3    H257891   6.693   1.164   4.752 -0.8887 -0.2592  1.3838
12134TIP3   OH257892   2.830   4.516   3.523 -0.6960 -0.3361  0.0131
12134TIP3    H157893   2.736   4.535   3.514 -0.4672  0.2216 -1.3567
12134TIP3    H257894   2.835   4.456   3.597 -1.8253  2.0795  2.1471
12135TIP3   OH257895   2.172   6.338   1.794 -0.1161 -0.4274 -0.4583
12135TIP3    H157896   2.257   6.296   1.783 -1.2563 -2.6299 -1.0738
12135TIP3    H257897   2.129   6.328   1.710 -0.8719  0.9819 -0.2549
12136TIP3   OH257898   2.700   4.471  13.148 -0.3256 -0.0263 -0.7556
12136TIP3    H157899   2.712   4.377  13.162 -0.6397 -0.1882 -1.5494
12136TIP3    H257900   2.755   4.512  13.215  2.2337 -0.7754 -2.3194
12137TIP3   OH257901   1.948   4.933  14.137 -0.4778  0.1639 -0.2583
12137TIP3    H157902   1.882   4.921  14.205  0.1448 -0.5537  0.2258
12137TIP3    H257903   1.915   4.882  14.063  0.4468 -1.7527  0.6211
12138TIP3   OH257904   6.557   0.730   3.305 -0.3350  0.1315  0.5959
12138TIP3    H157905   6.505   0.770   3.235 -0.4779 -3.0181 -1.1891
12138TIP3    H257906   6.494   0.716   3.376 -0.5405  1.9239  0.7777
12139TIP3   OH257907   5.492   6.590  16.631 -0.4512  0.2578 -0.5220
12139TIP3    H157908   5.430   6.587  16.557 -2.1454 -2.7097  0.8941
12139TIP3    H257909   5.571   6.546  16.597 -0.4627  0.7435 -1.1945
12140TIP3   OH257910   2.816   4.542  14.850  0.7708  0.0188  0.1313
12140TIP3    H157911   2.778   4.463  14.889 -0.4502 -0.3176 -1.6759
12140TIP3    H257912   2.741   4.598  14.830  1.3124  0.0490 -1.9470
12141TIP3   OH257913   6.791   0.788  14.047  0.1998 -0.3898 -0.4870
12141TIP3    H157914   6.732   0.803  13.973 -0.4918 -2.1011 -0.3128
12141TIP3    H257915   6.740   0.814  14.123  0.4821  0.2376 -0.5090
12142TIP3   OH257916   6.285   4.010  13.201 -0.4152 -0.4849  0.8725
12142TIP3    H157917   6.373   4.044  13.218  0.3231 -0.7181 -2.2062
12142TIP3    H257918   6.227   4.066  13.252  1.3257  1.3761  0.8618
12143TIP3   OH257919   5.731   4.883   4.146 -0.1524 -0.1055 -0.2967
12143TIP3    H157920   5.648   4.921   4.175  0.2347  0.1017  0.5787
12143TIP3    H257921   5.787   4.959   4.128  0.9561 -0.1969  2.4390
12144TIP3   OH257922   4.949   6.763   4.212 -0.1817 -0.3194 -0.4184
12144TIP3    H157923   4.998   6.707   4.151  0.1674 -1.2553  0.6809
12144TIP3    H257924   4.998   6.755   4.294 -0.9564  0.4750  0.1196
12145TIP3   OH257925   4.998   5.207   3.329 -0.2392 -0.0524 -0.1386
12145TIP3    H157926   5.054   5.266   3.277  1.4027 -0.2505  1.3529
12145TIP3    H257927   5.054   5.133   3.350 -0.4259  0.6162  2.9972
12146TIP3   OH257928   2.565   4.912   2.895 -0.2024  0.0182  0.0831
12146TIP3    H157929   2.534   4.822   2.886 -2.5118  1.0470 -2.9354
12146TIP3    H257930   2.650   4.904   2.938 -1.1598 -3.4508  1.4512
12147TIP3   OH257931   1.571   0.816   1.125 -0.3963  0.1603 -0.3606
12147TIP3    H157932   1.548   0.798   1.034 -1.9651 -0.9295  0.2395
12147TIP3    H257933   1.534   0.902   1.142 -1.6616 -0.3952 -0.2346
12148TIP3   OH257934   5.700   4.522  16.347  0.5960 -0.7993 -0.2604
12148TIP3    H157935   5.646   4.538  16.424  0.6178  0.2915 -0.4625
12148TIP3    H257936   5.790   4.523  16.380  0.5244 -1.9087 -0.0393
12149TIP3   OH257937   1.689   5.377  14.101 -0.2786 -0.3359 -0.2594
12149TIP3    H157938   1.682   5.297  14.050 -0.8851  0.6944 -1.8172
12149TIP3    H257939   1.601   5.414  14.101  0.2204  0.8907 -0.4709
12150TIP3   OH257940   1.640   1.914   0.887  0.1196 -0.0298  0.0086
12150TIP3    H157941   1.570   1.941   0.827  0.7926  1.0679 -0.2750
12150TIP3    H257942   1.618   1.957   0.970  0.7427  0.7396 -0.2227
12151TIP3   OH257943   6.488   6.104   4.825 -0.0039 -0.3466  0.0716
12151TIP3    H157944   6.403   6.073   4.856 -0.5150  3.3077  2.5961
12151TIP3    H257945   6.473   6.127   4.734 -1.1529 -1.7441 -0.1153
12152TIP3   OH257946   5.224   3.900  11.805  0.3005 -0.2111 -0.2938
12152TIP3    H157947   5.140   3.932  11.772  0.4823 -0.7795 -1.3296
12152TIP3    H257948   5.263   3.976  11.847 -1.5956 -0.4296  1.9545
12153TIP3   OH257949   4.902   5.606  11.923 -0.0264  0.1180 -0.2873
12153TIP3    H157950   4.967   5.668  11.887  0.9783 -1.0119 -0.4498
12153TIP3    H257951   4.852   5.577  11.847 -1.2584  1.5561 -0.0684
12154TIP3   OH257952   1.953   2.882   4.639  0.2431 -0.2492 -0.2367
12154TIP3    H157953   1.888   2.898   4.707  0.0731 -0.7838 -0.2677
12154TIP3    H257954   1.954   2.962   4.587 -0.5190 -0.2942 -0.3358
12155TIP3   OH257955   3.875   0.457   2.593 -0.0314 -0.0670 -0.0229
12155TIP3    H157956   3.918   0.431   2.674 -0.6292 -1.0229 -0.0049
12155TIP3    H257957   3.944   0.495   2.540  1.0566 -2.5363 -0.4244
12156TIP3   OH257958   0.689   1.234  15.118 -0.0981 -0.4692  0.1101
12156TIP3    H157959   0.600   1.200  15.133 -0.0131 -0.7465 -0.0127
12156TIP3    H257960   0.677   1.328  15.108 -0.1799 -0.2714  1.8411
12157TIP3   OH257961   3.989   3.458   5.176 -0.2153  0.3867 -0.2407
12157TIP3    H157962   4.060   3.457   5.240  1.4904  0.3443 -2.0981
12157TIP3    H257963   3.996   3.374   5.131 -0.2718  1.1305 -1.6712
12158TIP3   OH257964   5.300   3.587  15.065  0.4116  0.2641 -0.1868
12158TIP3    H157965   5.285   3.499  15.030 -0.3275  0.3722 -0.1485
12158TIP3    H257966   5.293   3.577  15.160 -0.4115  0.4944 -0.2165
12159TIP3   OH257967   0.345   2.305   4.115 -0.3327  0.7107  0.0223
12159TIP3    H157968   0.259   2.292   4.155 -0.9309  0.6738 -1.2491
12159TIP3    H257969   0.399   2.235   4.151 -1.1837 -0.0535 -0.1690
12160TIP3   OH257970   1.650   4.730   5.984 -0.7720 -0.2535  0.0809
12160TIP3    H157971   1.719   4.753   6.046 -0.5721 -0.6189 -0.0024
12160TIP3    H257972   1.633   4.811   5.936 -0.9978  0.0582  0.6766
12161TIP3   OH257973   0.326   1.439   1.983 -0.3253  0.0003  0.5004
12161TIP3    H157974   0.296   1.525   2.015 -0.3203  0.0045  0.4937
12161TIP3    H257975   0.407   1.424   2.031 -0.5581 -0.2032  0.8279
12162TIP3   OH257976   4.534   6.747  14.798  0.3053  0.3328  0.0900
12162TIP3    H157977   4.612   6.756  14.853 -0.2815  0.2772  0.9281
12162TIP3    H257978   4.524   6.833  14.758  0.8308  0.3241 -0.0668
12163TIP3   OH257979   2.293   5.905  16.030 -0.8292  0.5655 -0.1075
12163TIP3    H157980   2.330   5.834  15.977 -0.6664  1.1142 -0.7339
12163TIP3    H257981   2.295   5.981  15.973 -0.8967  1.1077  0.6052
12164TIP3   OH257982   5.359   2.070   3.479 -0.0177 -0.0295 -0.2016
12164TIP3    H157983   5.366   1.975   3.478  1.6172  0.0772 -0.2147
12164TIP3    H257984   5.317   2.092   3.396  0.6513 -0.6675 -0.7147
12165TIP3   OH257985   6.766   5.248  14.598 -0.2205  0.5293  0.6719
12165TIP3    H157986   6.672   5.244  14.612 -0.6875  0.4533 -2.1312
12165TIP3    H257987   6.788   5.340  14.606 -0.4373  0.4817  1.8558
12166TIP3   OH257988   4.280   5.299   0.902 -0.2065 -0.8374 -0.0340
12166TIP3    H157989   4.259   5.348   0.982 -1.3258 -0.9203 -0.2782
12166TIP3    H257990   4.375   5.310   0.892 -0.1553 -0.3189  0.9705
12167TIP3   OH257991   2.173   4.826  10.602 -0.2149 -0.2960 -0.2791
12167TIP3    H157992   2.161   4.731  10.604  0.1903 -0.3826 -1.5029
12167TIP3    H257993   2.253   4.840  10.552  0.0961  0.6689  0.4614
12168TIP3   OH257994   3.745   6.340   0.267 -0.2102  0.1856  0.6475
12168TIP3    H157995   3.697   6.260   0.247 -1.6532  1.4550 -1.2078
12168TIP3    H257996   3.737   6.351   0.362 -1.3930 -0.9877  0.6900
12169TIP3   OH257997   5.217   1.869  14.223  0.2319  0.1499  0.1679
12169TIP3    H157998   5.255   1.805  14.283  0.9459 -3.8151 -4.2412
12169TIP3    H257999   5.291   1.899  14.169 -0.6731  2.3341  0.0778
12170TIP3   OH258000   4.999   3.314   4.029 -0.7606  0.9127  0.0516
12170TIP3    H158001   4.966   3.379   3.967 -1.7834 -0.5811 -0.9880
12170TIP3    H258002   5.082   3.284   3.990 -0.9606  0.6151 -0.1427
12171TIP3   OH258003   1.725   3.447   4.935 -0.4312  0.2948 -0.2366
12171TIP3    H158004   1.737   3.366   4.886 -4.0341  0.3197 -1.3072
12171TIP3    H258005   1.685   3.420   5.017  1.8767  0.6667  1.0572
12172TIP3   OH258006   4.461   4.953  17.154 -0.0179 -0.5905 -0.0563
12172TIP3    H158007   4.376   4.969  17.114 -0.4505 -1.2821  0.5670
12172TIP3    H258008   4.495   5.040  17.174 -1.3290 -0.3534  1.2173
12173TIP3   OH258009   0.538   4.282   5.184 -0.1498 -0.2013 -0.9918
12173TIP3    H158010   0.566   4.207   5.132 -0.6207  1.8126 -4.2545
12173TIP3    H258011   0.443   4.284   5.174 -0.2738  0.1351  0.1315
12174TIP3   OH258012   0.278   3.239  11.337 -0.0794  0.4353  0.2885
12174TIP3    H158013   0.268   3.147  11.313  1.1104  0.9585 -2.4353
12174TIP3    H258014   0.360   3.243  11.386 -0.7879 -0.1274  1.5469
12175TIP3   OH258015   2.220   2.652  14.071 -0.4316  0.4794  0.0693
12175TIP3    H158016   2.212   2.557  14.069 -1.9899  0.5956 -0.4160
12175TIP3    H258017   2.160   2.680  14.141  0.2101  1.0906  0.3860
12176TIP3   OH258018   1.202   2.773   4.717 -0.0426  0.7079 -0.3726
12176TIP3    H158019   1.110   2.791   4.732  0.0624  0.0985  1.0506
12176TIP3    H258020   1.202   2.695   4.660 -0.4092 -1.5498  2.5958
12177TIP3   OH258021   0.012   6.242   5.906 -0.1026  0.3569 -0.0290
12177TIP3    H158022  -0.024   6.174   5.963 -2.0217  1.4689  0.1299
12177TIP3    H258023  -0.061   6.267   5.848  0.4277  2.5523  0.1796
12178TIP3   OH258024   0.956   0.930   0.984  0.0411  0.1490 -0.1435
12178TIP3    H158025   0.947   1.007   1.040  1.5669 -0.0916  0.4347
12178TIP3    H258026   0.943   0.856   1.042 -1.5774 -0.0552 -0.7297
12179TIP3   OH258027   5.790   3.133   5.177  0.3496 -0.1341 -0.1826
12179TIP3    H158028   5.738   3.063   5.138 -1.2558  0.3698  1.0254
12179TIP3    H258029   5.768   3.131   5.270  1.1314  1.2656  0.0511
12180TIP3   OH258030   2.060   1.887   2.420  0.1559 -0.4364  0.0311
12180TIP3    H158031   2.128   1.953   2.411 -0.3118  0.3143  1.9596
12180TIP3    H258032   2.094   1.825   2.484  0.1477 -1.5279 -0.9925
12181TIP3   OH258033   4.818   5.262  10.539 -0.0647  0.4389  0.3050
12181TIP3    H158034   4.874   5.333  10.572  0.2758 -0.0884  0.8614
12181TIP3    H258035   4.741   5.263  10.597 -0.6719  1.2072 -0.4991
12182TIP3   OH258036   6.609   0.908  13.856 -0.2389 -0.3932  0.1773
12182TIP3    H158037   6.653   0.987  13.889 -0.3765 -0.7331  1.2022
12182TIP3    H258038   6.603   0.922  13.761  0.8330  0.2717  0.1959
12183TIP3   OH258039   5.749   5.896  15.908  0.6770  0.2554  0.0841
12183TIP3    H158040   5.800   5.923  15.985  0.9158 -1.4484  0.5532
12183TIP3    H258041   5.769   5.803  15.898 -1.3312 -0.1281 -0.5157
12184TIP3   OH258042   0.895   5.602   2.297 -0.1073 -0.7804  0.8842
12184TIP3    H158043   0.833   5.616   2.226  0.2651  0.4586  0.7875
12184TIP3    H258044   0.850   5.634   2.375  1.0704  1.8749  0.5301
12185TIP3   OH258045   3.394   1.809  17.270  0.1760 -0.4511  0.2272
12185TIP3    H158046   3.480   1.766  17.264  1.7427  2.2558  2.0720
12185TIP3    H258047   3.397   1.878  17.204 -1.2550 -1.3999 -0.8506
12186TIP3   OH258048   5.091   2.317  15.770  0.2973 -0.3909  0.3539
12186TIP3    H158049   5.063   2.257  15.702  1.6083 -1.1028  0.4328
12186TIP3    H258050   5.143   2.383  15.724 -1.1524  0.7065  0.2620
12187TIP3   OH258051   0.355   1.545  15.478 -0.0286  0.1217 -0.1011
12187TIP3    H158052   0.389   1.476  15.422  0.2662 -0.3592  0.6736
12187TIP3    H258053   0.268   1.514  15.504 -0.0817  0.2493 -0.1263
12188TIP3   OH258054   4.402   0.133   3.111 -0.0273 -0.4319 -0.4017
12188TIP3    H158055   4.349   0.054   3.123 -1.0401  0.3356  0.2641
12188TIP3    H258056   4.492   0.105   3.132 -0.5530 -1.1323  1.0109
12189TIP3   OH258057   6.336   0.793  14.586  0.4765  0.0351 -0.5102
12189TIP3    H158058   6.424   0.797  14.623  0.6651 -2.2382 -0.6664
12189TIP3    H258059   6.283   0.846  14.646  1.9647  1.5676 -0.5152
12190TIP3   OH258060   6.533   0.090   3.492 -0.3137 -0.2901 -0.2242
12190TIP3    H158061   6.618   0.060   3.460 -1.2527 -3.5416  0.1053
12190TIP3    H258062   6.502   0.019   3.547 -1.7595  2.3184  2.4791
12191TIP3   OH258063   3.235   0.762   3.059 -0.1051 -0.3021  0.3427
12191TIP3    H158064   3.271   0.756   3.148  0.3928  0.5848  0.2063
12191TIP3    H258065   3.266   0.683   3.015 -0.6455 -0.9223  1.0623
12192TIP3   OH258066   0.441   0.166   2.343  0.1729  0.7812 -0.5816
12192TIP3    H158067   0.364   0.164   2.286  0.9901  3.7044 -1.9043
12192TIP3    H258068   0.503   0.106   2.302 -0.6101  0.0414 -0.6951
12193TIP3   OH258069   1.577   5.607  11.519 -0.6774  0.5956  0.2440
12193TIP3    H158070   1.591   5.513  11.527  0.2052  0.8940  2.7014
12193TIP3    H258071   1.643   5.636  11.455 -1.2478 -0.4852 -0.8601
12194TIP3   OH258072   6.563   2.838  12.964 -0.2616  0.0801  0.6360
12194TIP3    H158073   6.545   2.911  12.904 -0.2526  1.0823  1.8392
12194TIP3    H258074   6.616   2.778  12.912 -0.9852  0.5159 -0.6500
12195TIP3   OH258075   6.064   6.802  13.213  0.0178  0.0683 -0.0116
12195TIP3    H158076   6.046   6.708  13.204 -0.2914  0.0556  0.7171
12195TIP3    H258077   6.135   6.819  13.151 -1.1136 -0.2857 -1.4543
12196TIP3   OH258078   1.388   5.079   5.663 -0.3742  0.1034 -0.3089
12196TIP3    H158079   1.394   5.131   5.583 -1.4114 -0.9319 -1.0850
12196TIP3    H258080   1.341   5.135   5.725  1.3067  1.2979 -0.0634
12197TIP3   OH258081   2.120   6.451   2.799  0.3586 -0.3338  0.0764
12197TIP3    H158082   2.201   6.497   2.815 -0.6405  1.4288  0.1621
12197TIP3    H258083   2.099   6.409   2.882  0.6065  0.1181  0.3678
12198TIP3   OH258084   6.703   5.726  16.181 -0.0498 -0.2180 -0.4991
12198TIP3    H158085   6.676   5.707  16.091  0.4742 -2.7524 -0.1458
12198TIP3    H258086   6.659   5.808  16.202 -1.1768 -0.2339 -2.6390
12199TIP3   OH258087   5.740   5.585   1.615  0.6549 -0.0563 -0.5677
12199TIP3    H158088   5.647   5.572   1.593  0.6171 -0.0951 -0.3851
12199TIP3    H258089   5.764   5.507   1.664  0.3705  0.6327  0.7176
12200TIP3   OH258090   1.779   6.608  13.925  0.6529  0.4818 -0.1479
12200TIP3    H158091   1.872   6.587  13.923  0.4731 -0.4356  0.8006
12200TIP3    H258092   1.751   6.589  14.014 -0.3055  1.3866 -0.2349
12201TIP3   OH258093   5.390   0.032   3.705 -0.0078 -0.0630  0.5770
12201TIP3    H158094   5.423   0.114   3.740 -0.0599 -0.3086  1.2069
12201TIP3    H258095   5.329   0.057   3.636  0.5341  0.4132  0.2675
12202TIP3   OH258096   1.142   5.802  12.538  0.3051 -0.0441 -0.0554
12202TIP3    H158097   1.161   5.709  12.520  1.6283  0.4026 -1.0580
12202TIP3    H258098   1.093   5.831  12.461 -0.6639 -0.0666  0.5488
12203TIP3   OH258099   5.344   4.863  11.944 -0.1426  0.0391 -0.4284
12203TIP3    H158100   5.343   4.878  11.850  0.7803 -0.6204 -0.5453
12203TIP3    H258101   5.432   4.831  11.963  0.0251  1.2132  0.8236
12204TIP3   OH258102   1.871   1.209  16.026  0.2676  0.7335  0.3882
12204TIP3    H158103   1.940   1.271  16.047  0.4510  0.5403  0.3574
12204TIP3    H258104   1.894   1.175  15.939  0.6823 -0.0811  0.8139
12205TIP3   OH258105   0.115   4.264   2.689 -0.2968  0.3652  0.3109
12205TIP3    H158106   0.170   4.239   2.763 -1.5652 -0.1570  1.1009
12205TIP3    H258107   0.086   4.181   2.651  1.7892  0.6037 -1.9023
12206TIP3   OH258108   0.700   5.775   1.823  0.3856 -0.1086 -0.1473
12206TIP3    H158109   0.705   5.847   1.760  0.4473  0.8215  0.9185
12206TIP3    H258110   0.731   5.699   1.774 -1.3522  0.2111 -1.8258
12207TIP3   OH258111   6.804   5.231  12.912  0.0596 -0.3609 -0.3866
12207TIP3    H158112   6.773   5.315  12.879 -1.5151 -0.1886  1.4299
12207TIP3    H258113   6.783   5.234  13.006  0.1633 -2.6994 -0.2772
12208TIP3   OH258114   2.279   0.464   2.914  0.1580 -0.6432  0.2432
12208TIP3    H158115   2.246   0.551   2.891  0.2521 -0.5687  0.3939
12208TIP3    H258116   2.313   0.429   2.831 -0.6760 -0.8867 -0.0008
12209TIP3   OH258117   5.165   4.020  14.783  0.3755 -0.3084 -0.0232
12209TIP3    H158118   5.234   4.026  14.716 -2.1582 -2.4438 -2.9485
12209TIP3    H258119   5.166   3.929  14.810 -1.3161 -0.3831 -0.1619
12210TIP3   OH258120   6.655   5.040  13.075 -0.4854  0.0678 -0.0725
12210TIP3    H158121   6.684   5.022  13.165 -0.8267 -0.8314 -0.1410
12210TIP3    H258122   6.571   5.085  13.085 -0.7425 -0.4374  0.0508
12211TIP3   OH258123   6.588   1.149  14.191  0.2218  0.3406 -0.0244
12211TIP3    H158124   6.495   1.126  14.181  0.3821 -0.7320  0.9059
12211TIP3    H258125   6.590   1.209  14.265 -0.0289  2.3935 -1.6290
12212TIP3   OH258126   2.785   6.140  12.295 -0.0615 -0.3846  0.4238
12212TIP3    H158127   2.768   6.228  12.329 -0.4021  0.1264 -1.0614
12212TIP3    H258128   2.704   6.092  12.313 -0.4164  0.0181 -0.1147
12213TIP3   OH258129   3.593   4.327  15.223  0.1335  0.3680 -0.2040
12213TIP3    H158130   3.567   4.278  15.301 -0.5315 -0.0918 -0.7081
12213TIP3    H258131   3.686   4.307  15.212  0.1979  0.3343  0.4024
12214TIP3   OH258132   1.999   4.982  14.880  0.4292 -0.1746 -0.2885
12214TIP3    H158133   2.077   4.970  14.933  0.6730 -0.9306 -0.8106
12214TIP3    H258134   2.032   5.002  14.792  0.0954 -2.8745 -1.0832
12215TIP3   OH258135   5.563   6.587   4.072 -0.3216  0.3755 -0.0441
12215TIP3    H158136   5.482   6.625   4.038 -0.3358  0.2813 -0.1165
12215TIP3    H258137   5.588   6.645   4.144 -1.0576 -0.2236  0.7084
12216TIP3   OH258138   1.171   2.770  16.661  0.4208 -0.2677 -0.0619
12216TIP3    H158139   1.247   2.815  16.698  0.0912  0.2322  0.0055
12216TIP3    H258140   1.186   2.678  16.683  2.3359 -0.5704 -2.3453
12217TIP3   OH258141   4.936   2.021  14.493 -0.0590  0.4493 -0.6286
12217TIP3    H158142   5.030   2.029  14.479  0.3926 -1.3227  1.1325
12217TIP3    H258143   4.903   1.983  14.411  1.0659 -0.7782 -0.5330
12218TIP3   OH258144   0.279   3.141   5.219 -0.2592  0.1988  0.1010
12218TIP3    H158145   0.291   3.185   5.136 -1.3400  2.7090  1.2317
12218TIP3    H258146   0.210   3.076   5.203  0.1546  0.0678 -1.1501
12219TIP3   OH258147   0.960   6.700  17.216  0.0426  0.4407 -0.3054
12219TIP3    H158148   0.890   6.652  17.260  1.5331 -0.9911  0.5776
12219TIP3    H258149   1.034   6.695  17.277  0.4943  3.2103 -0.5480
12220TIP3   OH258150   3.244   1.302   5.488  0.2551  0.7762 -0.7087
12220TIP3    H158151   3.231   1.218   5.445 -1.0428  0.7135 -0.2106
12220TIP3    H258152   3.271   1.280   5.577 -1.4636  0.8437 -0.1401
12221TIP3   OH258153   5.092   4.985   2.698  0.7380 -0.4713  0.1959
12221TIP3    H158154   5.001   5.011   2.708  1.0983  1.3747 -1.1374
12221TIP3    H258155   5.089   4.890   2.685 -1.1007 -0.2110 -1.3238
12222TIP3   OH258156   2.431   2.585   3.285 -1.0086 -0.2613 -0.0211
12222TIP3    H158157   2.360   2.616   3.230 -2.4012 -2.2733  0.5734
12222TIP3    H258158   2.403   2.604   3.374 -1.0578 -1.4822  0.2425
12223TIP3   OH258159   5.608   3.790  13.784 -0.7558 -0.0730 -0.6201
12223TIP3    H158160   5.606   3.726  13.855 -0.5590 -0.6640 -1.1352
12223TIP3    H258161   5.559   3.865  13.817 -0.4114 -0.2278  0.2440
12224TIP3   OH258162   5.393   2.112  12.427  0.0723 -0.4002  0.5923
12224TIP3    H158163   5.467   2.157  12.389  1.2321 -1.9611  0.9570
12224TIP3    H258164   5.369   2.045  12.363 -2.2380  1.2663 -0.3813
12225TIP3   OH258165   3.487   4.659   5.341  0.3320  0.1719  0.6211
12225TIP3    H158166   3.476   4.630   5.432 -1.0972 -0.3012  0.3101
12225TIP3    H258167   3.463   4.582   5.289 -0.0736  0.8300 -0.1730
12226TIP3   OH258168   2.132   1.838  16.126  0.7419 -0.8948  0.2134
12226TIP3    H158169   2.227   1.845  16.125  0.6071  1.3628  0.5600
12226TIP3    H258170   2.102   1.916  16.078 -0.9321 -1.6285  0.0261
12227TIP3   OH258171   6.478   0.808   5.251  0.3237  0.2619 -0.1720
12227TIP3    H158172   6.536   0.734   5.268 -0.0894  0.2211  1.1257
12227TIP3    H258173   6.527   0.864   5.191  0.3414 -1.4196 -1.7408
12228TIP3   OH258174   0.012   2.160   3.727  0.0432  0.8620 -0.1177
12228TIP3    H158175   0.023   2.131   3.817  0.9009 -0.6798 -0.7036
12228TIP3    H258176   0.045   2.250   3.727 -1.7941  1.5512  1.5110
12229TIP3   OH258177   0.277   5.706  14.574  0.0888  0.1568 -0.0062
12229TIP3    H158178   0.186   5.726  14.554  0.1975  0.9409  0.2427
12229TIP3    H258179   0.314   5.677  14.491 -1.0920 -2.9602  0.5014
12230TIP3   OH258180   3.244   0.615   5.294 -0.2003 -0.1100  0.5035
12230TIP3    H158181   3.210   0.537   5.337 -2.3922 -0.5441 -1.9324
12230TIP3    H258182   3.329   0.630   5.335 -1.1222 -1.9347  3.2046
12231TIP3   OH258183   2.160   0.070  15.884 -0.0204  0.1163  0.1051
12231TIP3    H158184   2.089   0.087  15.945  0.8004 -1.8525  1.6677
12231TIP3    H258185   2.239   0.096  15.931  0.6106 -1.3401 -0.1245
12232TIP3   OH258186   6.607   2.786  12.357  0.0866  0.1351 -0.2933
12232TIP3    H158187   6.512   2.779  12.365  0.1275 -1.0258 -0.6504
12232TIP3    H258188   6.632   2.713  12.300  1.0833  1.0615 -1.0712
12233TIP3   OH258189   2.316   1.481   0.461  0.0021  0.1088  0.1386
12233TIP3    H158190   2.303   1.388   0.444  2.0790 -0.6447  2.3497
12233TIP3    H258191   2.280   1.494   0.549  0.8300  1.1121  0.3452
12234TIP3   OH258192   4.384   0.553  11.000 -0.2313 -0.5808  0.0743
12234TIP3    H158193   4.356   0.635  11.042 -1.1601 -0.7306 -0.2355
12234TIP3    H258194   4.464   0.576  10.954  0.2056 -0.1504  1.0277
12235TIP3   OH258195   2.130   2.837  15.962 -0.1928 -0.0903  0.1002
12235TIP3    H158196   2.182   2.761  15.934 -0.1294 -0.1121  0.2735
12235TIP3    H258197   2.073   2.802  16.030 -0.1513  0.0225  0.1922
12236TIP3   OH258198   0.511   6.431  16.212 -0.1814  0.0672 -0.5089
12236TIP3    H158199   0.469   6.365  16.267  0.6094 -0.0162  0.0018
12236TIP3    H258200   0.510   6.511  16.265  2.0144 -0.4030  0.2822
12237TIP3   OH258201   0.180   6.017   2.607  0.0479  0.1117 -0.5065
12237TIP3    H158202   0.150   5.931   2.576  1.4673  0.1433 -2.0801
12237TIP3    H258203   0.157   6.077   2.536  1.6736  0.5101 -0.7325
12238TIP3   OH258204   2.997   2.752   3.023  0.1178 -0.2665  0.0504
12238TIP3    H158205   3.050   2.761   2.944 -0.7958 -3.0196 -0.9567
12238TIP3    H258206   3.056   2.776   3.095  1.4758  0.6087 -1.3353
12239TIP3   OH258207   3.506   3.840   3.756 -0.0957  0.3070  0.2732
12239TIP3    H158208   3.465   3.875   3.677  0.7398  0.0777 -0.2788
12239TIP3    H258209   3.455   3.875   3.829 -0.7782  0.6414 -0.3707
12240TIP3   OH258210   3.804   5.144   3.966  0.7153 -0.3435 -0.1676
12240TIP3    H158211   3.877   5.110   3.914  0.7445  0.8586 -0.9471
12240TIP3    H258212   3.843   5.213   4.020  0.5253 -1.0253  0.8445
12241TIP3   OH258213   4.277   4.503   3.048 -0.1547  0.4688 -0.8537
12241TIP3    H158214   4.333   4.539   3.117 -0.8761 -0.3549  0.1925
12241TIP3    H258215   4.200   4.469   3.095 -0.0826 -1.2449 -1.9271
12242TIP3   OH258216   2.028   3.375  12.495  0.0572  0.3861  0.3748
12242TIP3    H158217   2.089   3.353  12.425  0.4525  1.1497  0.4792
12242TIP3    H258218   1.942   3.352  12.459  0.1929  1.3459 -0.5950
12243TIP3   OH258219   5.896   5.278   3.321  0.1300 -0.4433 -0.1970
12243TIP3    H158220   5.959   5.248   3.387  0.5797 -0.2052 -0.5104
12243TIP3    H258221   5.951   5.300   3.245 -0.4196 -1.1613 -0.8141
12244TIP3   OH258222   3.439   2.273   3.665  0.2377 -0.2031  0.2743
12244TIP3    H158223   3.367   2.216   3.695 -0.0486  0.3102  0.5655
12244TIP3    H258224   3.456   2.243   3.576 -0.8134  0.1250 -0.0466
12245TIP3   OH258225   3.113   4.293   3.292  0.2183  0.4650 -0.8641
12245TIP3    H158226   3.065   4.282   3.374 -0.7886 -0.6678 -1.5822
12245TIP3    H258227   3.184   4.229   3.297  0.1766  0.4186 -0.8563
12246TIP3   OH258228   4.554   5.443  16.137  0.2245  0.1079 -0.0141
12246TIP3    H158229   4.501   5.521  16.153 -1.1819 -0.0738 -3.3412
12246TIP3    H258230   4.504   5.372  16.176  1.6159  0.8545  3.2245
12247TIP3   OH258231   4.752   4.680   2.961  0.3931  0.0243  0.1649
12247TIP3    H158232   4.766   4.681   2.867  0.1234 -0.7901  0.1141
12247TIP3    H258233   4.669   4.634   2.973 -0.2685  1.3119  0.7123
12248TIP3   OH258234   5.297   4.077  15.686  0.1471  1.1474 -0.1842
12248TIP3    H158235   5.361   4.147  15.697  0.2905  0.7424  1.6539
12248TIP3    H258236   5.302   4.026  15.767 -1.0896 -0.0597 -0.8360
12249TIP3   OH258237   3.928   0.732   5.346 -0.6300  0.6773 -0.0005
12249TIP3    H158238   3.941   0.826   5.358  0.2019  0.5156  0.4280
12249TIP3    H258239   3.912   0.699   5.435 -1.3659  0.4742 -0.2037
12250TIP3   OH258240   1.740   3.434   1.588  0.3370  0.3468 -0.4527
12250TIP3    H158241   1.666   3.382   1.556 -0.7935  1.6454  0.0281
12250TIP3    H258242   1.735   3.516   1.540  1.1933  0.6277 -0.0707
12251TIP3   OH258243   3.311   0.830   4.909 -0.0845 -0.0771  0.4746
12251TIP3    H158244   3.258   0.756   4.939 -0.5901  0.5871  1.2300
12251TIP3    H258245   3.278   0.905   4.958 -0.2239  0.8345 -0.9957
12252TIP3   OH258246   0.881   5.621   5.515  0.2122  0.4155 -0.3428
12252TIP3    H158247   0.934   5.552   5.474  0.3487  1.1990 -1.5188
12252TIP3    H258248   0.911   5.624   5.606 -0.7113 -1.9481  0.0653
12253TIP3   OH258249   3.896   4.412   5.650  0.0428  0.2284 -0.3661
12253TIP3    H158250   3.864   4.363   5.726  0.3011 -1.7927 -1.5179
12253TIP3    H258251   3.828   4.399   5.584  0.8896  0.0853 -1.2116
12254TIP3   OH258252   5.923   1.298   4.292  0.1529 -0.3494 -0.3359
12254TIP3    H158253   5.928   1.241   4.215  0.1727 -1.4445  0.4675
12254TIP3    H258254   6.002   1.351   4.287  0.5076 -0.9023 -0.6901
12255TIP3   OH258255   4.373   6.723  16.055  0.2828 -0.2743 -0.0284
12255TIP3    H158256   4.351   6.679  16.137 -0.0055 -0.2655 -0.0999
12255TIP3    H258257   4.466   6.706  16.042  0.0590 -1.3068 -0.3266
12256TIP3   OH258258   0.578   5.523  17.118 -0.4486  0.0249  0.2454
12256TIP3    H158259   0.545   5.445  17.163  1.0534 -0.9417 -0.2906
12256TIP3    H258260   0.511   5.542  17.052  0.2214 -2.2182 -1.1723
12257TIP3   OH258261   1.320   0.840   2.173  0.1658  0.0990  0.0683
12257TIP3    H158262   1.318   0.933   2.196  1.5126 -0.2520  1.8002
12257TIP3    H258263   1.229   0.816   2.161 -0.5647  0.7845  3.5208
12258TIP3   OH258264   6.528   5.283  12.116  0.3554  0.5802  0.2854
12258TIP3    H158265   6.613   5.239  12.115 -0.6311 -1.3797 -1.1084
12258TIP3    H258266   6.549   5.376  12.109  2.3496  0.0483 -1.3494
12259TIP3   OH258267   1.236   4.606  13.992  0.0861 -0.0238  0.4647
12259TIP3    H158268   1.144   4.580  13.992  0.3611 -1.0697 -0.9544
12259TIP3    H258269   1.247   4.652  13.908  1.0845 -0.7708  0.1852
12260TIP3   OH258270   3.571   5.684   3.334 -0.3777  0.1798  0.2807
12260TIP3    H158271   3.476   5.684   3.324 -0.2647  1.5127 -0.7722
12260TIP3    H258272   3.597   5.594   3.311 -1.3551 -0.1807  0.5365
12261TIP3   OH258273   0.003   0.262  10.802 -0.3007 -0.2131  0.6705
12261TIP3    H158274   0.036   0.240  10.889  1.5331  0.1286  0.0930
12261TIP3    H258275  -0.049   0.341  10.816 -0.9650 -0.8160  1.6323
12262TIP3   OH258276   5.411   0.234  16.193  0.2484 -0.3453 -0.3756
12262TIP3    H158277   5.317   0.248  16.204  0.2597  0.0886 -0.8194
12262TIP3    H258278   5.423   0.227  16.098  0.6379 -0.5998 -0.3082
12263TIP3   OH258279   6.283   4.459   4.712 -0.3062 -0.0273  0.0001
12263TIP3    H158280   6.317   4.513   4.782  1.1257 -1.0329  0.1078
12263TIP3    H258281   6.361   4.421   4.671 -1.2558 -1.8957 -0.1382
12264TIP3   OH258282   4.685   3.742  14.332  0.3351 -0.8205  0.0481
12264TIP3    H158283   4.735   3.708  14.406 -1.3420  0.0623  1.6403
12264TIP3    H258284   4.598   3.758  14.368 -0.5566 -0.5315 -2.1804
12265TIP3   OH258285   5.155   3.061  13.581  0.1389  0.0185  0.0191
12265TIP3    H158286   5.224   3.046  13.645 -1.8139 -2.3365  1.6749
12265TIP3    H258287   5.155   2.983  13.526  1.1270  1.5792 -2.2515
12266TIP3   OH258288   0.184   2.096  12.516  0.3670  0.1533 -0.0211
12266TIP3    H158289   0.276   2.095  12.490  1.0384 -0.5776  2.2468
12266TIP3    H258290   0.185   2.127  12.606 -1.6822  0.7228 -0.1726
12267TIP3   OH258291   5.525   0.523  13.558  0.2564 -0.0571  0.4181
12267TIP3    H158292   5.566   0.606  13.535 -1.1399  0.6163  0.2929
12267TIP3    H258293   5.503   0.483  13.474 -0.8891  0.3965  0.4816
12268TIP3   OH258294   3.925   2.692  15.347  0.8234 -0.4698 -0.1153
12268TIP3    H158295   3.887   2.636  15.415  0.7071 -1.8190 -1.2782
12268TIP3    H258296   3.852   2.745  15.316  0.8590  0.0926  0.7534
12269TIP3   OH258297   0.529   2.451   2.164  0.1077  0.2588 -0.4138
12269TIP3    H158298   0.439   2.482   2.172 -0.2089 -0.2665 -1.7859
12269TIP3    H258299   0.582   2.531   2.164 -0.4549  0.6378 -0.7874
12270TIP3   OH258300   0.897   2.606   2.108  0.6906  0.1343 -0.1535
12270TIP3    H158301   0.940   2.584   2.025  0.5054 -0.0084 -0.2123
12270TIP3    H258302   0.966   2.645   2.161  0.8958 -0.1078 -0.2410
12271TIP3   OH258303   0.705   1.162   1.614 -0.1658  0.1482  0.0968
12271TIP3    H158304   0.782   1.215   1.633  0.0064 -0.2512  0.5280
12271TIP3    H258305   0.692   1.109   1.693 -1.2978  0.7170  0.2933
12272TIP3   OH258306   2.544   3.827  16.637 -0.1810 -0.0937  0.3625
12272TIP3    H158307   2.530   3.902  16.695 -1.2101  0.4264 -0.5277
12272TIP3    H258308   2.513   3.752  16.686 -1.0692  0.3489  0.4916
12273TIP3   OH258309   6.087   3.262  14.982  0.4904  0.4446 -0.1059
12273TIP3    H158310   6.002   3.224  14.964  1.2016 -1.5233  0.5829
12273TIP3    H258311   6.072   3.323  15.054 -0.4938  0.8173 -0.6254
12274TIP3   OH258312   2.295   0.243   5.912  0.4302  0.2262 -0.2956
12274TIP3    H158313   2.353   0.309   5.874  2.0129 -1.3872 -0.7347
12274TIP3    H258314   2.309   0.165   5.858  0.7527 -1.3193  1.9718
12275TIP3   OH258315   4.123   5.942  11.367 -0.2600  0.0824  0.3400
12275TIP3    H158316   4.033   5.925  11.338  0.1100 -0.4255 -0.5383
12275TIP3    H258317   4.146   6.026  11.327 -0.1893  0.0020  0.2138
12276TIP3   OH258318   4.416   2.840   3.610 -0.3484 -0.3188  0.1685
12276TIP3    H158319   4.362   2.843   3.532 -0.1119  0.0923  0.0188
12276TIP3    H258320   4.502   2.813   3.579 -0.2778 -0.2456  0.3010
12277TIP3   OH258321   1.739   1.677   4.727  0.4391  0.6152  0.4318
12277TIP3    H158322   1.645   1.668   4.714  0.1805  2.1415  1.1319
12277TIP3    H258323   1.749   1.689   4.822  1.2366  1.4783  0.2503
12278TIP3   OH258324   2.223   5.177   4.757  0.2317  0.1248  0.3685
12278TIP3    H158325   2.205   5.178   4.663 -0.7752 -1.4223  0.5280
12278TIP3    H258326   2.279   5.101   4.770  1.0520  0.8156  0.9116
12279TIP3   OH258327   3.899   0.146  13.264  0.0489  0.4277 -0.2389
12279TIP3    H158328   3.925   0.114  13.178  2.8612 -0.5827  0.9420
12279TIP3    H258329   3.895   0.241  13.255  2.5402  0.4922 -0.9396
12280TIP3   OH258330   2.073   1.119   5.482  0.4468  0.4312 -0.3788
12280TIP3    H158331   2.112   1.085   5.401  0.7233  2.6787 -1.2115
12280TIP3    H258332   2.093   1.052   5.548 -0.8156 -2.0226 -2.3820
12281TIP3   OH258333   0.915   0.192   0.791  0.3957  0.0231  0.0618
12281TIP3    H158334   0.824   0.164   0.782 -0.0042  1.1844  0.3636
12281TIP3    H258335   0.916   0.282   0.759  1.9174 -0.7255 -2.0859
12282TIP3   OH258336   1.645   3.213  17.127 -0.1534 -0.3882  0.7403
12282TIP3    H158337   1.568   3.201  17.182  0.5864 -0.9140  1.6691
12282TIP3    H258338   1.609   3.227  17.039 -1.3720  1.0723  1.4340
12283TIP3   OH258339   1.010   6.734  11.691 -0.0700 -0.7999 -0.2192
12283TIP3    H158340   1.051   6.723  11.605  0.2452  1.5505 -0.4090
12283TIP3    H258341   1.038   6.821  11.720 -1.5046 -0.8867  1.5424
12284TIP3   OH258342   1.054   3.054  15.046 -0.1942  0.1404  0.0825
12284TIP3    H158343   1.123   3.120  15.035 -0.8572  0.7948 -0.2055
12284TIP3    H258344   1.059   3.001  14.966  0.9326 -0.7326  0.7151
12285TIP3   OH258345   3.498   3.231   3.353 -0.3961 -0.5094 -0.3201
12285TIP3    H158346   3.536   3.157   3.400 -1.4103 -0.5011  0.5269
12285TIP3    H258347   3.501   3.303   3.416 -1.4849 -0.4218 -0.3547
12286TIP3   OH258348   6.502   1.108   4.667  0.3024  0.2742 -0.2907
12286TIP3    H158349   6.474   1.033   4.615  2.7083  0.1136 -1.3980
12286TIP3    H258350   6.510   1.074   4.756 -0.2844 -0.3264 -0.4631
12287TIP3   OH258351   4.113   3.375   4.713 -0.8910  0.1656  0.0994
12287TIP3    H158352   4.095   3.342   4.625 -1.3040  1.9530 -0.4954
12287TIP3    H258353   4.058   3.452   4.722 -0.8175  0.0170  1.9213
12288TIP3   OH258354   3.199   3.651  17.225 -0.5564  0.9649 -0.5958
12288TIP3    H158355   3.282   3.604  17.233 -1.7046 -1.0532 -0.0899
12288TIP3    H258356   3.135   3.583  17.203 -2.2862  2.2934  0.2145
12289TIP3   OH258357   6.514   4.867  14.954  0.0212  0.2038  0.2327
12289TIP3    H158358   6.431   4.892  14.996 -0.8625  1.2867 -2.0663
12289TIP3    H258359   6.492   4.789  14.902  0.5065  0.3272 -0.1608
12290TIP3   OH258360   0.677   2.834  16.464  0.5742 -0.4205  0.1048
12290TIP3    H158361   0.596   2.788  16.483  0.7608 -0.2102  1.4537
12290TIP3    H258362   0.714   2.854  16.550  1.3882  0.6511 -0.4821
12291TIP3   OH258363   0.327   6.560  13.990 -0.1552 -0.0131  0.3726
12291TIP3    H158364   0.382   6.485  13.965  2.1406  1.8916 -0.5232
12291TIP3    H258365   0.330   6.562  14.085 -0.6165 -1.3148  0.4262
12292TIP3   OH258366   4.590   5.526  12.746  0.0835 -0.2105 -0.6539
12292TIP3    H158367   4.522   5.518  12.812  1.1753 -1.9788  0.2816
12292TIP3    H258368   4.642   5.602  12.773 -0.6379  0.2755 -0.6016
12293TIP3   OH258369   4.523   6.586  11.750  0.1197  0.2568  0.3749
12293TIP3    H158370   4.468   6.649  11.797 -0.9142 -2.4626  2.9509
12293TIP3    H258371   4.587   6.556  11.815  0.6988 -1.2083 -0.8350
12294TIP3   OH258372   1.893   1.946   1.298  0.0249  0.0281 -0.4025
12294TIP3    H158373   1.924   1.919   1.385 -0.1085 -1.5497 -0.8258
12294TIP3    H258374   1.804   1.910   1.292 -0.0925  0.4203 -1.0645
12295TIP3   OH258375   0.391   1.949  15.879 -0.0711 -0.0669 -0.1639
12295TIP3    H158376   0.306   1.905  15.888  0.3660 -0.9126 -0.0416
12295TIP3    H258377   0.386   2.023  15.939 -0.6995 -0.1619 -0.0926
12296TIP3   OH258378   6.210   5.127   4.537  0.5886 -0.9203 -0.2127
12296TIP3    H158379   6.240   5.069   4.467  2.5125  0.4260 -0.5585
12296TIP3    H258380   6.120   5.147   4.514  0.9398 -1.1407 -1.8889
12297TIP3   OH258381   3.930   1.533  12.006 -0.2980  0.6321  0.5219
12297TIP3    H158382   3.990   1.489  12.067  2.5059  0.1135 -2.4384
12297TIP3    H258383   3.863   1.468  11.988  0.9949 -0.6336  0.1342
12298TIP3   OH258384   6.156   3.952   4.107 -0.5742  0.2543  0.1492
12298TIP3    H158385   6.145   3.916   4.195  0.0028  1.7223  0.8382
12298TIP3    H258386   6.245   3.985   4.106 -0.7111  0.5939 -0.8617
12299TIP3   OH258387   4.745   3.874   0.767  0.1705  0.4019  0.3200
12299TIP3    H158388   4.782   3.937   0.705  0.3458  0.1261  0.1420
12299TIP3    H258389   4.668   3.839   0.721  0.7057 -0.3215 -0.0306
12300TIP3   OH258390   6.044   2.205   0.318  0.0291 -0.7764  0.0832
12300TIP3    H158391   6.003   2.119   0.327 -0.5366 -0.7482 -2.1586
12300TIP3    H258392   5.994   2.261   0.378 -0.9233 -1.5330  0.0094
12301TIP3   OH258393   5.086   4.958  16.867 -0.5227  0.1013  0.0621
12301TIP3    H158394   5.136   4.927  16.792  1.7892 -0.9889  1.9945
12301TIP3    H258395   5.030   4.884  16.892  0.2698 -0.2885  0.7058
12302TIP3   OH258396   0.934   6.467   3.225  0.0889 -0.4142 -0.2166
12302TIP3    H158397   0.854   6.497   3.182  1.0585 -0.7351 -2.2845
12302TIP3    H258398   0.971   6.546   3.264  0.1604  0.2320 -1.5638
12303TIP3   OH258399   4.464   3.036  11.698  0.5953 -0.5331  0.4878
12303TIP3    H158400   4.519   3.113  11.711 -2.3290  2.1677 -2.1061
12303TIP3    H258401   4.472   2.987  11.779  4.2214  1.3715  1.4116
12304TIP3   OH258402   2.108   2.454  11.086  0.0217  0.0017 -0.6517
12304TIP3    H158403   2.154   2.402  11.019 -0.0782  0.1584 -0.8430
12304TIP3    H258404   2.020   2.466  11.050 -1.0719 -2.6799  0.9421
12305TIP3   OH258405   1.584   1.752  10.930  0.3789 -0.0387 -0.1839
12305TIP3    H158406   1.649   1.706  10.876  1.6944 -0.3387  1.5734
12305TIP3    H258407   1.522   1.683  10.955  2.3104 -0.9653  2.3882
12306TIP3   OH258408   4.387   5.529  14.610 -0.7715  0.1670 -0.0502
12306TIP3    H158409   4.344   5.576  14.681 -2.2101 -0.9705 -0.1647
12306TIP3    H258410   4.458   5.481  14.652 -1.5705 -0.4453  0.6229
12307TIP3   OH258411   5.535   5.427   6.100 -0.2541  0.5325  0.2190
12307TIP3    H158412   5.541   5.412   6.194 -1.6577  1.0649  0.4075
12307TIP3    H258413   5.568   5.347   6.060  1.1128  0.6266  1.1622
12308TIP3   OH258414   2.462   3.439   2.193  0.2072  0.0462  0.0811
12308TIP3    H158415   2.503   3.524   2.207  0.9485 -0.1581 -0.8448
12308TIP3    H258416   2.516   3.377   2.243  0.0174  0.0219  0.2610
12309TIP3   OH258417   3.738   4.840   3.528  0.4076 -0.4135 -0.0588
12309TIP3    H158418   3.762   4.902   3.596  0.9022 -0.4722 -0.1817
12309TIP3    H258419   3.821   4.803   3.498  0.2435  0.0318 -1.0907
12310TIP3   OH258420   3.853   0.829  15.312 -0.0342  0.0700 -0.5783
12310TIP3    H158421   3.818   0.767  15.375  0.4868 -1.5351 -1.8355
12310TIP3    H258422   3.799   0.817  15.234 -0.3794  1.7066 -0.6197
12311TIP3   OH258423   6.153   3.403  13.969  0.2584  0.4781  0.1224
12311TIP3    H158424   6.168   3.308  13.971 -1.0715  0.2634  0.4902
12311TIP3    H258425   6.241   3.441  13.962  0.7622 -0.7955 -0.7709
12312TIP3   OH258426   1.413   5.545   5.278 -0.1368  0.4699  0.0979
12312TIP3    H158427   1.488   5.539   5.337 -0.6840 -0.9473  0.6737
12312TIP3    H258428   1.447   5.514   5.193  0.0423  0.2657  0.2433
12313TIP3   OH258429   1.671   1.782  13.175  0.3180 -0.0456 -0.2927
12313TIP3    H158430   1.609   1.808  13.243  0.7617 -2.0597  0.9570
12313TIP3    H258431   1.756   1.812  13.207  0.1377  1.9269 -1.5763
12314TIP3   OH258432   2.454   0.782  16.476 -0.0326 -0.1947  0.1434
12314TIP3    H158433   2.367   0.811  16.505  0.4750  1.5705 -0.0640
12314TIP3    H258434   2.484   0.851  16.417  1.8993 -0.3573  0.9216
12315TIP3   OH258435   1.791   2.278   1.955 -0.1313 -0.1920  0.2176
12315TIP3    H158436   1.853   2.262   1.885  0.1976  1.1573  0.1949
12315TIP3    H258437   1.783   2.193   2.000  1.5750 -0.4258  0.1123
12316TIP3   OH258438   3.172   4.570   0.469 -0.1433 -0.0389  0.8835
12316TIP3    H158439   3.128   4.639   0.421  0.8709 -0.3289 -0.5018
12316TIP3    H258440   3.203   4.612   0.550  1.1385  1.3263 -0.2967
12317TIP3   OH258441   1.323   0.003  16.541 -0.4236  0.0712 -0.1938
12317TIP3    H158442   1.260  -0.069  16.542 -1.1742  0.7398  0.8650
12317TIP3    H258443   1.358   0.003  16.452  0.1720 -2.1132  0.0150
12318TIP3   OH258444   3.826   1.023  16.523  0.7575 -0.1702 -0.5886
12318TIP3    H158445   3.897   0.965  16.494  1.3041  0.9378 -1.5076
12318TIP3    H258446   3.825   1.094  16.459 -0.5960  0.3023 -0.0728
12319TIP3   OH258447   5.569   6.498  15.793  0.3505  0.1672 -0.3497
12319TIP3    H158448   5.474   6.502  15.799  0.2300 -0.0152 -1.9375
12319TIP3    H258449   5.599   6.502  15.884 -1.1374  0.8936  0.1245
12320TIP3   OH258450   1.116   0.387   1.618  0.4038  0.4679  0.0830
12320TIP3    H158451   1.151   0.472   1.591 -0.7216  0.5612 -1.1468
12320TIP3    H258452   1.100   0.396   1.712  0.5944  1.5137  0.0179
12321TIP3   OH258453   0.309   1.220  11.991 -0.0342 -0.5026 -0.3949
12321TIP3    H158454   0.263   1.140  11.968 -0.9297  0.2031 -1.1346
12321TIP3    H258455   0.241   1.288  11.986  0.7531  0.3166  0.0353
12322TIP3   OH258456   1.240   5.563   1.445 -0.4759 -0.1042  0.3326
12322TIP3    H158457   1.190   5.482   1.437  0.2402 -0.3732 -1.4953
12322TIP3    H258458   1.324   5.537   1.483  0.3415 -0.4781 -1.6604
12323TIP3   OH258459   5.004   0.914  13.436 -0.2753 -0.2851 -0.1219
12323TIP3    H158460   5.080   0.895  13.490 -0.7269 -0.9510  0.2781
12323TIP3    H258461   5.014   0.858  13.359 -0.2030 -0.1470 -0.2133
12324TIP3   OH258462   3.636   4.160   1.926  0.1951 -0.6647 -0.2469
12324TIP3    H158463   3.676   4.109   1.997 -1.0861 -0.6217  0.5356
12324TIP3    H258464   3.688   4.240   1.922  0.2899 -0.6674  0.6605
12325TIP3   OH258465   5.072   2.857  16.797 -0.3867 -0.1453 -0.8748
12325TIP3    H158466   5.125   2.871  16.718 -0.8690  0.3071 -1.1193
12325TIP3    H258467   4.983   2.879  16.770 -0.5440  0.0710 -0.1768
12326TIP3   OH258468   2.684   1.832   4.075 -0.2090 -0.4386 -0.5123
12326TIP3    H158469   2.683   1.815   3.981  1.8601  1.0005 -0.8345
12326TIP3    H258470   2.708   1.924   4.083 -2.8425  0.1513  1.3897
12327TIP3   OH258471   1.013   3.895  15.377  0.2849  0.1631 -0.3818
12327TIP3    H158472   0.953   3.848  15.434  1.8246  0.2276  1.3825
12327TIP3    H258473   0.992   3.865  15.289 -1.3583 -0.8656  0.3322
12328TIP3   OH258474   3.979   1.381   4.558 -0.1185 -0.3129 -0.1115
12328TIP3    H158475   3.983   1.458   4.614 -0.4848  0.5426 -1.2331
12328TIP3    H258476   4.022   1.408   4.477 -1.3027 -0.8875 -0.9566
12329TIP3   OH258477   3.203   1.132  16.127 -0.5636 -0.2607  0.1014
12329TIP3    H158478   3.231   1.124  16.035  0.9323  1.1260  0.4075
12329TIP3    H258479   3.133   1.197  16.125  0.0554  0.4066  0.0478
12330TIP3   OH258480   3.304   0.177   3.789  0.5048 -0.3542 -0.4653
12330TIP3    H158481   3.311   0.179   3.693 -1.7638 -1.7744 -0.7035
12330TIP3    H258482   3.272   0.089   3.808  2.4560 -0.6175  1.7437
12331TIP3   OH258483   6.736   3.423   5.362 -0.3020 -0.4811  0.3932
12331TIP3    H158484   6.664   3.396   5.305  0.5020 -0.5112 -0.6326
12331TIP3    H258485   6.815   3.410   5.309  0.4851 -0.7002  1.5905
12332TIP3   OH258486   1.485   2.305  17.213 -0.3250  0.5269  0.0847
12332TIP3    H158487   1.552   2.358  17.169 -0.0067 -0.3663 -0.5255
12332TIP3    H258488   1.533   2.227  17.243 -0.6739  0.8161  1.4565
12333TIP3   OH258489   0.285   0.259  14.251  0.4540 -0.2021  0.3584
12333TIP3    H158490   0.281   0.165  14.267  0.0037 -0.4216 -1.0282
12333TIP3    H258491   0.347   0.292  14.317  2.0030 -1.7092 -0.3177
12334TIP3   OH258492   4.704   1.591   3.270  0.0273  0.3629  0.0401
12334TIP3    H158493   4.744   1.646   3.203 -0.4145 -0.4360 -0.9069
12334TIP3    H258494   4.771   1.525   3.290  0.0505  0.4246  0.1673
12335TIP3   OH258495   6.031   4.107   0.151 -0.5008  0.6234 -0.3241
12335TIP3    H158496   6.059   4.172   0.086  0.5904 -0.6074 -1.1183
12335TIP3    H258497   6.039   4.024   0.105  0.1252 -0.2516  1.3666
12336TIP3   OH258498   2.771   2.426  13.298  0.4184  0.0409  0.7416
12336TIP3    H158499   2.802   2.466  13.379  0.1318  0.5899  0.5827
12336TIP3    H258500   2.851   2.409  13.248  0.3781  3.2894 -0.5237
12337TIP3   OH258501   3.818   4.478  12.580  0.1462 -0.3840 -0.5206
12337TIP3    H158502   3.753   4.516  12.639  0.6795 -0.2989  0.0175
12337TIP3    H258503   3.831   4.388  12.612 -0.2278 -0.6344 -1.0584
12338TIP3   OH258504   5.580   1.741   6.324 -0.0870  0.0427  0.3812
12338TIP3    H158505   5.515   1.757   6.392  0.6216  0.4781  0.9618
12338TIP3    H258506   5.564   1.810   6.259  0.0690  0.4082  0.7280
12339TIP3   OH258507   2.008   1.491   6.734 -0.3726  0.6331 -0.0184
12339TIP3    H158508   2.086   1.479   6.680 -0.2079  0.3863  0.2688
12339TIP3    H258509   2.032   1.559   6.797  0.3128 -0.8602  1.3647
12340TIP3   OH258510   1.802   1.532  11.954  0.2215 -0.4138 -0.3448
12340TIP3    H158511   1.805   1.509  11.861 -1.4168  1.1097 -0.8136
12340TIP3    H258512   1.818   1.450  12.000 -0.5761 -1.5103 -1.9712
12341TIP3   OH258513   5.542   3.215   0.659  0.5924 -0.1182  0.0525
12341TIP3    H158514   5.478   3.258   0.602  0.1625 -2.0394 -0.9206
12341TIP3    H258515   5.508   3.228   0.747  0.6299  1.7977 -0.1954
12342TIP3   OH258516   2.149   5.584   3.893 -0.0713 -0.2261  0.0030
12342TIP3    H158517   2.149   5.582   3.797  1.7032  1.4618 -0.0613
12342TIP3    H258518   2.215   5.520   3.918  0.7969  0.6568  0.0216
12343TIP3   OH258519   5.364   0.136   3.240  0.0239  0.0915  0.0139
12343TIP3    H158520   5.332   0.201   3.177  0.3876  1.3448  1.1054
12343TIP3    H258521   5.448   0.108   3.203  0.1223  0.6418 -0.1934
12344TIP3   OH258522   2.749   1.902  17.234 -0.8408 -0.2450  0.3840
12344TIP3    H158523   2.734   1.940  17.321  1.2969 -0.6538  0.9686
12344TIP3    H258524   2.769   1.810  17.252 -2.2918 -0.7873 -0.7201
12345TIP3   OH258525   2.644   6.010   3.150 -0.1259 -0.1318 -0.4433
12345TIP3    H158526   2.560   6.052   3.166  1.3787  1.6311  3.5697
12345TIP3    H258527   2.695   6.076   3.101 -0.1955 -0.1465 -0.5351
12346TIP3   OH258528   4.008   0.053   4.584  0.3070 -0.1119 -0.0382
12346TIP3    H158529   4.041   0.127   4.534 -0.1354  0.1685  0.0825
12346TIP3    H258530   4.061  -0.022   4.555  1.4102  0.4367  0.5513
12347TIP3   OH258531   1.966   5.910  13.730 -0.0729 -0.1909 -0.0859
12347TIP3    H158532   1.954   5.848  13.658  1.7577 -1.1182  0.3766
12347TIP3    H258533   1.928   5.992  13.698  1.4629 -0.3523 -2.4322
12348TIP3   OH258534   1.694   6.120  13.139 -0.7896  0.6797  0.4254
12348TIP3    H158535   1.749   6.185  13.182 -0.2141  1.2256 -1.1202
12348TIP3    H258536   1.612   6.166  13.121  0.2666  1.5609 -2.3180
12349TIP3   OH258537   6.349   4.360   3.165  0.4357  0.3054 -0.1588
12349TIP3    H158538   6.316   4.378   3.078 -0.1933  0.4335  0.1047
12349TIP3    H258539   6.429   4.309   3.151 -0.6431 -1.2330 -0.7639
12350TIP3   OH258540   0.718   2.944  13.189  0.0366  0.3511  0.2070
12350TIP3    H158541   0.686   2.863  13.149  1.7611 -0.1849 -0.0959
12350TIP3    H258542   0.733   3.003  13.116  1.5688 -0.0552  0.1851
12351TIP3   OH258543   2.114   2.517  14.674  0.4027 -0.4351 -0.1698
12351TIP3    H158544   2.103   2.500  14.581  2.2827 -1.1192 -0.2881
12351TIP3    H258545   2.059   2.451  14.717 -0.5222 -0.0707 -0.7870
12352TIP3   OH258546   5.424   0.248   3.859  0.0706  0.8156  0.0731
12352TIP3    H158547   5.507   0.248   3.907 -0.6983  0.5697  1.4330
12352TIP3    H258548   5.434   0.318   3.794  1.9076 -0.2215 -0.7932
12353TIP3   OH258549   4.484   5.914  16.226  0.2269  0.5360  0.5068
12353TIP3    H158550   4.531   5.844  16.270  0.9373  1.5033  1.3327
12353TIP3    H258551   4.536   5.933  16.147  1.3104  1.6671  1.4673
12354TIP3   OH258552   3.118   5.363  15.166 -0.2999 -0.3887 -0.3805
12354TIP3    H158553   3.197   5.309  15.169 -0.9527 -1.2820  1.2024
12354TIP3    H258554   3.127   5.422  15.241 -0.2549  0.8079 -1.3020
12355TIP3   OH258555   2.922   1.087   2.663 -0.0124  0.3972  0.0271
12355TIP3    H158556   2.861   1.091   2.737  1.9696 -1.6242  1.8642
12355TIP3    H258557   2.922   0.995   2.637  0.0331  0.9177 -1.9080
12356TIP3   OH258558   2.952   4.576   4.121 -0.2624 -0.0310  0.1823
12356TIP3    H158559   2.939   4.660   4.077  0.2611  1.6697  3.1326
12356TIP3    H258560   3.040   4.548   4.096  0.1587  1.0801  0.3863
12357TIP3   OH258561   1.592   1.258  10.679 -0.3533  1.2374 -0.1827
12357TIP3    H158562   1.607   1.344  10.640 -0.8004  0.9116 -1.0818
12357TIP3    H258563   1.581   1.276  10.773 -0.9082  2.2164 -0.4294
12358TIP3   OH258564   0.255   6.083  12.934  0.6650  0.2329 -0.1166
12358TIP3    H158565   0.272   6.155  12.874  0.4674  0.2913 -0.1007
12358TIP3    H258566   0.292   6.112  13.017 -3.8873  2.4600  1.2464
12359TIP3   OH258567   3.909   3.860  17.075 -0.2834  0.1271  0.1941
12359TIP3    H158568   3.881   3.771  17.054  1.6509 -0.1306 -1.5251
12359TIP3    H258569   3.905   3.865  17.170  0.0687 -1.9693  0.3403
12360TIP3   OH258570   1.620   2.654  11.687 -0.2187  0.1651 -0.0061
12360TIP3    H158571   1.618   2.662  11.591 -0.1836 -1.6852 -0.1870
12360TIP3    H258572   1.527   2.645  11.711 -0.2552  0.9814  0.1833
12361TIP3   OH258573   5.533   0.665   1.119 -0.2262 -0.0664  0.5156
12361TIP3    H158574   5.445   0.634   1.137  0.6072 -0.5344  4.1896
12361TIP3    H258575   5.522   0.732   1.052 -3.1077 -1.5010 -0.5132
12362TIP3   OH258576   5.687   4.935   3.850  0.3293 -0.0554 -0.0936
12362TIP3    H158577   5.608   4.904   3.806 -0.7946  0.2679  1.6794
12362TIP3    H258578   5.730   4.856   3.880 -0.1866 -0.1511  0.4045
12363TIP3   OH258579   1.730   1.604   5.323  0.1435 -0.3294  0.7857
12363TIP3    H158580   1.815   1.647   5.334 -0.4966  1.5057 -1.0668
12363TIP3    H258581   1.668   1.676   5.311 -1.2309 -1.7276 -0.7777
12364TIP3   OH258582   6.710   1.750  10.490  0.5734  0.3237  0.1229
12364TIP3    H158583   6.730   1.657  10.478 -0.8594 -0.0124  0.2396
12364TIP3    H258584   6.647   1.770  10.421  0.9457  1.2364  0.0439
12365TIP3   OH258585   2.995   4.570   2.924  0.0864 -0.6872  0.3870
12365TIP3    H158586   2.973   4.477   2.918  0.7041 -0.8301  0.3724
12365TIP3    H258587   3.057   4.576   2.996  0.3445 -0.3355  0.1365
12366TIP3   OH258588   0.578   3.040  12.344 -0.2411 -0.2766  0.3475
12366TIP3    H158589   0.623   3.112  12.387 -0.2441  0.3343 -0.6478
12366TIP3    H258590   0.535   2.993  12.415 -0.3667  0.7905  0.9922
12367TIP3   OH258591   0.636   5.571   6.603  0.2727 -0.4432 -0.0627
12367TIP3    H158592   0.601   5.659   6.619  1.1573 -0.1716  0.4238
12367TIP3    H258593   0.571   5.529   6.547  0.5494  1.0418 -1.5337
12368TIP3   OH258594   2.931   3.020  16.936  0.2579  0.2716 -0.3536
12368TIP3    H158595   2.883   3.079  16.877 -0.8806  0.1144  0.4014
12368TIP3    H258596   2.883   3.025  17.019 -0.0822 -1.9918 -0.3901
12369TIP3   OH258597   5.921   2.035  12.462  0.4528 -0.3638 -0.2567
12369TIP3    H158598   5.836   2.029  12.417  0.4821  0.5102 -0.4289
12369TIP3    H258599   5.984   2.054  12.393  1.1924 -3.5241 -0.5134
12370TIP3   OH258600   5.967   0.019   2.420  0.2440 -0.0831 -0.2790
12370TIP3    H158601   5.894   0.080   2.413  0.5846  0.1561 -1.8959
12370TIP3    H258602   6.042   0.067   2.387  1.0713 -0.4757  0.9761
12371TIP3   OH258603   5.653   3.801  16.243  0.4291  0.2732  0.3248
12371TIP3    H158604   5.577   3.745  16.226  0.8252  0.0493 -0.7131
12371TIP3    H258605   5.704   3.752  16.308 -1.2636  1.3019  2.4829
12372TIP3   OH258606   3.495   5.525  14.516 -0.4819  0.3940 -0.3552
12372TIP3    H158607   3.562   5.575  14.563 -0.5250 -1.3575  1.6461
12372TIP3    H258608   3.528   5.435  14.516 -0.8830  0.2254 -2.9987
12373TIP3   OH258609   1.014   1.864  16.848 -0.4538 -0.1883  0.4464
12373TIP3    H158610   1.074   1.939  16.852 -1.9845  1.1975 -1.7283
12373TIP3    H258611   0.932   1.900  16.815 -0.9762 -2.9440 -1.4848
12374TIP3   OH258612   4.698   0.496   4.715 -0.3009  0.1106  0.5760
12374TIP3    H158613   4.623   0.439   4.731  0.3996 -0.7143  0.9434
12374TIP3    H258614   4.762   0.440   4.670 -0.5528  1.2497 -1.2692
12375TIP3   OH258615   4.193   1.545  14.486  0.9484 -0.4629  0.5523
12375TIP3    H158616   4.206   1.640  14.490  1.7803 -0.6506  2.5976
12375TIP3    H258617   4.183   1.526  14.392  0.8392  1.6263  0.1245
12376TIP3   OH258618   4.385   0.208   3.700 -0.2805 -0.2594 -0.2861
12376TIP3    H158619   4.302   0.160   3.696 -0.2253 -0.3134 -0.7856
12376TIP3    H258620   4.435   0.164   3.769  0.9144 -2.7478 -2.6396
12377TIP3   OH258621   4.647   4.528  13.004  0.7264  0.7172 -0.8740
12377TIP3    H158622   4.683   4.447  13.040 -0.5754 -0.3971 -1.9744
12377TIP3    H258623   4.683   4.533  12.915 -0.9310  0.1363 -1.6101
12378TIP3   OH258624   1.372   5.050  13.874 -0.0293 -0.0030  0.4240
12378TIP3    H158625   1.362   4.967  13.828  1.5256 -0.6358  1.2065
12378TIP3    H258626   1.306   5.107  13.835  1.0345 -0.6010 -2.3699
12379TIP3   OH258627   2.642   5.668  14.397  0.3860  0.0460  0.4421
12379TIP3    H158628   2.562   5.693  14.442 -0.3708  1.2689 -1.5260
12379TIP3    H258629   2.615   5.603  14.332  0.5209  2.3583 -1.9926
12380TIP3   OH258630   6.442   0.843  14.956 -0.8044 -0.6251 -0.1590
12380TIP3    H158631   6.460   0.888  14.873 -0.3822 -0.0563  0.2367
12380TIP3    H258632   6.472   0.904  15.023 -1.4658 -0.9334  0.4259
12381TIP3   OH258633   4.306   2.758   5.707  0.2301  0.5615 -0.3958
12381TIP3    H158634   4.308   2.840   5.659 -1.8469  0.3434 -0.9225
12381TIP3    H258635   4.244   2.703   5.658  0.9332 -1.0097  0.4271
12382TIP3   OH258636   4.022   0.851   2.648  0.2812 -0.2660  0.0991
12382TIP3    H158637   3.973   0.825   2.727  0.3573  1.1598  0.6323
12382TIP3    H258638   4.112   0.825   2.666  0.3030  0.0798  0.5037
12383TIP3   OH258639   3.725   1.356   2.054 -0.3451 -0.1883 -0.2596
12383TIP3    H158640   3.693   1.301   1.982  0.7091 -0.7441 -0.3094
12383TIP3    H258641   3.792   1.303   2.098  1.2307  1.3295 -0.7623
12384TIP3   OH258642   3.179   0.286  14.821  0.4527 -0.3843 -0.1457
12384TIP3    H158643   3.267   0.320  14.842  0.2343 -0.5542  1.1240
12384TIP3    H258644   3.119   0.353  14.856  0.0790 -0.1581 -1.2196
12385TIP3   OH258645   0.317   0.827   5.296 -0.2218  0.4858 -0.6355
12385TIP3    H158646   0.353   0.738   5.298 -1.2052  0.0950 -0.2793
12385TIP3    H258647   0.308   0.851   5.388  0.9073  1.3128 -0.7327
12386TIP3   OH258648   2.163   3.760   0.931 -0.4932  0.0100  0.7869
12386TIP3    H158649   2.129   3.850   0.927  0.1324  0.2826  1.4389
12386TIP3    H258650   2.171   3.733   0.840 -0.1308  0.8336  0.5668
12387TIP3   OH258651   1.954   3.109   4.485  0.1090 -0.2368  0.1217
12387TIP3    H158652   2.022   3.137   4.423  0.5552  0.1523  0.7857
12387TIP3    H258653   1.884   3.075   4.429  0.7308 -0.3832 -0.5815
12388TIP3   OH258654   2.928   0.556  16.908  0.2984 -0.3837 -0.2007
12388TIP3    H158655   2.917   0.564  16.813  2.2932  0.3332 -0.3860
12388TIP3    H258656   2.841   0.575  16.943 -0.4183 -0.4550 -1.8579
12389TIP3   OH258657   0.132   2.819  12.331  0.1280  0.0329 -0.0233
12389TIP3    H158658   0.225   2.808  12.313 -0.3284 -1.0772 -1.8624
12389TIP3    H258659   0.096   2.856  12.250 -0.8657  1.4635  1.0324
12390TIP3   OH258660   4.442   3.536   5.707 -0.5572 -0.7085 -0.1135
12390TIP3    H158661   4.487   3.487   5.775 -1.6387 -0.8903  0.4845
12390TIP3    H258662   4.428   3.622   5.745 -0.6307 -0.6249 -0.3308
12391TIP3   OH258663   0.111   0.776  14.690 -0.0604  0.1391 -0.4114
12391TIP3    H158664   0.106   0.681  14.687 -0.2645  0.1254  0.3641
12391TIP3    H258665   0.102   0.803  14.598 -0.4159 -0.5641 -0.5850
12392TIP3   OH258666   0.107   5.590  15.853  0.3056 -0.0132 -0.2800
12392TIP3    H158667   0.186   5.613  15.903  0.3449  0.0303 -0.3628
12392TIP3    H258668   0.037   5.641  15.894  0.1101 -0.8995  0.5245
12393TIP3   OH258669   0.118   3.006  16.974  0.5115 -0.6114  0.3946
12393TIP3    H158670   0.064   2.993  16.896 -0.2574  0.4284  0.7459
12393TIP3    H258671   0.206   3.022  16.940  0.1252  0.1084 -0.2828
12394TIP3   OH258672   3.651   4.043   5.874  0.3230 -0.0535 -0.2686
12394TIP3    H158673   3.699   4.110   5.826 -0.4105  0.4406 -0.3276
12394TIP3    H258674   3.599   3.998   5.807 -0.6107  0.5579  0.0259
12395TIP3   OH258675   5.105   0.438  17.237 -0.2108  0.4658 -0.1669
12395TIP3    H158676   5.044   0.480  17.177  0.8067  1.0631 -0.8077
12395TIP3    H258677   5.058   0.432  17.320 -2.5016 -2.4933 -1.5806
12396TIP3   OH258678   4.075   4.791   5.375 -0.1595  0.1182 -0.3231
12396TIP3    H158679   4.018   4.740   5.317 -0.7554  0.3451  0.0543
12396TIP3    H258680   4.053   4.760   5.463  0.8007 -0.2827 -0.2240
12397TIP3   OH258681   4.944   3.654  16.844  0.8790  0.4441 -0.4644
12397TIP3    H158682   4.956   3.653  16.939  0.5783  0.3984 -0.4282
12397TIP3    H258683   4.998   3.727  16.814 -1.7983  2.7536  0.0940
12398TIP3   OH258684   5.300   0.296  13.421 -0.5535 -0.2432  0.5393
12398TIP3    H158685   5.275   0.388  13.410  0.4759  0.0962  0.9523
12398TIP3    H258686   5.358   0.278  13.346 -1.4083 -0.7912  0.0094
12399TIP3   OH258687   6.314   4.707   1.886  0.1658 -0.2114  0.2128
12399TIP3    H158688   6.241   4.702   1.824  0.6771 -0.0974 -0.4076
12399TIP3    H258689   6.387   4.741   1.834  0.2994  0.9800  1.1552
12400TIP3   OH258690   1.489   1.327   4.651  0.4738  0.1748  0.3423
12400TIP3    H158691   1.581   1.332   4.677  0.3585 -1.4617  1.1296
12400TIP3    H258692   1.492   1.320   4.556  1.1460  0.4254  0.3395
12401TIP3   OH258693   3.599   3.548   4.535  0.1926 -0.1399  0.0801
12401TIP3    H158694   3.619   3.506   4.619 -1.0291  0.1385  0.5227
12401TIP3    H258695   3.655   3.502   4.472 -0.8308 -2.1890  0.6087
12402TIP3   OH258696   1.134   6.580  14.537 -0.0622 -0.4095 -0.0441
12402TIP3    H158697   1.121   6.489  14.563 -0.3612 -0.6910 -1.1590
12402TIP3    H258698   1.210   6.609  14.588  0.7628 -1.6469 -0.5455
12403TIP3   OH258699   2.414   4.768  14.545  0.8466  0.2892  0.2097
12403TIP3    H158700   2.399   4.821  14.467  1.8498  0.3376  0.0413
12403TIP3    H258701   2.478   4.702  14.517 -1.1172 -1.6556  0.1303
12404TIP3   OH258702   2.382   4.781   1.588  0.1622 -0.4009 -0.0291
12404TIP3    H158703   2.429   4.708   1.547  0.3930  0.7440 -1.8888
12404TIP3    H258704   2.349   4.832   1.514  0.4771  1.6924  1.2407
12405TIP3   OH258705   6.556   0.115  13.999  0.2259  0.4859  0.2365
12405TIP3    H158706   6.616   0.066  14.054 -1.7553  0.6328  2.5976
12405TIP3    H258707   6.542   0.198  14.044 -0.3241  1.2113 -1.2097
12406TIP3   OH258708   0.499   5.075   1.435  0.2670 -0.4100 -0.3791
12406TIP3    H158709   0.508   5.149   1.376  0.4488 -0.4463 -0.3969
12406TIP3    H258710   0.406   5.074   1.459  0.4699  0.4818  0.4675
12407TIP3   OH258711   1.175   5.135  13.651 -0.0250  0.3057  0.0656
12407TIP3    H158712   1.241   5.204  13.646  3.0489 -2.3641  1.6789
12407TIP3    H258713   1.173   5.098  13.563  2.3466 -1.0344  0.5308
12408TIP3   OH258714   4.119   1.793   2.916 -0.1201 -0.0827 -0.5868
12408TIP3    H158715   4.033   1.764   2.945  0.3329 -2.9028 -1.8942
12408TIP3    H258716   4.132   1.878   2.959 -2.8524 -0.3654  0.8764
12409TIP3   OH258717   6.081   3.429   4.823 -0.7404  0.6029 -0.2126
12409TIP3    H158718   6.099   3.522   4.836  0.4117  0.3456  0.0909
12409TIP3    H258719   6.097   3.414   4.730  0.6510  0.3836  0.0466
12410TIP3   OH258720   0.921   0.900  12.017 -0.4741 -0.0022 -0.7379
12410TIP3    H158721   0.942   0.891  12.110 -1.8640 -0.4066 -0.4513
12410TIP3    H258722   0.858   0.971  12.013 -2.2330 -1.5436 -1.0706
12411TIP3   OH258723   1.223   4.700   5.652  0.5480  0.1368 -0.7187
12411TIP3    H158724   1.213   4.613   5.690 -0.8564  0.8379  0.5643
12411TIP3    H258725   1.282   4.745   5.712  0.1435  0.5155 -0.6020
12412TIP3   OH258726   2.848   3.091   0.542 -0.0168  0.0944 -0.0290
12412TIP3    H158727   2.874   3.064   0.454  0.2619  1.2722 -0.3132
12412TIP3    H258728   2.887   3.026   0.600 -0.5729 -0.9409 -0.8023
12413TIP3   OH258729   5.283   2.575   0.687 -0.3666  0.4443  0.0934
12413TIP3    H158730   5.376   2.592   0.673 -0.2632 -1.3167 -1.5980
12413TIP3    H258731   5.241   2.659   0.671  0.8851  1.1244  0.2971
12414TIP3   OH258732   0.323   2.628  16.814 -0.0562 -0.6954 -0.1574
12414TIP3    H158733   0.404   2.600  16.855  0.5896  1.3836  0.0679
12414TIP3    H258734   0.341   2.625  16.720  0.1568 -0.5965 -0.1190
12415TIP3   OH258735   4.462   3.529  16.694  0.6796 -0.6956 -0.1879
12415TIP3    H158736   4.544   3.565  16.660  0.7719 -0.9623 -0.2548
12415TIP3    H258737   4.445   3.452  16.639 -0.1353 -0.0816 -0.8053
12416TIP3   OH258738   0.324   6.360   0.576 -0.1228  0.3596  0.4394
12416TIP3    H158739   0.401   6.410   0.549 -0.2092  1.0587  1.4616
12416TIP3    H258740   0.358   6.271   0.590  0.0182  0.0954 -1.4125
12417TIP3   OH258741   3.836   1.519   3.427  0.0625  0.5918 -0.4136
12417TIP3    H158742   3.801   1.597   3.385  3.1636  2.1841 -0.1520
12417TIP3    H258743   3.875   1.550   3.508 -0.1117 -1.4864  0.5020
12418TIP3   OH258744   5.478   1.387   2.883  0.0393 -0.5687 -0.2332
12418TIP3    H158745   5.516   1.468   2.916  0.8404 -0.2188 -1.9181
12418TIP3    H258746   5.440   1.344   2.959  2.4187 -0.1337  1.2236
12419TIP3   OH258747   3.551   3.821  15.631 -0.5291 -0.5695  0.0389
12419TIP3    H158748   3.548   3.875  15.710  4.6465 -0.7167  0.4849
12419TIP3    H258749   3.552   3.731  15.663 -0.8642 -0.7057 -0.3240
12420TIP3   OH258750   3.478   3.156  12.697  0.6828  0.0595 -0.8198
12420TIP3    H158751   3.543   3.143  12.766  0.8671 -1.0625 -1.1939
12420TIP3    H258752   3.527   3.145  12.616  0.7591  2.7635 -1.1695
12421TIP3   OH258753   3.614   3.518   0.594 -0.8638  0.0407 -0.1668
12421TIP3    H158754   3.625   3.423   0.590 -4.5118 -0.4786  0.0231
12421TIP3    H258755   3.619   3.539   0.687 -0.7655 -0.0588 -0.1491
12422TIP3   OH258756   6.680   4.292   4.222  0.2361  0.0363 -0.7845
12422TIP3    H158757   6.682   4.324   4.312 -2.2174 -0.9330 -0.3582
12422TIP3    H258758   6.773   4.286   4.197  0.8980  1.7201  1.1407
12423TIP3   OH258759   5.922   5.978   2.323 -0.3970 -0.2212 -0.1066
12423TIP3    H158760   5.939   5.914   2.392 -1.3254 -0.3744 -0.0164
12423TIP3    H258761   5.896   5.927   2.247 -3.4437  0.0973  0.6273
12424TIP3   OH258762   1.297   2.184  12.235 -0.2081 -0.0148 -0.6350
12424TIP3    H158763   1.377   2.132  12.242 -0.1651  0.1626  0.2363
12424TIP3    H258764   1.250   2.146  12.161 -0.2131 -1.3593  0.0425
12425TIP3   OH258765   6.298   3.807   1.736 -0.4911 -0.3583 -0.2112
12425TIP3    H158766   6.277   3.890   1.779  0.4006 -1.7094  2.9829
12425TIP3    H258767   6.270   3.820   1.645 -1.2467  3.0834  0.4172
12426TIP3   OH258768   6.517   3.473  14.028  0.0306 -0.1104  0.3564
12426TIP3    H158769   6.609   3.498  14.015 -0.1189  0.7370  0.8752
12426TIP3    H258770   6.473   3.505  13.949  0.0262  0.3111  0.5274
12427TIP3   OH258771   5.901   5.834   4.014 -0.2676  0.5252  0.2230
12427TIP3    H158772   5.836   5.842   3.944  0.5696 -0.6818 -0.7071
12427TIP3    H258773   5.928   5.924   4.032 -1.1639  0.9180 -0.3622
12428TIP3   OH258774   1.689   3.795  15.487  0.5337 -0.2383  0.3271
12428TIP3    H158775   1.611   3.778  15.540  0.8670 -0.7873  0.6495
12428TIP3    H258776   1.735   3.711  15.486  0.6211 -0.1795 -0.6796
12429TIP3   OH258777   4.274   1.987  13.772 -0.8206 -0.5248  0.1198
12429TIP3    H158778   4.258   1.927  13.844  1.0150 -1.1258  0.0584
12429TIP3    H258779   4.191   2.033  13.760 -1.7105 -1.7693  1.3442
12430TIP3   OH258780   1.085   2.703  12.041  0.0973  0.8122  0.3947
12430TIP3    H158781   1.177   2.676  12.035 -0.3860 -0.6526 -0.6593
12430TIP3    H258782   1.055   2.667  12.124  0.3178  0.7918  0.4662
12431TIP3   OH258783   4.126   0.203   1.528 -0.3596 -0.1637  0.2882
12431TIP3    H158784   4.034   0.223   1.508 -0.4939 -1.9003 -0.9326
12431TIP3    H258785   4.130   0.202   1.624 -1.4626  0.5736  0.3534
12432TIP3   OH258786   3.657   3.380   2.802  0.4964 -0.0101 -0.4785
12432TIP3    H158787   3.582   3.391   2.745 -0.1650  1.4678  0.6348
12432TIP3    H258788   3.687   3.290   2.786 -3.3888 -1.7412  1.3058
12433TIP3   OH258789   1.827   1.909   5.854 -0.2466 -0.1779 -0.7176
12433TIP3    H158790   1.815   1.896   5.948  0.5216  1.1454 -0.4312
12433TIP3    H258791   1.914   1.875   5.836 -0.7117 -1.1957 -1.1186
12434TIP3   OH258792   5.119   4.609   5.296 -0.7933 -0.2962 -0.5043
12434TIP3    H158793   5.128   4.549   5.371  0.4499 -1.6233 -1.6731
12434TIP3    H258794   5.154   4.692   5.327 -2.6178 -0.1302  1.1796
12435TIP3   OH258795   0.098   2.033   0.851  0.1590  0.7641  0.0240
12435TIP3    H158796   0.100   2.126   0.874 -0.4526  0.7087  0.3091
12435TIP3    H258797   0.163   1.993   0.910  1.1968  1.1576 -0.8243
12436TIP3   OH258798   6.443   5.223  13.116 -0.0925  0.4313  0.0724
12436TIP3    H158799   6.353   5.255  13.112 -0.4592 -0.4437  1.1522
12436TIP3    H258800   6.496   5.299  13.139 -0.6977  0.6921  0.5834
12437TIP3   OH258801   3.783   0.311   4.438  0.2965  0.3511 -0.5607
12437TIP3    H158802   3.761   0.283   4.527 -1.8744 -1.5657 -1.6213
12437TIP3    H258803   3.699   0.338   4.401  1.3105  1.8877 -1.7763
12438TIP3   OH258804   2.283   0.488  14.117  0.3519 -0.5917 -0.0586
12438TIP3    H158805   2.303   0.398  14.092  1.0106 -0.5004  0.1110
12438TIP3    H258806   2.369   0.530  14.124  0.0623 -0.0226  0.1218
12439TIP3   OH258807   6.805   3.921  10.998 -0.1372 -0.3690  0.1464
12439TIP3    H158808   6.864   3.852  10.969  0.6286  1.2883 -2.4360
12439TIP3    H258809   6.843   4.002  10.963 -1.9945  1.1582  1.5120
12440TIP3   OH258810   1.397   5.408  12.589  0.1215  0.3041 -0.3972
12440TIP3    H158811   1.353   5.363  12.517  1.1043 -0.1746 -0.7088
12440TIP3    H258812   1.474   5.447  12.548  1.5026 -1.2582  0.6884
12441TIP3   OH258813   0.978   4.101  15.617 -0.4155 -0.0220  0.0867
12441TIP3    H158814   0.892   4.142  15.612 -0.9260 -1.0152  0.4933
12441TIP3    H258815   0.973   4.027  15.557 -0.9884 -2.0613  2.5288
12442TIP3   OH258816   1.839   5.942   3.873  0.0620  0.1203 -0.4266
12442TIP3    H158817   1.751   5.942   3.911 -0.0452 -0.8351 -0.6422
12442TIP3    H258818   1.896   5.921   3.947 -0.2385 -2.7134 -0.9233
12443TIP3   OH258819   1.997   4.778   1.078 -0.4208  0.8342  0.0950
12443TIP3    H158820   2.028   4.864   1.050 -0.6058  1.2077  1.0335
12443TIP3    H258821   1.998   4.725   0.998  0.1942  1.5580 -0.3793
12444TIP3   OH258822   6.782   5.432   3.977 -0.0732  0.4254 -0.4141
12444TIP3    H158823   6.716   5.418   3.909  0.1680 -0.8853 -0.3776
12444TIP3    H258824   6.848   5.365   3.961 -0.4036 -0.4050  1.5972
12445TIP3   OH258825   5.314   6.641  12.250  0.4404  0.1920 -0.3342
12445TIP3    H158826   5.383   6.602  12.197  0.4204 -0.5004  0.1331
12445TIP3    H258827   5.241   6.579  12.244 -0.3671  1.2377 -1.3429
12446TIP3   OH258828   0.830   3.063  13.796  0.3284  0.5126 -0.1837
12446TIP3    H158829   0.791   2.993  13.744  0.7874  0.2581 -0.1908
12446TIP3    H258830   0.776   3.066  13.875 -0.2291  0.7459 -0.5724
12447TIP3   OH258831   4.511   6.196   2.758 -0.0791 -0.5405  0.0175
12447TIP3    H158832   4.453   6.271   2.770  3.4136  2.1047  1.3333
12447TIP3    H258833   4.520   6.159   2.846  1.1870 -0.1488  0.0620
12448TIP3   OH258834   5.625   2.843  13.784  0.1042 -0.1147  1.1254
12448TIP3    H158835   5.610   2.880  13.871  0.8299  0.2277  1.1112
12448TIP3    H258836   5.699   2.894  13.750 -1.7463  1.4791 -0.6750
12449TIP3   OH258837   0.228   2.385   5.219  0.7711  0.1810  0.4767
12449TIP3    H158838   0.229   2.291   5.237  0.5809  0.1389  0.2736
12449TIP3    H258839   0.212   2.391   5.125  1.5972  0.3974  0.3421
12450TIP3   OH258840   6.126   1.117  17.105  0.0485  0.2725  1.1799
12450TIP3    H158841   6.187   1.191  17.097 -0.2088  0.1485 -2.6757
12450TIP3    H258842   6.179   1.047  17.144  2.2286  0.4193 -1.3430
12451TIP3   OH258843   3.834   3.693  10.651 -0.2573 -0.1423 -0.6205
12451TIP3    H158844   3.883   3.611  10.642  2.5851  1.6373 -1.8091
12451TIP3    H258845   3.755   3.680  10.598 -0.0584 -2.2480 -0.4420
12452TIP3   OH258846   2.295   5.797   4.863 -0.5060  0.4235 -0.0306
12452TIP3    H158847   2.374   5.744   4.877 -0.0962  1.0280 -0.0447
12452TIP3    H258848   2.300   5.823   4.771 -0.7647  0.3940 -0.0515
12453TIP3   OH258849   1.774   2.228   1.452  0.1974  0.2175 -0.2116
12453TIP3    H158850   1.862   2.203   1.482  0.3787  1.6349  0.5098
12453TIP3    H258851   1.790   2.298   1.389 -0.4265  0.8545  0.3266
12454TIP3   OH258852   3.616   4.591  11.523  0.3044  0.1464  0.1372
12454TIP3    H158853   3.638   4.681  11.547  0.8157  0.1352 -0.2945
12454TIP3    H258854   3.584   4.552  11.604 -0.8806  1.0094  0.0971
12455TIP3   OH258855   5.220   6.119   1.631  0.1594  0.4201  0.0413
12455TIP3    H158856   5.212   6.093   1.540  0.6644 -3.1917  0.9278
12455TIP3    H258857   5.302   6.168   1.635  1.9123 -2.3410 -0.8892
12456TIP3   OH258858   2.140   5.346  12.511  0.0659 -0.2540  0.3507
12456TIP3    H158859   2.135   5.361  12.605  1.1340 -0.6548  0.4831
12456TIP3    H258860   2.137   5.433  12.472  0.1468 -0.0531  0.7904
12457TIP3   OH258861   2.951   3.600  13.510 -0.4154  0.1391  0.2408
12457TIP3    H158862   2.876   3.562  13.464 -0.0504 -0.7140  0.3357
12457TIP3    H258863   2.946   3.563  13.598 -0.9002  1.4818  0.7832
12458TIP3   OH258864   6.302   6.152   3.383 -0.2520  0.2230 -1.1446
12458TIP3    H158865   6.266   6.182   3.467  1.6876 -0.8559  0.1033
12458TIP3    H258866   6.241   6.187   3.318 -1.2764  1.8979  0.6360
12459TIP3   OH258867   1.027   0.901  12.261 -0.3519  0.3817 -0.0131
12459TIP3    H158868   1.026   0.809  12.289  0.4948  0.3698  0.0182
12459TIP3    H258869   0.955   0.942  12.309  0.0276 -0.0072  0.9102
12460TIP3   OH258870   6.257   6.513  11.327 -0.3426  0.1588 -0.0404
12460TIP3    H158871   6.334   6.526  11.271  1.6197 -0.6510  2.3691
12460TIP3    H258872   6.228   6.424  11.307 -2.3774  1.4135 -2.9432
12461TIP3   OH258873   3.493   1.836  16.566  0.4174 -1.0920  1.1715
12461TIP3    H158874   3.583   1.866  16.581  0.6701 -0.5063 -1.2355
12461TIP3    H258875   3.442   1.917  16.563  0.0832 -1.3168  0.8509
12462TIP3   OH258876   0.445   3.216  13.841 -0.0219  0.0590  0.1431
12462TIP3    H158877   0.433   3.186  13.931  1.5837 -0.7398  0.1026
12462TIP3    H258878   0.459   3.310  13.849 -0.3629  0.0636  0.6963
12463TIP3   OH258879   0.094   1.532   1.099 -0.1519 -0.2350 -0.0560
12463TIP3    H158880   0.016   1.496   1.056 -0.7593  0.2163  0.6686
12463TIP3    H258881   0.089   1.626   1.082  1.9672 -0.5570 -2.8292
12464TIP3   OH258882   1.284   6.151   1.658 -0.5314  0.1189  0.0559
12464TIP3    H158883   1.345   6.109   1.597  0.4755  1.9378 -0.2348
12464TIP3    H258884   1.326   6.142   1.744 -0.5518  0.1113  0.0651
12465TIP3   OH258885   2.396   3.856  17.121 -0.1912 -0.5957 -0.9706
12465TIP3    H158886   2.353   3.923  17.068 -0.7213  1.4822  2.0011
12465TIP3    H258887   2.486   3.887  17.131 -0.8170  0.4615  1.6285
12466TIP3   OH258888   3.687   1.607  12.567  0.0228 -0.3873  0.1630
12466TIP3    H158889   3.675   1.649  12.482  0.8086  0.0948  0.2899
12466TIP3    H258890   3.634   1.527  12.561 -4.5488  2.3475  1.2232
12467TIP3   OH258891   5.442   4.901  10.596 -0.0030 -0.5539 -0.3103
12467TIP3    H158892   5.506   4.830  10.591  2.0488  1.2678 -1.0012
12467TIP3    H258893   5.430   4.928  10.505 -0.0636  0.5667  0.0196
12468TIP3   OH258894   2.088   2.607   0.440 -0.0080 -0.6709  0.0808
12468TIP3    H158895   2.092   2.614   0.536 -0.9205  0.0089  0.0742
12468TIP3    H258896   2.051   2.690   0.411 -0.9203 -1.3537 -0.7794
12469TIP3   OH258897   5.958   4.984  15.892 -0.1050  0.3934  0.7556
12469TIP3    H158898   5.901   4.982  15.969 -1.9444  0.9404 -0.5597
12469TIP3    H258899   5.906   5.029  15.825  0.6896 -1.8049 -1.4074
12470TIP3   OH258900   5.715   1.946   1.471 -0.3154  0.8308 -0.0925
12470TIP3    H158901   5.791   2.003   1.460 -0.0735 -0.0861 -3.4603
12470TIP3    H258902   5.752   1.864   1.506  0.0729  0.8296 -0.5029
12471TIP3   OH258903   3.213   1.048  15.336 -0.3078 -0.2537  0.3788
12471TIP3    H158904   3.187   1.132  15.375  0.2018  0.0661  0.0317
12471TIP3    H258905   3.309   1.050  15.335 -0.2742 -1.1309  0.9965
12472TIP3   OH258906   1.584   0.125  15.472  0.1166 -0.3570 -0.2436
12472TIP3    H158907   1.492   0.130  15.499  0.0042 -1.8839 -0.2897
12472TIP3    H258908   1.606   0.214  15.446 -0.2307  0.8700  3.4109
12473TIP3   OH258909   2.117   3.957  15.846 -0.4497 -0.4236  0.6847
12473TIP3    H158910   2.041   4.012  15.866  1.3106  1.8555  1.1936
12473TIP3    H258911   2.163   3.948  15.929 -0.6773 -2.6941  0.6128
12474TIP3   OH258912   3.349   0.053   2.401 -0.0434  0.1279  0.8880
12474TIP3    H158913   3.365  -0.011   2.470  0.4046 -0.8762 -0.1365
12474TIP3    H258914   3.367   0.006   2.320  0.5018  1.6137  0.1270
12475TIP3   OH258915   0.104   6.578  16.155  0.0518 -0.0120  0.2552
12475TIP3    H158916   0.064   6.498  16.187 -0.9299  0.6286  0.6447
12475TIP3    H258917   0.185   6.549  16.112 -1.0378 -1.3432 -0.9138
12476TIP3   OH258918   2.756   0.086   5.223 -0.0391  0.4653  0.2012
12476TIP3    H158919   2.701   0.135   5.284 -0.6133 -0.9600  0.8559
12476TIP3    H258920   2.711   0.002   5.213  0.8101  0.1590 -1.0734
12477TIP3   OH258921   3.458   1.898   4.174 -0.1795 -0.2309 -0.0068
12477TIP3    H158922   3.483   1.892   4.081  2.8531 -2.5412  0.8534
12477TIP3    H258923   3.487   1.986   4.201  1.3328 -0.5064 -0.6530
12478TIP3   OH258924   1.459   2.237   4.854  0.2783  0.0711  0.1228
12478TIP3    H158925   1.522   2.257   4.785  0.3500  0.4621  0.3006
12478TIP3    H258926   1.404   2.315   4.860 -0.7120 -0.5550 -0.5546
12479TIP3   OH258927   1.457   5.765   0.305  0.5529  0.2401  0.0500
12479TIP3    H158928   1.376   5.787   0.351  0.0570  1.0261 -1.1620
12479TIP3    H258929   1.469   5.672   0.320 -0.9566 -0.0260 -0.3169
12480TIP3   OH258930   2.344   1.805  15.117  0.3731 -0.3312  0.1210
12480TIP3    H158931   2.257   1.788  15.080 -1.2073  3.3275  1.8607
12480TIP3    H258932   2.395   1.839  15.043  0.0845 -1.7698 -0.7416
12481TIP3   OH258933   1.628   4.308   2.176  0.4868 -0.8703 -0.0188
12481TIP3    H158934   1.623   4.401   2.198  0.0161 -1.2927  1.7709
12481TIP3    H258935   1.655   4.306   2.084 -2.4547  1.0896 -0.9908
12482TIP3   OH258936   0.770   3.766  12.512  0.5862 -0.1577 -0.5840
12482TIP3    H158937   0.852   3.810  12.491  1.2734 -1.1430 -0.0445
12482TIP3    H258938   0.771   3.687  12.458  0.6660 -0.8769  0.4408
12483TIP3   OH258939   2.987   4.675  13.991  0.4796  0.4730 -0.0588
12483TIP3    H158940   2.961   4.706  14.077 -0.9282 -0.0682 -0.2932
12483TIP3    H258941   3.007   4.582  14.003 -2.5021 -0.3139 -0.8849
12484TIP3   OH258942   6.116   2.960   4.573  0.1336  0.0911 -0.2175
12484TIP3    H158943   6.197   2.968   4.523 -0.4955  0.1903 -1.2492
12484TIP3    H258944   6.072   3.045   4.561 -0.4949 -0.2443 -0.3501
12485TIP3   OH258945   3.555   2.144   2.978  0.1323  0.2859 -0.3292
12485TIP3    H158946   3.598   2.072   2.932 -0.6981 -0.7720  0.5395
12485TIP3    H258947   3.466   2.147   2.941  0.1789  0.9109 -0.4046
12486TIP3   OH258948   5.714   0.005   2.275 -0.0672 -0.1347 -0.0444
12486TIP3    H158949   5.710  -0.002   2.180 -3.4305 -2.6452  0.1776
12486TIP3    H258950   5.676   0.091   2.295 -0.5625 -0.1539 -0.9024
12487TIP3   OH258951   6.352   3.369  12.827  0.7573 -0.1536 -0.0748
12487TIP3    H158952   6.428   3.424  12.847  0.5403  0.4562 -0.8942
12487TIP3    H258953   6.348   3.367  12.732 -1.1415  1.0568 -0.0403
12488TIP3   OH258954   2.449   3.109   2.932  0.0162  0.3740 -0.2910
12488TIP3    H158955   2.407   3.195   2.926 -0.3171  0.2923  0.7173
12488TIP3    H258956   2.405   3.056   2.865 -0.5876  0.6633 -0.1315
12489TIP3   OH258957   5.883   1.735  10.702 -0.2631  0.0921 -0.4676
12489TIP3    H158958   5.903   1.828  10.702 -0.4036  0.2315  3.4548
12489TIP3    H258959   5.788   1.730  10.694 -0.1474  0.1860 -2.0821
12490TIP3   OH258960   5.655   3.419   1.035 -0.5111 -0.4773  0.0907
12490TIP3    H158961   5.715   3.346   1.051  0.3460 -0.0902 -1.3205
12490TIP3    H258962   5.650   3.465   1.118  1.6648 -0.1211  0.0364
12491TIP3   OH258963   2.224   0.006   4.037 -0.2247 -0.4432  0.0890
12491TIP3    H158964   2.290   0.047   3.980 -0.6096 -0.0822 -0.1016
12491TIP3    H258965   2.144   0.006   3.985 -0.4411 -0.6398  0.4191
12492TIP3   OH258966   1.158   3.535   0.003 -0.3199  0.0302  0.0483
12492TIP3    H158967   1.082   3.491  -0.034 -0.7106  2.3445 -2.0348
12492TIP3    H258968   1.210   3.561  -0.073  2.4374 -1.2295  1.4062
12493TIP3   OH258969   1.457   5.197   3.861  0.0169  0.3526  0.0347
12493TIP3    H158970   1.431   5.117   3.815 -0.6536  0.7264 -0.2470
12493TIP3    H258971   1.510   5.166   3.935 -0.9004 -0.4127  0.3880
12494TIP3   OH258972   4.899   5.619  15.882 -0.3037 -0.2765  0.1263
12494TIP3    H158973   4.855   5.537  15.903 -1.2745  0.1598 -0.1336
12494TIP3    H258974   4.944   5.602  15.800 -0.7962 -0.4495 -0.1105
12495TIP3   OH258975   0.985   3.205  14.242 -0.1288  0.2379 -0.1662
12495TIP3    H158976   1.029   3.251  14.170 -1.1402  0.5023 -0.6337
12495TIP3    H258977   1.048   3.139  14.271 -0.0996 -0.5753 -2.0008
12496TIP3   OH258978   6.597   6.678  17.051 -0.1419 -0.0801  0.1651
12496TIP3    H158979   6.649   6.702  17.128 -2.0934  1.2561  1.1126
12496TIP3    H258980   6.562   6.592  17.072 -0.6580  0.2761  0.7755
12497TIP3   OH258981   1.188   1.614  15.597 -0.2042  0.7260 -0.9638
12497TIP3    H158982   1.105   1.615  15.551 -0.7346 -0.5346 -0.0477
12497TIP3    H258983   1.179   1.681  15.665 -0.3782  0.7668 -1.0291
12498TIP3   OH258984   0.761   6.184  12.123  0.0205 -0.3206  0.3035
12498TIP3    H158985   0.674   6.206  12.156  0.4360  1.1757  0.4242
12498TIP3    H258986   0.753   6.093  12.095 -0.8965 -0.9920  2.6407
12499TIP3   OH258987   3.841   1.829   3.415  0.2096  0.2218  0.5048
12499TIP3    H158988   3.876   1.918   3.424 -0.2037  0.6111 -1.4213
12499TIP3    H258989   3.901   1.786   3.354  0.3569 -0.7983  1.3619
12500TIP3   OH258990   3.310   3.416   5.876  0.0765  0.4410 -0.0986
12500TIP3    H158991   3.232   3.368   5.847  0.4418 -0.5593  0.5283
12500TIP3    H258992   3.372   3.406   5.804  1.2901 -2.7643  1.2639
12501TIP3   OH258993   0.964   1.187   6.050 -0.1938  0.2535 -0.0240
12501TIP3    H158994   1.039   1.244   6.069 -1.0304  1.9547 -1.6663
12501TIP3    H258995   0.996   1.127   5.983 -0.3146  1.0085 -0.7571
12502TIP3   OH258996   5.621   2.222  15.111  0.6655  0.6380  0.4504
12502TIP3    H158997   5.703   2.233  15.160  0.7603  1.7423  0.0482
12502TIP3    H258998   5.553   2.254  15.171  0.6069  0.4931  0.4625
12503TIP3   OH258999   4.866   6.130   1.093  0.2266 -0.2092  0.2580
12503TIP3    H159000   4.829   6.138   1.181 -0.4571 -0.1632 -0.0265
12503TIP3    H259001   4.822   6.053   1.056  1.2241 -0.8084  0.3003
12504TIP3   OH259002   0.618   2.927   1.526  0.0580  0.0889 -0.3202
12504TIP3    H159003   0.560   2.953   1.455 -0.2451  0.5656  0.0939
12504TIP3    H259004   0.706   2.938   1.491 -0.1005 -1.8219 -1.3671
12505TIP3   OH259005   3.364   1.911  13.795  0.5259  0.3291  0.0651
12505TIP3    H159006   3.326   1.940  13.712 -0.4698  0.6125  0.6126
12505TIP3    H259007   3.334   1.821  13.805 -1.2528  1.0114  1.2028
12506TIP3   OH259008   6.427   1.059  13.649 -0.1693 -0.0528  0.4205
12506TIP3    H159009   6.370   1.063  13.572 -1.0077 -0.1978  1.0304
12506TIP3    H259010   6.508   1.020  13.616 -0.0712  1.0395 -0.6556
12507TIP3   OH259011   6.310   4.168   2.796 -0.2824 -0.0261 -0.4352
12507TIP3    H159012   6.328   4.106   2.867  1.4679 -0.5067 -1.3006
12507TIP3    H259013   6.278   4.114   2.724  1.5523  0.0274 -1.3017
12508TIP3   OH259014   1.103   4.346   3.230  0.3571  0.0807  0.1250
12508TIP3    H159015   1.123   4.418   3.169  1.8546  1.7409  2.4974
12508TIP3    H259016   1.160   4.274   3.201 -1.3971 -0.3221 -2.4733
12509TIP3   OH259017   2.905   2.489  11.398 -0.5978  0.9325 -0.4087
12509TIP3    H159018   2.964   2.534  11.457 -0.6372 -0.7636  0.9634
12509TIP3    H259019   2.942   2.503  11.311  3.2892 -2.1477  0.5808
12510TIP3   OH259020   2.071   2.203   3.843  0.8664 -0.0145 -0.5676
12510TIP3    H159021   2.005   2.146   3.884 -0.7353 -0.2954 -3.4458
12510TIP3    H259022   2.093   2.267   3.912 -1.5052 -0.6608  0.8518
12511TIP3   OH259023   3.843   6.677   4.979 -0.5201 -0.0578  0.0513
12511TIP3    H159024   3.904   6.607   4.953 -0.7885  0.1567 -1.1487
12511TIP3    H259025   3.832   6.664   5.074  0.6228 -0.7039  0.1095
12512TIP3   OH259026   6.295   2.863  16.082 -0.7260  0.3677 -0.0754
12512TIP3    H159027   6.322   2.838  16.170  1.5757  0.2545 -0.7720
12512TIP3    H259028   6.232   2.796  16.056  0.3448 -0.9322  0.6226
12513TIP3   OH259029   1.506   6.326  17.283  0.2137 -0.2323 -0.3575
12513TIP3    H159030   1.416   6.310  17.255  1.0573 -1.3587 -2.5250
12513TIP3    H259031   1.560   6.272  17.225  2.2012 -0.8202  1.9550
12514TIP3   OH259032   6.173   0.635  16.029  0.2303  0.0481  0.0789
12514TIP3    H159033   6.170   0.544  16.059  0.7168  0.1683  0.4835
12514TIP3    H259034   6.262   0.648  15.999 -0.0903  0.1135 -0.8748
12515TIP3   OH259035   4.134   0.321   0.360  0.3213 -0.8700 -0.4252
12515TIP3    H159036   4.146   0.335   0.454 -0.5449 -0.3944 -0.3749
12515TIP3    H259037   4.040   0.330   0.346  0.6134  0.6223 -1.5886
12516TIP3   OH259038   5.817   2.167   4.961 -0.1557 -0.3287 -0.6758
12516TIP3    H159039   5.850   2.137   4.877 -0.2195 -0.2463 -0.7303
12516TIP3    H259040   5.844   2.259   4.966  0.6188 -0.5782 -0.2192
12517TIP3   OH259041   2.328   0.718   6.434 -0.0700  0.0523 -0.1023
12517TIP3    H159042   2.378   0.649   6.479  1.3126  0.4433 -0.9799
12517TIP3    H259043   2.386   0.746   6.363 -2.1738 -0.5298 -2.1153
12518TIP3   OH259044   4.655   2.900  12.789  0.1854  0.2419 -0.5721
12518TIP3    H159045   4.589   2.834  12.767  0.8184  0.0571 -1.9673
12518TIP3    H259046   4.655   2.960  12.714  2.9626 -0.8563 -1.5368
12519TIP3   OH259047   2.829   4.680   5.285 -0.4073  0.3394 -0.5810
12519TIP3    H159048   2.763   4.610   5.291 -1.5360  1.3830 -0.6804
12519TIP3    H259049   2.795   4.739   5.218  0.1052  1.4413  0.1276
12520TIP3   OH259050   5.259   6.469  14.032 -0.3050 -0.0021  0.0238
12520TIP3    H159051   5.237   6.558  14.005  2.2036 -0.1870 -2.9281
12520TIP3    H259052   5.215   6.413  13.968  1.8502 -0.6528 -0.9353
12521TIP3   OH259053   6.446   1.398  15.815 -1.0248 -0.7504  0.2802
12521TIP3    H159054   6.475   1.417  15.726  0.2959 -0.1144  0.8233
12521TIP3    H259055   6.501   1.324  15.843  1.0140  1.2682  1.7688
12522TIP3   OH259056   3.093   0.275  16.142  0.1676 -0.0063 -0.0703
12522TIP3    H159057   3.145   0.295  16.064  2.7767  0.1385  1.6558
12522TIP3    H259058   3.059   0.360  16.170  0.0247  0.0793 -0.4976
12523TIP3   OH259059   5.336   0.222  15.147 -0.1561  0.3634 -0.7607
12523TIP3    H159060   5.245   0.194  15.135 -0.1799  0.7103 -1.3911
12523TIP3    H259061   5.352   0.284  15.076  1.4515 -1.8317 -2.3625
12524TIP3   OH259062   0.794   6.049   5.718 -0.1326  0.2396 -0.2993
12524TIP3    H159063   0.759   6.138   5.718 -0.7359  0.0562  2.6782
12524TIP3    H259064   0.884   6.058   5.685 -0.0928  1.9944  0.2692
12525TIP3   OH259065   2.555   3.864   3.475  0.1473 -0.0764 -0.3281
12525TIP3    H159066   2.614   3.837   3.545  1.3962  1.4909 -0.7470
12525TIP3    H259067   2.503   3.935   3.512  1.8555  1.7843 -1.4184
12526TIP3   OH259068   4.021   4.853   6.468 -0.3803  0.0956 -0.8357
12526TIP3    H159069   3.985   4.939   6.489  0.2324  0.1457  0.0560
12526TIP3    H259070   3.951   4.791   6.492 -1.2914  0.4052 -2.6327
12527TIP3   OH259071   0.674   3.755  14.227 -0.3761  0.3614  0.1522
12527TIP3    H159072   0.743   3.807  14.187 -1.1344  0.6314 -0.8295
12527TIP3    H259073   0.652   3.801  14.308  0.7500  0.1486  0.5778
12528TIP3   OH259074   1.719   4.756   4.240  0.6678 -0.6447 -0.1664
12528TIP3    H159075   1.796   4.740   4.186  1.7998 -0.6101  1.4211
12528TIP3    H259076   1.701   4.672   4.282  0.6453 -0.3180  0.4866
12529TIP3   OH259077   0.294   6.583   0.802 -1.1873 -0.2334  0.1595
12529TIP3    H159078   0.347   6.650   0.761 -0.2065 -0.0591  1.6672
12529TIP3    H259079   0.237   6.631   0.862 -1.0769 -0.6708  0.6200
12530TIP3   OH259080   2.602   0.689  12.249  0.0441  0.1240  0.0514
12530TIP3    H159081   2.511   0.717  12.243  0.1817  0.9260  1.3513
12530TIP3    H259082   2.598   0.596  12.270 -0.4853  0.1606  0.1158
12531TIP3   OH259083   6.474   1.855  14.695 -0.0268  0.2357  0.0103
12531TIP3    H159084   6.457   1.869  14.601  0.4277  0.5895 -0.0166
12531TIP3    H259085   6.402   1.798  14.723 -1.7822  2.4095  0.0715
12532TIP3   OH259086   6.322   1.683   3.944 -0.0789  0.2126  0.9481
12532TIP3    H159087   6.238   1.699   3.987 -1.3233 -0.7893 -1.0439
12532TIP3    H259088   6.301   1.626   3.871  1.9678  1.8920 -1.0297
12533TIP3   OH259089   5.415   2.553  15.832  0.0134 -0.0458  0.6523
12533TIP3    H159090   5.447   2.641  15.815  0.6068 -0.2547  0.7054
12533TIP3    H259091   5.444   2.502  15.756 -2.3538  0.3198 -0.5628
12534TIP3   OH259092   0.558   4.723  13.683  0.0267  0.2548 -0.4165
12534TIP3    H159093   0.468   4.738  13.654 -1.1185 -0.1382  2.7503
12534TIP3    H259094   0.556   4.638  13.726  2.6038 -1.1233 -2.8805
12535TIP3   OH259095   1.126   1.026   4.189  0.4972 -0.2102  0.2515
12535TIP3    H159096   1.109   1.103   4.134 -0.4905 -0.4138  0.2463
12535TIP3    H259097   1.097   0.952   4.135  0.4845 -0.4956  0.6475
12536TIP3   OH259098   4.673   0.159  11.805  0.4238 -0.4491 -0.7258
12536TIP3    H159099   4.676   0.097  11.732 -0.2601  0.5818 -1.6510
12536TIP3    H259100   4.764   0.184  11.818  0.5769 -0.7862 -1.0984
12537TIP3   OH259101   3.879   2.815   5.765  0.3335  0.0032 -0.3005
12537TIP3    H159102   3.895   2.908   5.781 -2.8289  0.5432  0.0422
12537TIP3    H259103   3.939   2.769   5.824  2.3345  1.7693 -0.8923
12538TIP3   OH259104   1.249   3.708  14.505 -0.0792 -0.7893 -0.3581
12538TIP3    H159105   1.256   3.786  14.560 -1.3325 -0.7868 -0.1781
12538TIP3    H259106   1.296   3.731  14.425 -1.6174  0.6839 -0.8616
12539TIP3   OH259107   0.978   4.400   2.015 -0.3460 -0.2166  0.1845
12539TIP3    H159108   1.001   4.354   2.095 -1.1482 -0.5809  0.2070
12539TIP3    H259109   0.883   4.392   2.008 -0.2829 -0.2105 -0.8111
12540TIP3   OH259110   1.626   2.833  14.210  0.0870 -0.8109 -0.3104
12540TIP3    H159111   1.654   2.924  14.197  1.0661 -0.6436  2.6263
12540TIP3    H259112   1.643   2.791  14.126  1.3359  1.2847 -1.1513
12541TIP3   OH259113   5.490   3.660  10.707 -0.0085  0.6858 -0.3653
12541TIP3    H159114   5.461   3.657  10.798  0.0738  0.3694 -0.3493
12541TIP3    H259115   5.410   3.668  10.655 -0.1337 -0.3166 -0.3293
12542TIP3   OH259116   2.572   5.925  12.982  0.0829 -0.1419 -0.4972
12542TIP3    H159117   2.664   5.912  13.005  0.3816  1.4532 -0.7406
12542TIP3    H259118   2.569   5.920  12.887 -0.0342  0.0882 -0.5067
12543TIP3   OH259119   5.916   4.005  15.804  0.1014 -0.0490  0.7997
12543TIP3    H159120   5.942   4.095  15.822 -0.3220  0.1068  0.6432
12543TIP3    H259121   5.869   4.010  15.720 -0.6181 -0.2910  1.1853
12544TIP3   OH259122   3.226   4.209  15.931  0.3233 -0.4151 -0.0667
12544TIP3    H159123   3.180   4.134  15.892 -1.8169  0.8130  0.0225
12544TIP3    H259124   3.273   4.249  15.858  0.6696 -1.2633 -0.3107
12545TIP3   OH259125   6.280   4.480   3.709 -0.0898 -0.4347  0.0569
12545TIP3    H159126   6.220   4.539   3.756 -2.5402 -0.4897 -2.8302
12545TIP3    H259127   6.255   4.392   3.738 -0.1437 -0.3631  0.2315
12546TIP3   OH259128   1.613   5.175  13.951 -0.2446  0.1849 -0.0343
12546TIP3    H159129   1.530   5.129  13.943  0.9923 -1.7210 -2.4654
12546TIP3    H259130   1.618   5.231  13.873  0.9070  0.0122 -0.0937
12547TIP3   OH259131   6.302   6.448   2.000  0.5210 -0.2580 -0.2322
12547TIP3    H159132   6.240   6.498   2.052 -1.0172 -2.9336  0.5970
12547TIP3    H259133   6.386   6.493   2.014 -0.7548  1.9653  0.5647
12548TIP3   OH259134   4.162   2.056  14.420  0.1427 -0.3873 -0.0832
12548TIP3    H159135   4.103   2.049  14.495 -0.3359 -1.5036 -0.5430
12548TIP3    H259136   4.216   2.133  14.438  0.6400 -1.1551  1.8190
12549TIP3   OH259137   4.262   2.662   2.157  0.5187  0.0803 -0.6354
12549TIP3    H159138   4.210   2.660   2.238  1.9104  0.3681  0.2783
12549TIP3    H259139   4.287   2.754   2.147  0.8055 -0.0471 -1.1055
12550TIP3   OH259140   4.827   0.444  15.073  0.1451 -0.2058 -0.5203
12550TIP3    H159141   4.775   0.373  15.111 -0.1812 -0.8840 -2.1737
12550TIP3    H259142   4.779   0.469  14.994 -0.3436  2.6206  0.5776
12551TIP3   OH259143   0.519   1.317  16.945  0.5059 -0.4526  0.2277
12551TIP3    H159144   0.510   1.292  16.854 -1.5076  1.5488 -0.1578
12551TIP3    H259145   0.597   1.270  16.975  1.7723 -0.3967 -2.7742
12552TIP3   OH259146   0.777   5.578  15.716  0.2888  0.0448 -0.0976
12552TIP3    H159147   0.833   5.656  15.725  2.0105 -1.1393 -0.2361
12552TIP3    H259148   0.703   5.607  15.664  1.5334  1.2813 -1.2168
12553TIP3   OH259149   5.081   1.985  13.091  0.2297  0.2400 -0.1217
12553TIP3    H159150   5.033   2.052  13.141 -1.2410 -0.5344 -0.4720
12553TIP3    H259151   5.014   1.921  13.067  1.1564 -0.0466 -1.9980
12554TIP3   OH259152   3.709   3.374  15.234 -0.0653  0.6216 -0.6406
12554TIP3    H159153   3.695   3.362  15.140 -2.7749 -0.1287 -0.1943
12554TIP3    H259154   3.800   3.348  15.248  0.1455 -0.0388 -2.9251
12555TIP3   OH259155   0.694   4.804   5.544  0.3623  0.4546  0.1981
12555TIP3    H159156   0.723   4.833   5.630  1.0131  0.7704 -0.1287
12555TIP3    H259157   0.647   4.879   5.507  2.5957  1.3423 -0.9102
12556TIP3   OH259158   0.411   6.091  16.565  0.0099 -0.0021 -0.1744
12556TIP3    H159159   0.321   6.087  16.598 -0.1038  0.0887 -0.4736
12556TIP3    H259160   0.460   6.134  16.636 -0.5476  1.6792 -0.7770
12557TIP3   OH259161   3.130   1.106  12.285  0.3392 -0.3165 -0.8624
12557TIP3    H159162   3.119   1.118  12.191  0.5701  0.8736 -0.7514
12557TIP3    H259163   3.145   1.012  12.296  1.0185 -0.3656 -2.0771
12558TIP3   OH259164   3.750   1.709  14.128  0.3022 -0.5383 -0.5399
12558TIP3    H159165   3.844   1.728  14.131  0.1370  0.0948  1.8876
12558TIP3    H259166   3.709   1.784  14.171 -1.3700 -0.5666 -2.0453
12559TIP3   OH259167   2.065   5.017  16.013  0.1647  0.1668 -0.1876
12559TIP3    H159168   1.983   5.066  16.021  0.2928  0.6781 -1.8435
12559TIP3    H259169   2.112   5.060  15.941  0.1748 -2.5203 -1.8555
12560TIP3   OH259170   3.804   5.227   0.140 -0.2676 -0.4259  0.2575
12560TIP3    H159171   3.798   5.223   0.045 -0.4391  0.5587  0.2254
12560TIP3    H259172   3.895   5.252   0.157 -0.8485  1.7152  0.2845
12561TIP3   OH259173   6.642   0.861   3.607  0.3091  0.0167  0.6485
12561TIP3    H159174   6.721   0.868   3.553 -0.3552  0.9687 -0.2186
12561TIP3    H259175   6.570   0.855   3.544 -0.7109  3.6187  1.3476
12562TIP3   OH259176   5.092   4.626   6.273  0.1496  0.1687  0.3961
12562TIP3    H159177   5.093   4.721   6.271  0.5967  0.2295  2.1603
12562TIP3    H259178   5.002   4.602   6.249  0.1410  1.0059 -0.4437
12563TIP3   OH259179   2.987   1.002  14.667 -0.9318 -0.7906  0.3850
12563TIP3    H159180   3.006   0.974  14.757  0.3250 -0.9630  0.0854
12563TIP3    H259181   3.030   0.936  14.613  1.0490  1.0394 -0.3418
12564TIP3   OH259182   1.576   1.137  12.802 -0.0017  0.2541  0.3178
12564TIP3    H159183   1.509   1.077  12.834  1.4390 -1.3365  0.4249
12564TIP3    H259184   1.528   1.215  12.774 -1.8807 -0.9140  0.2783
12565TIP3   OH259185   0.423   2.986  12.567  0.3237 -0.3668  0.1209
12565TIP3    H159186   0.382   2.900  12.573  0.7224 -0.6127 -0.5815
12565TIP3    H259187   0.355   3.047  12.596  0.1984 -0.9557  1.0659
12566TIP3   OH259188   2.229   0.233   2.472  0.3896  0.0390  0.5668
12566TIP3    H159189   2.142   0.273   2.476 -0.2256 -1.2658  0.3301
12566TIP3    H259190   2.214   0.143   2.445  1.7678 -0.3703  1.0728
12567TIP3   OH259191   1.482   6.532   0.341 -0.6006  0.4342  0.0062
12567TIP3    H159192   1.413   6.583   0.384 -1.9825 -1.9800  0.7379
12567TIP3    H259193   1.550   6.523   0.407 -2.3510 -2.5346  1.4837
12568TIP3   OH259194   6.056   1.111   5.146 -0.7481  0.5872 -0.4442
12568TIP3    H159195   6.071   1.202   5.170  0.7605  1.0484 -3.0044
12568TIP3    H259196   6.093   1.061   5.219 -1.6243  1.9651  1.0004
12569TIP3   OH259197   6.214   5.395  13.065  0.3595 -0.0474  0.2201
12569TIP3    H159198   6.140   5.412  13.006  1.3076 -0.0578 -0.9857
12569TIP3    H259199   6.255   5.481  13.077 -0.2332  0.0785  1.4327
12570TIP3   OH259200   0.725   5.906  16.254 -0.2930 -0.0694  0.2141
12570TIP3    H159201   0.819   5.922  16.263 -0.3712  0.0696  0.7975
12570TIP3    H259202   0.714   5.817  16.287 -0.1626 -0.6098 -1.1473
12571TIP3   OH259203   0.342   4.040   5.932 -0.6283  0.9013  0.3645
12571TIP3    H159204   0.417   4.063   5.878  0.2514 -0.4476  0.9700
12571TIP3    H259205   0.345   4.100   6.006  1.9206 -1.3208  2.1860
12572TIP3   OH259206   4.919   4.033  10.589  0.1041 -0.0826 -0.3405
12572TIP3    H159207   4.958   4.113  10.554  1.1825 -0.8904 -0.9980
12572TIP3    H259208   4.981   3.964  10.567 -1.2826 -1.2639 -0.6331
12573TIP3   OH259209   2.737   6.749   2.726 -0.0444 -0.2043 -0.1156
12573TIP3    H159210   2.768   6.809   2.658 -2.1439  1.7746  0.6115
12573TIP3    H259211   2.655   6.787   2.756 -0.4842 -2.4765  1.6878
12574TIP3   OH259212   0.096   2.930  11.028 -0.0702 -0.2487  0.1610
12574TIP3    H159213   0.170   2.899  10.976  0.7680 -0.0396  1.2186
12574TIP3    H259214   0.025   2.939  10.964  0.6535 -0.9599 -0.7731
12575TIP3   OH259215   5.409   2.536  11.521 -0.5771  0.1908  0.5590
12575TIP3    H159216   5.468   2.576  11.584  0.7847 -0.2982 -0.3649
12575TIP3    H259217   5.432   2.443  11.523 -2.6426 -0.3167  1.5680
12576TIP3   OH259218   2.934   1.589   4.962 -0.1982  0.3465  0.2436
12576TIP3    H159219   3.029   1.584   4.973 -0.2266 -0.7774  0.0598
12576TIP3    H259220   2.923   1.632   4.877  0.2473 -2.6145 -1.4292
12577TIP3   OH259221   0.543   6.027   1.170 -0.1921 -0.6235 -0.0025
12577TIP3    H159222   0.496   6.092   1.223 -0.6318 -0.8806 -0.0714
12577TIP3    H259223   0.591   6.079   1.106 -0.5191 -0.3609 -0.0380
12578TIP3   OH259224   2.011   0.559   2.482  0.0522  0.4523  0.0413
12578TIP3    H159225   1.922   0.567   2.449 -0.7868 -3.0125  1.2371
12578TIP3    H259226   2.065   0.546   2.404 -0.7358  0.8098 -0.5644
12579TIP3   OH259227   6.079   1.466   0.258  0.2919 -0.1512  0.2579
12579TIP3    H159228   6.011   1.517   0.302 -1.6207 -0.1843 -2.5318
12579TIP3    H259229   6.030   1.397   0.212  2.1615  0.1706 -2.2616
12580TIP3   OH259230   4.426   4.251   1.546 -0.1962  0.0282  0.2370
12580TIP3    H159231   4.440   4.229   1.454  1.3737  1.3409  0.1335
12580TIP3    H259232   4.339   4.216   1.566 -0.2812 -0.8525 -1.5505
12581TIP3   OH259233   6.052   5.907  17.081  0.0338 -0.3441  0.5187
12581TIP3    H159234   6.070   5.908  16.987  0.5088 -0.4067  0.6113
12581TIP3    H259235   6.047   5.814  17.103  0.6229 -0.3362  0.6907
12582TIP3   OH259236   2.481   1.256   0.820 -0.6722 -0.2983  0.3643
12582TIP3    H159237   2.392   1.273   0.790 -0.8209 -1.1201  0.3285
12582TIP3    H259238   2.537   1.300   0.756 -1.0164 -1.2502 -0.6134
12583TIP3   OH259239   5.516   4.050  12.952 -0.1521 -0.2194 -0.0988
12583TIP3    H159240   5.591   3.993  12.935  0.2273  0.0710  0.5509
12583TIP3    H259241   5.466   4.050  12.871 -0.6742 -2.2349  0.2069
12584TIP3   OH259242   1.269   1.398  14.683  0.0551 -0.4310  0.1891
12584TIP3    H159243   1.343   1.446  14.722 -1.3621  0.9315  1.2599
12584TIP3    H259244   1.246   1.332  14.748  0.3980 -0.9235 -0.1881
12585TIP3   OH259245   1.374   6.250   2.677  0.6539 -0.7960 -0.0722
12585TIP3    H159246   1.336   6.210   2.755  0.0111  0.1257  0.0915
12585TIP3    H259247   1.469   6.247   2.692  0.5663 -1.3765  0.3621
12586TIP3   OH259248   2.818   0.511  15.470  0.0897  0.4326  0.7260
12586TIP3    H159249   2.790   0.454  15.398  0.7210  0.4741  0.4443
12586TIP3    H259250   2.810   0.600  15.435 -0.8575  0.5142  1.1498
12587TIP3   OH259251   5.573   3.197   6.556 -0.4792 -0.2477  0.5901
12587TIP3    H159252   5.501   3.137   6.576 -0.4138 -0.6493 -0.3655
12587TIP3    H259253   5.636   3.143   6.508 -0.0051  0.3667  0.5161
12588TIP3   OH259254   2.008   4.743   5.433  0.0690  0.0043  0.4300
12588TIP3    H159255   1.921   4.732   5.473 -0.7053  1.8130 -0.6727
12588TIP3    H259256   2.028   4.657   5.397 -1.9471 -0.0856 -0.5853
12589TIP3   OH259257   1.451   3.976  17.121 -0.1027  0.7020 -0.4731
12589TIP3    H159258   1.527   3.951  17.174 -0.1035  2.5233  0.4222
12589TIP3    H259259   1.376   3.954  17.176 -0.1740  0.4794 -0.6620
12590TIP3   OH259260   1.751   6.460  15.845  0.4020 -0.2961 -0.1416
12590TIP3    H159261   1.662   6.433  15.820 -0.6618  1.7822  1.2825
12590TIP3    H259262   1.759   6.549  15.812  1.6041 -0.1144  0.6232
12591TIP3   OH259263   3.623   6.617  12.630 -0.2420 -0.2582  0.6684
12591TIP3    H159264   3.675   6.596  12.707 -0.9852 -0.7012  1.0604
12591TIP3    H259265   3.540   6.649  12.665  0.0203  1.1300  0.0590
12592TIP3   OH259266   4.827   5.363   1.125 -0.1513  0.7521 -0.1191
12592TIP3    H159267   4.742   5.325   1.145 -0.3508  0.0659 -2.1077
12592TIP3    H259268   4.885   5.287   1.115  0.5597  1.1891  0.6399
12593TIP3   OH259269   5.668   5.973   5.332 -0.2902 -0.5665 -0.0322
12593TIP3    H159270   5.706   5.946   5.416  0.7992 -2.0390 -0.9634
12593TIP3    H259271   5.609   5.902   5.308 -0.5233 -0.2043 -0.5454
12594TIP3   OH259272   2.632   5.325   2.838 -0.0128  0.1248  0.2883
12594TIP3    H159273   2.596   5.397   2.787 -0.0899  0.5614  0.9499
12594TIP3    H259274   2.712   5.301   2.792 -0.0100  0.6096  0.0362
12595TIP3   OH259275   1.518   5.688   3.041 -0.0504 -0.2225  0.3951
12595TIP3    H159276   1.508   5.767   3.094  1.4382 -0.3111  0.8114
12595TIP3    H259277   1.523   5.721   2.951  1.6940  0.2575  0.6533
12596TIP3   OH259278   6.000   4.468  15.414 -0.1815  0.7268 -0.4136
12596TIP3    H159279   5.958   4.553  15.428 -1.0147  0.4640 -1.2320
12596TIP3    H259280   6.038   4.474  15.326  0.4444  0.5303 -0.1594
12597TIP3   OH259281   5.602   2.905  16.883  0.3241 -0.5096  0.1279
12597TIP3    H159282   5.576   2.849  16.810 -0.4915 -0.1829  0.1713
12597TIP3    H259283   5.693   2.928  16.864 -0.0980  0.1376 -1.1368
12598TIP3   OH259284   4.721   4.694  13.879  0.1085  0.6115  0.1438
12598TIP3    H159285   4.798   4.638  13.884 -0.4495 -0.1299  0.6198
12598TIP3    H259286   4.732   4.757  13.951 -1.8421 -2.2501  3.0951
12599TIP3   OH259287   1.483   1.260   3.019  0.3165  0.6377  0.4394
12599TIP3    H159288   1.435   1.198   2.963 -1.0159  0.1361  2.0965
12599TIP3    H259289   1.574   1.254   2.989 -0.4762  0.9951 -2.2242
12600TIP3   OH259290   0.245   6.447   3.769 -0.0056  0.2690  0.1049
12600TIP3    H159291   0.167   6.391   3.770 -0.5310  0.9639 -0.9629
12600TIP3    H259292   0.210   6.535   3.785  0.3434  0.8306 -2.1313
12601TIP3   OH259293   6.467   0.639  13.736 -0.2740  0.2739  0.3656
12601TIP3    H159294   6.434   0.681  13.815 -1.7897 -1.6487  0.7878
12601TIP3    H259295   6.562   0.655  13.738 -0.6088  2.2320  1.3414
12602TIP3   OH259296   5.150   2.999   3.367  0.2334  0.6189 -0.4309
12602TIP3    H159297   5.213   2.938   3.328 -1.5863 -1.4523 -0.1881
12602TIP3    H259298   5.121   3.053   3.294 -0.3297 -0.7376 -1.2182
12603TIP3   OH259299   1.935   1.726  16.789 -0.0769  0.4071 -0.5547
12603TIP3    H159300   1.872   1.767  16.847  0.5822 -0.4068  0.7672
12603TIP3    H259301   1.904   1.746  16.701 -1.4121  1.1618  0.0811
12604TIP3   OH259302   5.185   1.252  15.276  0.5839  0.3029 -0.3790
12604TIP3    H159303   5.194   1.343  15.302  0.3180  0.0833  0.4786
12604TIP3    H259304   5.091   1.239  15.266  0.6031  0.0457 -0.2284
12605TIP3   OH259305   4.449   3.734  12.995 -0.1104  0.0133 -0.1049
12605TIP3    H159306   4.526   3.767  13.040  2.1544  0.5009 -4.0881
12605TIP3    H259307   4.401   3.813  12.969 -0.4334 -0.1875 -0.1186
12606TIP3   OH259308   5.750   5.791   0.636 -0.0212 -0.2554 -0.6465
12606TIP3    H159309   5.711   5.848   0.570  1.1596  2.2370  0.7341
12606TIP3    H259310   5.829   5.757   0.595 -0.5489 -0.6202 -1.3566
12607TIP3   OH259311   4.253   0.166  10.410  0.5517 -0.0091 -0.5331
12607TIP3    H159312   4.322   0.104  10.386  0.5467 -0.2881  0.1475
12607TIP3    H259313   4.196   0.116  10.469 -0.5443  0.0442 -1.5261
12608TIP3   OH259314   1.539   0.063  11.943 -0.3890 -0.1723 -1.2419
12608TIP3    H159315   1.531   0.021  11.858  0.0332 -0.8662 -0.9448
12608TIP3    H259316   1.451   0.063  11.978 -0.4316 -0.6096 -1.3439
12609TIP3   OH259317   5.700   5.916   0.876  0.2206  0.1447 -0.5141
12609TIP3    H159318   5.767   5.907   0.944  0.3205 -0.8142 -0.7455
12609TIP3    H259319   5.718   5.846   0.814 -0.9583 -0.0758 -0.6122
12610TIP3   OH259320   6.144   2.625   1.467 -0.0266 -0.2847 -0.4371
12610TIP3    H159321   6.124   2.537   1.434  1.6008  0.1212 -2.6188
12610TIP3    H259322   6.078   2.681   1.426 -1.0575 -0.4615  0.9456
12611TIP3   OH259323   5.304   5.841  10.929  0.4777  0.1081 -0.3676
12611TIP3    H159324   5.281   5.926  10.893 -0.6156 -0.2720 -0.6008
12611TIP3    H259325   5.328   5.858  11.019  2.6583  0.9916 -1.0957
12612TIP3   OH259326   6.160   0.526   2.480  0.4161 -0.3480 -0.2520
12612TIP3    H159327   6.109   0.548   2.402 -0.4352 -1.6845 -0.0786
12612TIP3    H259328   6.246   0.503   2.446  0.7953  1.4304 -0.5838
12613TIP3   OH259329   2.943   1.266  10.895 -0.2127 -0.1082  0.0020
12613TIP3    H159330   2.983   1.308  10.818  2.3809 -2.6649 -0.1449
12613TIP3    H259331   2.999   1.292  10.968  0.0136 -1.3676  0.2813
12614TIP3   OH259332   3.710   3.832   5.219 -0.3264 -0.5403  0.0039
12614TIP3    H159333   3.657   3.808   5.142  1.8085 -0.9466 -1.4039
12614TIP3    H259334   3.713   3.752   5.272 -0.1044 -0.8936 -0.5346
12615TIP3   OH259335   0.905   4.329   3.837  0.2259  0.4207 -0.0010
12615TIP3    H159336   0.825   4.285   3.867 -0.1826  1.0952 -0.1052
12615TIP3    H259337   0.912   4.407   3.892  0.5554  0.6130 -0.3128
12616TIP3   OH259338   5.874   5.295   2.958 -0.2414 -0.6558 -0.0655
12616TIP3    H159339   5.859   5.326   2.868  0.4501  1.8634  0.6548
12616TIP3    H259340   5.923   5.213   2.947  1.8896  0.7961 -1.9544
12617TIP3   OH259341   5.946   3.537   6.159  0.3666  0.2147 -0.3741
12617TIP3    H159342   5.928   3.560   6.250 -0.3348  0.6120 -0.6139
12617TIP3    H259343   5.980   3.447   6.163 -1.0021 -0.2911  0.1440
12618TIP3   OH259344   5.785   3.168  15.550  0.2496  0.5754  0.1372
12618TIP3    H159345   5.834   3.153  15.631  0.6160  0.8091 -0.0363
12618TIP3    H259346   5.768   3.262  15.549 -0.8831  0.3770  0.5746
12619TIP3   OH259347   2.642   3.791   2.433 -0.2543 -0.1644 -0.1488
12619TIP3    H159348   2.565   3.747   2.467 -0.5282 -0.7071 -1.4546
12619TIP3    H259349   2.626   3.884   2.450 -0.3143 -0.4383  1.3234
12620TIP3   OH259350   1.398   6.431  14.268  0.3887  0.6579 -0.2921
12620TIP3    H159351   1.491   6.437  14.292  0.0657 -0.4173  1.2854
12620TIP3    H259352   1.373   6.342  14.291 -0.7655  0.5913 -1.7597
12621TIP3   OH259353   3.335   4.604  12.959 -0.5772 -0.2057  0.2397
12621TIP3    H159354   3.389   4.575  13.032  0.8148 -0.7446 -0.9904
12621TIP3    H259355   3.295   4.525  12.925  0.6375 -0.2861 -1.0483
12622TIP3   OH259356   6.806   1.650   5.745 -0.5627 -0.0270  0.6652
12622TIP3    H159357   6.893   1.670   5.780 -0.1037  3.1531 -1.9709
12622TIP3    H259358   6.760   1.735   5.745 -2.2417 -0.8823 -1.6195
12623TIP3   OH259359   1.230   4.114  13.854 -0.1374  0.1938  0.4347
12623TIP3    H159360   1.264   4.036  13.898  0.0662  0.5333  0.8810
12623TIP3    H259361   1.303   4.176  13.853 -0.8909  1.1499  1.9319
12624TIP3   OH259362   3.217   1.604  16.174 -0.2239  0.7845 -0.3439
12624TIP3    H159363   3.162   1.641  16.244 -0.0480  1.6331 -0.6526
12624TIP3    H259364   3.303   1.646  16.187 -0.0748  0.6173 -0.8084
12625TIP3   OH259365   1.035   4.429   5.158 -0.6459 -0.0743  0.0315
12625TIP3    H159366   0.993   4.507   5.194 -0.5961 -0.5469  1.1189
12625TIP3    H259367   0.961   4.372   5.133 -0.6687 -0.2144  0.4182
12626TIP3   OH259368   2.438   6.739  15.883 -0.1644 -0.6061  0.2159
12626TIP3    H159369   2.398   6.745  15.796 -0.0313  1.5985  0.2727
12626TIP3    H259370   2.471   6.828  15.900  0.3245 -1.1624  2.2706
12627TIP3   OH259371   5.080   3.540   2.627  0.1893  0.2307 -0.0698
12627TIP3    H159372   5.125   3.500   2.552  1.8816  3.2121 -0.7617
12627TIP3    H259373   5.024   3.607   2.588 -0.6806  0.2377  1.1780
12628TIP3   OH259374   5.611   3.188   2.390 -0.1564 -0.2913 -0.0264
12628TIP3    H159375   5.597   3.239   2.469  1.5319 -0.1278  0.1833
12628TIP3    H259376   5.702   3.159   2.396 -0.2056 -0.8080 -1.5875
12629TIP3   OH259377   1.109   4.332   4.476 -0.0111 -0.2184 -0.2117
12629TIP3    H159378   1.140   4.317   4.387  1.9971  1.4180  0.1780
12629TIP3    H259379   1.170   4.396   4.512 -3.9224  3.3085  0.5358
12630TIP3   OH259380   1.558   4.983   5.859  0.1673  0.3611  0.3074
12630TIP3    H159381   1.596   5.065   5.828 -0.0727  0.0616 -0.7851
12630TIP3    H259382   1.490   4.962   5.795 -0.9297  0.1930  1.5151
12631TIP3   OH259383   4.514   5.780  10.417  0.6614 -0.1151  0.2188
12631TIP3    H159384   4.604   5.775  10.385  1.6595  0.9521  2.7345
12631TIP3    H259385   4.478   5.693  10.401  2.2421 -0.6406 -0.5350
12632TIP3   OH259386   1.172   1.925   3.566  0.0054  0.6367 -0.0959
12632TIP3    H159387   1.185   1.831   3.553  0.7042  0.7713 -0.4298
12632TIP3    H259388   1.151   1.935   3.659 -2.2211 -0.0638 -0.4991
12633TIP3   OH259389   6.149   2.379   0.633  0.0645 -0.3288  0.0732
12633TIP3    H159390   6.174   2.458   0.585 -2.3433  0.0503 -0.6107
12633TIP3    H259391   6.224   2.362   0.691  2.2901  0.1846 -2.5150
12634TIP3   OH259392   4.828   3.803  17.205  0.6179  0.1732 -0.0176
12634TIP3    H159393   4.920   3.777  17.203  0.2455 -1.3225  1.7468
12634TIP3    H259394   4.789   3.752  17.275 -1.1870  2.0808  0.4382
12635TIP3   OH259395   1.539   6.650   2.076  0.2437 -0.3553  0.3641
12635TIP3    H159396   1.567   6.698   1.999  0.7303 -1.0758  0.0831
12635TIP3    H259397   1.571   6.701   2.150  0.4140 -0.0481  0.0751
12636TIP3   OH259398   6.492   1.280   6.271  0.4012  0.4817 -0.4553
12636TIP3    H159399   6.568   1.336   6.256  1.1621 -0.4576 -0.1272
12636TIP3    H259400   6.529   1.193   6.286 -0.7150  0.1306  0.2688
12637TIP3   OH259401   4.993   3.282  13.153  0.7605 -0.7237 -0.3709
12637TIP3    H159402   5.034   3.244  13.075  0.7525  0.1060 -0.7815
12637TIP3    H259403   4.926   3.218  13.177 -1.8047  0.7511 -3.2594
12638TIP3   OH259404   2.876   6.130   1.824  0.0503  0.6522 -0.2976
12638TIP3    H159405   2.806   6.084   1.871  1.0233 -1.9979 -1.3843
12638TIP3    H259406   2.829   6.192   1.767 -1.2870  0.7116  0.8330
12639TIP3   OH259407   3.351   1.228  15.124  0.1561 -0.1926 -0.0036
12639TIP3    H159408   3.331   1.314  15.162  0.3653  0.9396 -2.4126
12639TIP3    H259409   3.399   1.248  15.044  1.3906 -2.6077  0.0931
12640TIP3   OH259410   5.413   1.834  11.800  0.1223 -0.5559  0.1225
12640TIP3    H159411   5.465   1.756  11.823 -1.2253 -1.4297  0.2342
12640TIP3    H259412   5.353   1.845  11.874 -2.0538 -1.4690 -1.4944
12641TIP3   OH259413   0.243   5.060   1.515  0.4328 -0.8941 -0.3673
12641TIP3    H159414   0.191   5.139   1.500  0.2851 -0.9888 -0.3508
12641TIP3    H259415   0.178   4.993   1.536  0.8429 -0.1205  3.6286
12642TIP3   OH259416   5.153   5.768   5.707 -0.0491 -0.9629  0.0768
12642TIP3    H159417   5.076   5.748   5.654 -0.5436  1.2053 -0.0340
12642TIP3    H259418   5.138   5.719   5.789 -1.3076 -0.9327 -0.1228
12643TIP3   OH259419   1.166   2.592   2.990  0.7086 -0.3641 -0.3296
12643TIP3    H159420   1.208   2.610   2.906  2.3548  0.3713  0.6218
12643TIP3    H259421   1.198   2.505   3.014  1.5454  0.1119  0.3002
12644TIP3   OH259422   1.120   5.227  16.443  0.1332 -0.4479  0.0978
12644TIP3    H159423   1.173   5.153  16.412  0.0460 -0.6323  0.3835
12644TIP3    H259424   1.158   5.250  16.527  0.1722 -0.1538 -0.0033
12645TIP3   OH259425   2.242   4.579  14.981  0.1571 -0.3732 -0.0598
12645TIP3    H159426   2.216   4.559  14.891 -0.1511 -1.7718  0.3225
12645TIP3    H259427   2.168   4.629  15.016 -0.0707 -0.5105 -0.3371
12646TIP3   OH259428   3.921   5.676   1.086  0.0952 -0.1862  0.2265
12646TIP3    H159429   3.850   5.646   1.143 -0.3273  1.6684  0.7185
12646TIP3    H259430   3.894   5.649   0.998 -0.7194 -0.3861  0.5318
12647TIP3   OH259431   5.885   2.462  14.877 -0.0411 -1.0611 -0.2375
12647TIP3    H159432   5.980   2.469  14.882  0.0032 -1.4933 -0.4387
12647TIP3    H259433   5.862   2.514  14.800 -0.0912  0.0609  0.5214
12648TIP3   OH259434   6.233   4.327  13.780 -0.0015  0.4392 -0.0279
12648TIP3    H159435   6.238   4.253  13.839 -0.4504 -0.4729 -1.1096
12648TIP3    H259436   6.171   4.300  13.712 -0.0601  1.7378 -0.5206
12649TIP3   OH259437   5.414   0.976   3.238  0.5288 -0.4706  0.5476
12649TIP3    H159438   5.368   0.900   3.203  0.3650  0.1874 -0.6560
12649TIP3    H259439   5.393   0.976   3.332 -0.7689 -0.9778  0.2551
12650TIP3   OH259440   4.564   3.472  12.887 -0.5242 -0.6958 -0.3649
12650TIP3    H159441   4.527   3.558  12.906  1.3269  0.4850 -1.9209
12650TIP3    H259442   4.575   3.431  12.973 -1.7938  0.4520  0.3620
12651TIP3   OH259443   3.432   6.364   0.181  0.0308  0.0432 -0.1018
12651TIP3    H159444   3.452   6.273   0.203  0.2913  0.3171  0.8143
12651TIP3    H259445   3.489   6.384   0.106 -0.3332 -0.6688 -0.5795
12652TIP3   OH259446   0.046   6.361  10.816 -0.1117 -0.2657  0.4364
12652TIP3    H159447   0.085   6.347  10.729 -2.1828  1.1464 -0.7771
12652TIP3    H259448   0.113   6.410  10.864  0.8232 -0.5227 -0.5788
12653TIP3   OH259449   4.559   0.163   3.953 -0.2921 -0.7008 -0.4730
12653TIP3    H159450   4.588   0.255   3.952  1.4396 -1.2299 -2.5442
12653TIP3    H259451   4.636   0.114   3.979 -0.2909 -1.8345 -2.5425
12654TIP3   OH259452   2.867   5.668   4.330  0.4988  0.3451  0.1676
12654TIP3    H159453   2.890   5.742   4.275 -0.0482 -1.1454 -2.1422
12654TIP3    H259454   2.796   5.700   4.385  0.4974  1.6213 -0.5564
12655TIP3   OH259455   2.387   3.232  13.991 -0.5581 -0.3810  0.3780
12655TIP3    H159456   2.455   3.186  14.040  0.7030  1.0226  0.0122
12655TIP3    H259457   2.383   3.187  13.906  2.4286  1.6382 -0.9181
12656TIP3   OH259458   2.212   3.200   0.811  0.1638 -0.1462  0.7541
12656TIP3    H159459   2.265   3.191   0.890  0.0342  1.8713  1.1170
12656TIP3    H259460   2.253   3.272   0.764  0.3061 -1.4126 -1.0888
12657TIP3   OH259461   3.469   0.202  16.866  0.2144 -0.2793 -0.4725
12657TIP3    H159462   3.434   0.256  16.795 -1.7647 -0.8046  0.0711
12657TIP3    H259463   3.455   0.112  16.836  1.3045 -0.4994 -0.3321
12658TIP3   OH259464   3.005   3.232  15.337 -0.3206  0.3087 -0.0100
12658TIP3    H159465   3.004   3.243  15.242  0.9146  2.6105  0.2213
12658TIP3    H259466   3.095   3.210  15.358 -0.6661 -0.5405  0.6019
12659TIP3   OH259467   0.978   1.256   4.435 -0.0301 -0.7929  0.0372
12659TIP3    H159468   0.952   1.240   4.526  2.0023 -1.3031  0.5600
12659TIP3    H259469   1.073   1.266   4.439  0.0912 -0.9195 -2.0612
12660TIP3   OH259470   0.549   2.908  12.846  0.1019  0.0799  0.0770
12660TIP3    H159471   0.485   2.865  12.790  1.5802 -0.1028 -1.5105
12660TIP3    H259472   0.528   3.001  12.839  0.1786  0.0439 -0.6587
12661TIP3   OH259473   2.320   0.402   0.478 -0.3013  0.6425 -0.4071
12661TIP3    H159474   2.347   0.477   0.423 -0.3472  0.1527 -1.1069
12661TIP3    H259475   2.397   0.345   0.480 -0.5889  0.2452 -0.6751
12662TIP3   OH259476   5.949   0.992  10.602 -0.1424  0.1615 -0.0366
12662TIP3    H159477   6.000   0.913  10.584  0.0635  0.0842  0.8689
12662TIP3    H259478   6.005   1.043  10.661 -0.5229  0.7119 -0.1543
12663TIP3   OH259479   5.259   3.992   5.660  0.5359  0.0415 -0.4734
12663TIP3    H159480   5.346   3.952   5.659  0.3266 -0.4305 -0.1285
12663TIP3    H259481   5.215   3.949   5.733 -0.4505 -0.7148 -1.5001
12664TIP3   OH259482   3.680   5.397  13.634 -0.0824  0.3404 -0.2936
12664TIP3    H159483   3.656   5.311  13.669 -2.5507  0.4052 -1.6531
12664TIP3    H259484   3.655   5.459  13.702  2.3866 -0.0238  0.9998
12665TIP3   OH259485   4.214   1.797  14.348 -0.4575  0.3644  0.1732
12665TIP3    H159486   4.203   1.889  14.374  0.2371  0.6076 -0.3725
12665TIP3    H259487   4.143   1.781  14.286 -0.8626  0.3955  0.6250
12666TIP3   OH259488   4.568   6.507  14.359  0.1272  0.1613 -0.3946
12666TIP3    H159489   4.576   6.426  14.309  1.7050  0.2724 -0.3434
12666TIP3    H259490   4.647   6.557  14.337 -0.6212  1.4993 -0.0931
12667TIP3   OH259491   0.457   2.552  15.722 -0.1315 -0.4291 -0.4222
12667TIP3    H159492   0.552   2.544  15.708 -0.1323  0.2257 -0.7734
12667TIP3    H259493   0.420   2.555  15.634 -0.4096  0.2111 -0.2800
12668TIP3   OH259494   4.672   2.231  10.792  0.4912 -0.7931 -0.2057
12668TIP3    H159495   4.631   2.150  10.823  0.6083 -0.2926  1.2781
12668TIP3    H259496   4.668   2.290  10.867 -1.2339  1.2237 -1.8470
12669TIP3   OH259497   5.542   5.241   5.343 -0.6090  0.0300  0.0476
12669TIP3    H159498   5.519   5.333   5.328 -0.7893 -0.2875 -1.6749
12669TIP3    H259499   5.566   5.238   5.436  0.8445  2.1399 -0.2009
12670TIP3   OH259500   0.707   6.502   4.312 -0.2846 -0.0932 -0.1027
12670TIP3    H159501   0.707   6.454   4.229  1.1962 -0.2281 -0.0303
12670TIP3    H259502   0.639   6.568   4.301 -0.0494 -0.0621 -1.4648
12671TIP3   OH259503   1.292   1.595  14.945 -0.1933  0.1689 -0.2347
12671TIP3    H159504   1.377   1.552  14.935 -0.0573  0.6309 -1.0814
12671TIP3    H259505   1.230   1.524  14.960  0.5074 -0.0985  1.5193
12672TIP3   OH259506   2.431   1.749   4.485  0.2861  0.5303  0.0505
12672TIP3    H159507   2.344   1.756   4.524  0.0517  2.3191 -0.7732
12672TIP3    H259508   2.428   1.805   4.408  2.0067  0.1756 -0.2938
12673TIP3   OH259509   1.102   5.406  12.686  0.0007  0.2142  0.2250
12673TIP3    H159510   1.098   5.494  12.725 -0.1144  0.1630  0.3280
12673TIP3    H259511   1.146   5.353  12.753  2.3147  0.7380 -0.8157
12674TIP3   OH259512   2.219   1.370  12.140  0.1841 -0.7017  0.5830
12674TIP3    H159513   2.178   1.441  12.190 -1.0519 -0.7444 -0.3569
12674TIP3    H259514   2.196   1.291  12.189  0.3146 -0.6011  0.8103
12675TIP3   OH259515   3.153   0.796  11.105  0.9641  0.7832 -0.4303
12675TIP3    H159516   3.200   0.864  11.057 -1.4182  1.9552 -1.2339
12675TIP3    H259517   3.075   0.780  11.053 -0.2392 -0.0232  1.5568
12676TIP3   OH259518   6.648   0.205  15.840 -0.0517 -0.5714  0.1079
12676TIP3    H159519   6.682   0.293  15.852  0.4993 -0.4958 -1.8265
12676TIP3    H259520   6.651   0.190  15.745  0.6214 -2.9611  0.4609
12677TIP3   OH259521   4.971   5.879  11.847 -0.0300 -0.3156 -0.0283
12677TIP3    H159522   4.887   5.890  11.892  1.3964 -1.2387  2.9548
12677TIP3    H259523   4.947   5.850  11.759 -2.8663  0.6217  0.3771
12678TIP3   OH259524   6.215   2.652   1.934  0.1946  0.2405  0.0517
12678TIP3    H159525   6.157   2.606   1.873 -0.2566  1.4922 -0.4824
12678TIP3    H259526   6.246   2.728   1.885  1.1991  0.3397  0.8124
12679TIP3   OH259527   2.265   3.461  14.173  0.0052  0.5582  0.3660
12679TIP3    H159528   2.220   3.505  14.244 -0.7421  1.3249 -0.5836
12679TIP3    H259529   2.202   3.396  14.141  0.0257  0.7886 -0.1466
12680TIP3   OH259530   2.451   3.913  11.974  0.3023 -0.4547  0.5262
12680TIP3    H159531   2.414   3.990  11.930 -0.0798 -0.2980  1.1194
12680TIP3    H259532   2.428   3.840  11.918 -0.2355 -0.2605  0.4948
12681TIP3   OH259533   4.849   0.663  16.366 -0.0107  0.1062 -0.5349
12681TIP3    H159534   4.933   0.707  16.349  0.3773 -0.6791 -0.6913
12681TIP3    H259535   4.847   0.650  16.461  0.5210 -0.7862 -0.6361
12682TIP3   OH259536   1.410   6.320   6.465 -0.1839 -0.5742  0.0866
12682TIP3    H159537   1.493   6.334   6.511 -0.2943  1.1945 -0.2374
12682TIP3    H259538   1.344   6.322   6.535 -0.1452 -0.0575  0.1064
12683TIP3   OH259539   0.692   3.854   6.033 -0.0278  0.3760  0.2807
12683TIP3    H159540   0.767   3.810   6.074  0.1505  0.3975 -0.0218
12683TIP3    H259541   0.730   3.903   5.960 -0.3048  0.5793  0.2743
12684TIP3   OH259542   3.804   1.832   4.848  0.0532  0.0238  0.3189
12684TIP3    H159543   3.814   1.763   4.781  0.4723  1.8761 -1.5824
12684TIP3    H259544   3.710   1.847   4.853  0.0457  0.1300 -0.1178
12685TIP3   OH259545   4.480   0.714  14.046  0.0843  0.2112  0.1386
12685TIP3    H159546   4.464   0.784  13.983  0.4354 -0.1438 -0.3489
12685TIP3    H259547   4.515   0.642  13.994  0.7843  0.0615  0.7982
12686TIP3   OH259548   3.595   4.154  15.565  0.4628 -0.4653 -0.1082
12686TIP3    H159549   3.556   4.102  15.635 -1.2094 -0.2478 -0.8555
12686TIP3    H259550   3.617   4.238  15.607 -0.1419 -0.4888  0.2613
12687TIP3   OH259551   1.213   4.093   3.851 -0.7363  0.4486 -0.5156
12687TIP3    H159552   1.250   4.090   3.940 -2.8157 -1.8341  0.3211
12687TIP3    H259553   1.214   4.186   3.829 -0.1669  1.0730  1.9119
12688TIP3   OH259554   5.514   6.421   4.737 -0.1918 -0.0982 -0.0839
12688TIP3    H159555   5.460   6.457   4.667 -0.1581  1.2650  0.5631
12688TIP3    H259556   5.479   6.333   4.751 -0.1372 -0.4063 -1.8539
12689TIP3   OH259557   1.014   2.481   3.680 -0.2893  0.2557 -0.3379
12689TIP3    H159558   1.031   2.392   3.711  1.0347  0.5423 -0.2158
12689TIP3    H259559   1.004   2.472   3.585 -1.6215 -0.2210 -0.1692
12690TIP3   OH259560   3.136   1.733  15.206 -0.5713  0.0988  0.2876
12690TIP3    H159561   3.208   1.795  15.192 -0.1992 -0.2997  0.4198
12690TIP3    H259562   3.059   1.788  15.217  0.1736  0.6910  3.1449
12691TIP3   OH259563   2.125   1.522  16.844  0.4755 -0.2123  0.7247
12691TIP3    H159564   2.123   1.448  16.783 -0.7568  0.6192 -0.2525
12691TIP3    H259565   2.046   1.572  16.825  0.4689  0.4965  2.4793
12692TIP3   OH259566   3.521   5.166   1.381 -0.5335 -0.2105 -0.4246
12692TIP3    H159567   3.432   5.174   1.346 -0.1975  2.5557 -0.7158
12692TIP3    H259568   3.573   5.227   1.330  1.5840 -1.8507 -0.2989
12693TIP3   OH259569   4.596   3.564  10.985  0.2266 -0.0104  0.2380
12693TIP3    H159570   4.533   3.520  10.929  0.2501  0.8125 -0.4392
12693TIP3    H259571   4.678   3.562  10.936 -0.5215  3.7760 -1.3735
12694TIP3   OH259572   2.647   0.244   4.279  0.5632 -0.8157  0.2183
12694TIP3    H159573   2.703   0.282   4.347  2.5569  0.3005 -1.9548
12694TIP3    H259574   2.578   0.308   4.267  2.6186  1.1385 -1.7800
12695TIP3   OH259575   5.845   6.384  16.804  0.1027  0.3308  0.7547
12695TIP3    H159576   5.829   6.478  16.809  0.2333  0.3985 -0.0296
12695TIP3    H259577   5.874   6.369  16.714 -0.6058 -0.5643  0.6633
12696TIP3   OH259578   3.592   2.783  13.141  0.7153  0.7212  0.0212
12696TIP3    H159579   3.584   2.720  13.213  0.3569  0.7067 -0.0299
12696TIP3    H259580   3.678   2.764  13.103  0.6777  0.3693  0.1050
12697TIP3   OH259581   0.808   0.084   5.083 -0.0325 -0.3888  0.3032
12697TIP3    H159582   0.886   0.138   5.086 -0.8125  0.7555  0.3484
12697TIP3    H259583   0.743   0.137   5.037 -0.9609 -1.0787  0.7758
12698TIP3   OH259584   1.631   3.065   2.365  0.6088  0.6309 -0.1322
12698TIP3    H159585   1.660   2.999   2.301 -2.3589  0.1531 -1.0571
12698TIP3    H259586   1.662   3.031   2.449 -0.6752 -1.8977 -0.6145
12699TIP3   OH259587   5.739   4.186   0.125  0.1853  0.0284 -0.5780
12699TIP3    H159588   5.818   4.234   0.152  1.9806 -1.5766 -2.7551
12699TIP3    H259589   5.669   4.251   0.128  0.7246  0.5749  5.2627
12700TIP3   OH259590   6.461   5.745  11.358 -0.7702 -0.1199 -0.7251
12700TIP3    H159591   6.390   5.797  11.321 -1.2806 -0.7517 -0.6572
12700TIP3    H259592   6.525   5.737  11.287 -0.2633  1.3588 -0.4423
12701TIP3   OH259593   1.834   4.881   0.204  0.1704  0.4577  0.5108
12701TIP3    H159594   1.779   4.855   0.279  0.1553  1.3237  0.8109
12701TIP3    H259595   1.922   4.853   0.229 -0.1168 -0.8484  0.0717
12702TIP3   OH259596   3.888   2.405   4.065 -0.1154  0.0431 -0.7830
12702TIP3    H159597   3.914   2.429   4.154  0.4956  1.4031 -1.3068
12702TIP3    H259598   3.965   2.362   4.028 -0.1201  0.1179 -0.8808
12703TIP3   OH259599   2.102   1.204  15.311 -0.3327 -0.4097  0.2681
12703TIP3    H159600   2.064   1.138  15.368 -1.3746 -0.7458 -0.7861
12703TIP3    H259601   2.157   1.258  15.368  1.4190 -2.8449  0.9675
12704TIP3   OH259602   1.195   2.590  13.659 -0.0632  0.0039  0.1092
12704TIP3    H159603   1.216   2.518  13.719 -2.5161 -1.4888 -0.7175
12704TIP3    H259604   1.141   2.650  13.711  1.5270  0.9954  0.6400
12705TIP3   OH259605   0.648   3.855   2.706 -0.4559 -0.1807  0.3957
12705TIP3    H159606   0.601   3.931   2.671 -1.6734 -1.2717 -0.3892
12705TIP3    H259607   0.738   3.866   2.675 -0.4793  1.2466  0.8021
12706TIP3   OH259608   0.989   3.061   2.119 -0.1149 -0.4831 -0.4104
12706TIP3    H159609   0.920   3.105   2.070  0.2725 -0.4792 -0.9550
12706TIP3    H259610   1.064   3.060   2.059  0.0270 -1.4380 -0.2197
12707TIP3   OH259611   5.320   4.389  16.234 -0.4581  0.1588 -0.2850
12707TIP3    H159612   5.274   4.470  16.257 -0.4176  0.3637 -0.9012
12707TIP3    H259613   5.307   4.381  16.139  0.1200 -0.1891 -0.3370
12708TIP3   OH259614   5.278   3.578   3.281 -0.5378  0.3465  0.0326
12708TIP3    H159615   5.284   3.627   3.364 -0.6383 -0.5718  0.5846
12708TIP3    H259616   5.192   3.535   3.286 -0.7128  0.6054 -0.7303
12709TIP3   OH259617   4.384   0.110  16.986 -0.1529 -0.2833  0.1634
12709TIP3    H159618   4.430   0.028  16.968 -0.0831 -0.5696  1.5623
12709TIP3    H259619   4.347   0.137  16.902 -0.3891 -1.8836 -0.2506
12710TIP3   OH259620   3.563   5.380  16.404  0.0846 -0.2415 -0.0690
12710TIP3    H159621   3.599   5.441  16.468 -0.4332 -1.1280  1.0807
12710TIP3    H259622   3.611   5.399  16.323 -0.0531  1.6593  0.2804
12711TIP3   OH259623   3.228   3.278   2.818  0.0400 -0.9701  0.3516
12711TIP3    H159624   3.190   3.347   2.763  0.9045  0.1936  1.1826
12711TIP3    H259625   3.286   3.230   2.760  3.1517  2.0171  0.8185
12712TIP3   OH259626   3.916   1.319  14.279 -0.2159  0.4885  0.1129
12712TIP3    H159627   3.854   1.276  14.220 -3.4026  1.4936  2.6182
12712TIP3    H259628   3.954   1.247  14.330  0.1352 -0.0352 -0.8624
12713TIP3   OH259629   3.771   0.512  14.532 -0.0596 -0.8415  0.0283
12713TIP3    H159630   3.789   0.422  14.505 -2.3328 -0.5741 -2.6171
12713TIP3    H259631   3.676   0.515  14.541  0.3141  0.1302  4.6609
12714TIP3   OH259632   1.144   5.596  15.786 -0.4117 -0.1186 -0.0493
12714TIP3    H159633   1.082   5.636  15.846 -0.5301  0.6247 -0.6554
12714TIP3    H259634   1.225   5.586  15.836 -0.6666  0.0067  0.3853
12715TIP3   OH259635   0.689   4.072  15.210 -0.2404  0.5683 -0.0530
12715TIP3    H159636   0.686   4.077  15.115 -0.5966  0.4572 -0.0480
12715TIP3    H259637   0.687   3.978  15.229 -0.4276  0.5977  0.0722
12716TIP3   OH259638   3.238   5.851  14.475  0.2637 -0.0204  0.1223
12716TIP3    H159639   3.229   5.849  14.571 -2.2058 -1.7051 -0.1079
12716TIP3    H259640   3.333   5.846  14.460  0.7736  1.5577  2.4805
12717TIP3   OH259641   3.745   4.297   0.748  0.4667  0.0693 -0.0245
12717TIP3    H159642   3.688   4.307   0.672  1.0498  1.4578 -0.2924
12717TIP3    H259643   3.744   4.203   0.767  0.4013 -0.2926 -1.7943
12718TIP3   OH259644   4.403   1.847  14.020 -0.3144 -0.5055 -0.0653
12718TIP3    H159645   4.360   1.895  14.091 -1.4706 -0.2082 -0.9540
12718TIP3    H259646   4.367   1.758  14.025 -1.2125 -0.2035 -0.9353
12719TIP3   OH259647   4.538   2.328  13.694  0.1784 -0.7116 -0.2785
12719TIP3    H159648   4.514   2.409  13.740 -2.7123 -2.8761  2.1832
12719TIP3    H259649   4.634   2.326  13.698  0.2596  2.0685  0.4960
12720TIP3   OH259650   4.632   4.653   0.636 -0.3743  0.0985 -0.3184
12720TIP3    H159651   4.710   4.706   0.620 -1.1055  1.6707  1.1210
12720TIP3    H259652   4.591   4.643   0.550  0.7472  0.3252 -0.8869
12721TIP3   OH259653   0.961   1.778   1.297  0.3029 -0.0043 -0.2091
12721TIP3    H159654   0.874   1.768   1.335  0.1272  0.3690 -0.5127
12721TIP3    H259655   1.004   1.844   1.353  1.4161 -2.2680  1.7139
12722TIP3   OH259656   4.766   1.710  15.816  0.3201  0.3651  0.2272
12722TIP3    H159657   4.787   1.762  15.893  2.9661 -1.9580  1.1671
12722TIP3    H259658   4.809   1.626  15.832 -4.2482 -2.3809 -0.9287
12723TIP3   OH259659   0.412   4.930   5.547  0.1974  0.1970 -0.3384
12723TIP3    H159660   0.485   4.990   5.530 -1.0148  1.5019 -1.0725
12723TIP3    H259661   0.382   4.904   5.460  0.1812 -0.8309 -0.0321
12724TIP3   OH259662   5.828   3.283   0.697 -0.2447 -0.1062  0.1849
12724TIP3    H159663   5.890   3.274   0.624  1.1874  0.1310  1.3398
12724TIP3    H259664   5.742   3.281   0.656  0.5519  0.4068 -1.5492
12725TIP3   OH259665   1.524   2.503  12.817  0.5071  0.5194  0.1961
12725TIP3    H159666   1.440   2.463  12.798  1.5913 -1.5762 -0.2879
12725TIP3    H259667   1.569   2.508  12.733  1.7736 -0.5254  0.7830
12726TIP3   OH259668   4.642   5.549   5.466 -0.3030  0.1671 -0.2190
12726TIP3    H159669   4.577   5.491   5.426  0.7025 -1.0611 -0.1100
12726TIP3    H259670   4.648   5.520   5.557  0.0359  0.5890 -0.1032
12727TIP3   OH259671   1.697   2.925  15.127 -0.2635 -0.0521  0.8680
12727TIP3    H159672   1.606   2.905  15.107 -0.1816  0.3332  0.1164
12727TIP3    H259673   1.747   2.860  15.078 -0.1047  0.2174  0.6743
12728TIP3   OH259674   3.089   1.485  15.402 -0.3595 -0.4708  0.0818
12728TIP3    H159675   3.155   1.539  15.358 -0.1609 -1.6291 -1.0691
12728TIP3    H259676   3.061   1.538  15.477  0.1701  1.0256 -0.7546
12729TIP3   OH259677   2.471   4.239   6.448 -0.0539  0.6922 -0.0917
12729TIP3    H159678   2.458   4.176   6.519 -0.9042  0.7270 -0.2158
12729TIP3    H259679   2.487   4.322   6.492  0.4176  0.5179  0.0675
12730TIP3   OH259680   6.251   1.404   1.125  0.0229  0.0050  0.1779
12730TIP3    H159681   6.344   1.382   1.133 -0.4077 -1.4321  1.7785
12730TIP3    H259682   6.215   1.385   1.212 -2.0693 -0.9950 -0.8609
12731TIP3   OH259683   3.052   0.061  13.834 -0.5392 -0.4200  0.0372
12731TIP3    H159684   3.010   0.060  13.748 -1.2954  0.5815  0.3872
12731TIP3    H259685   3.034  -0.026  13.871  0.2318 -1.0388 -1.0174
12732TIP3   OH259686   1.928   1.383   0.491 -0.0254  0.6292  0.4704
12732TIP3    H159687   1.980   1.365   0.413  0.8578  0.0776  1.1726
12732TIP3    H259688   1.871   1.307   0.501 -0.8920  1.1794 -0.2312
12733TIP3   OH259689   6.660   4.029  11.944 -0.5032  0.7147 -0.0255
12733TIP3    H159690   6.662   4.077  12.026  0.6583 -0.2066  0.5029
12733TIP3    H259691   6.699   3.944  11.965 -1.0498  0.1336 -1.3097
12734TIP3   OH259692   6.240   2.910   3.292  0.3583  0.2900 -0.3335
12734TIP3    H159693   6.217   2.917   3.199  0.2713 -1.3146 -0.4572
12734TIP3    H259694   6.334   2.892   3.291  0.8393  2.6655  0.0013
12735TIP3   OH259695   6.567   6.372   5.837  0.5581 -0.3159 -0.5459
12735TIP3    H159696   6.517   6.340   5.912  0.0891 -2.0679 -1.5837
12735TIP3    H259697   6.567   6.468   5.847  0.2577 -0.5223  1.5087
12736TIP3   OH259698   4.676   2.155  12.528  0.2010  0.0208 -0.2409
12736TIP3    H159699   4.594   2.149  12.478  0.9850  0.0647 -1.5637
12736TIP3    H259700   4.745   2.156  12.461  1.3005 -0.2592  0.8652
12737TIP3   OH259701   6.682   1.091  11.303  0.4461 -0.0792  0.4521
12737TIP3    H159702   6.747   1.112  11.370  0.0672 -2.1699  1.5064
12737TIP3    H259703   6.725   1.026  11.247 -0.2579 -0.5000  0.3886
12738TIP3   OH259704   5.377   2.787   5.481  0.4672  0.2223  0.9551
12738TIP3    H159705   5.458   2.830   5.509  0.7272  0.7254 -0.5096
12738TIP3    H259706   5.397   2.694   5.488  1.3316  0.3375  0.2027
12739TIP3   OH259707   2.131   4.460  12.861  0.1380  0.2011  0.3497
12739TIP3    H159708   2.055   4.490  12.911  1.1128  2.0113  0.7953
12739TIP3    H259709   2.121   4.500  12.775  1.1260  1.3426  0.7527
12740TIP3   OH259710   5.209   2.119  16.848  0.0133 -0.2927  0.0173
12740TIP3    H159711   5.201   2.031  16.884  0.2848  0.4485  1.9615
12740TIP3    H259712   5.304   2.133  16.840  0.0632  0.6228  1.8491
12741TIP3   OH259713   1.853   1.425   2.474 -0.3304  0.0794 -0.5506
12741TIP3    H159714   1.764   1.456   2.491 -1.1733 -1.4320 -2.0424
12741TIP3    H259715   1.889   1.487   2.411 -1.4284 -1.0401 -2.2869
12742TIP3   OH259716   2.811   4.794   1.702 -0.0113  0.4276 -0.1621
12742TIP3    H159717   2.735   4.802   1.644  0.5030  0.2729 -0.8601
12742TIP3    H259718   2.777   4.817   1.789 -0.5438  1.6363 -0.6852
12743TIP3   OH259719   3.145   3.065  17.207 -0.2959 -0.4353  0.0681
12743TIP3    H159720   3.077   3.028  17.263  0.2036 -0.0152  0.9595
12743TIP3    H259721   3.190   2.988  17.170 -1.2662 -0.7149 -0.5676
12744TIP3   OH259722   2.339   0.652  14.880 -0.6151 -0.4267 -0.1971
12744TIP3    H159723   2.291   0.580  14.922 -2.5074  0.7715 -0.2503
12744TIP3    H259724   2.306   0.731  14.923  1.7725  0.3957  0.1673
12745TIP3   OH259725   6.812   5.664   0.926 -0.1980  0.5145 -0.0654
12745TIP3    H159726   6.824   5.599   0.996 -0.3545  0.2769 -0.2607
12745TIP3    H259727   6.732   5.637   0.882  0.2332  0.3079 -0.7288
12746TIP3   OH259728   3.512   4.839  12.970 -0.3917  0.0036 -0.7404
12746TIP3    H159729   3.589   4.802  13.013 -0.3712  0.6119 -0.2421
12746TIP3    H259730   3.445   4.772  12.978  0.4652 -1.0450 -2.3058
12747TIP3   OH259731   0.434   4.274   3.407  0.0374 -0.2552  0.6825
12747TIP3    H159732   0.346   4.303   3.380  0.1178 -1.2202 -0.6666
12747TIP3    H259733   0.419   4.218   3.482 -0.5233 -0.5850  0.3288
12748TIP3   OH259734   2.093   5.048   1.332 -0.3086  0.1639 -0.1300
12748TIP3    H159735   1.999   5.047   1.348 -0.1388  0.6852  0.9183
12748TIP3    H259736   2.118   4.956   1.330 -0.5538  0.0431  1.3963
12749TIP3   OH259737   1.629   3.332   0.425  0.1984 -0.1645  0.5352
12749TIP3    H159738   1.677   3.375   0.495  1.2260  0.5701 -0.6025
12749TIP3    H259739   1.695   3.278   0.380 -0.1566  0.4151 -0.6912
12750TIP3   OH259740   5.340   2.340  13.220  0.1566 -0.0460 -0.2177
12750TIP3    H159741   5.327   2.371  13.130  0.4171  1.1006  0.1305
12750TIP3    H259742   5.329   2.418  13.274 -1.0475 -0.9372  0.8436
12751TIP3   OH259743   4.592   1.177   2.526 -0.0109 -0.2530 -0.1757
12751TIP3    H159744   4.623   1.249   2.471 -0.2805  0.6572  0.8612
12751TIP3    H259745   4.672   1.136   2.558  0.1425  0.4065  0.2971
12752TIP3   OH259746   4.480   3.093   0.892  0.0027  0.8601 -0.1337
12752TIP3    H159747   4.446   3.168   0.940  1.3018 -1.1416  4.1985
12752TIP3    H259748   4.407   3.031   0.890 -0.0605  0.9542 -0.8124
12753TIP3   OH259749   0.285   2.209  11.078 -0.3180  0.0141  0.2235
12753TIP3    H159750   0.220   2.216  11.008 -0.4461  1.3122  0.4575
12753TIP3    H259751   0.306   2.116  11.082 -0.6139 -0.1234 -1.2654
12754TIP3   OH259752   2.179   4.408  14.484 -0.4748  0.2703  0.1289
12754TIP3    H159753   2.192   4.342  14.416 -0.2240  0.4483  0.0072
12754TIP3    H259754   2.107   4.462  14.452 -2.3986 -1.4697  1.3740
12755TIP3   OH259755   4.342   1.397  14.178 -0.7697  0.2090 -0.0759
12755TIP3    H159756   4.354   1.436  14.092 -2.7699  2.4772  0.6091
12755TIP3    H259757   4.269   1.336  14.167  1.8058 -2.8134 -0.9476
12756TIP3   OH259758   5.735   5.507  16.737  0.1934 -0.0742 -0.0520
12756TIP3    H159759   5.732   5.437  16.803 -1.5496 -0.1338 -0.1790
12756TIP3    H259760   5.811   5.486  16.684 -0.3443 -1.9249 -0.1270
12757TIP3   OH259761   1.606   0.385  14.568  0.1905  0.1393  0.0390
12757TIP3    H159762   1.590   0.397  14.661 -0.4841 -1.3800  0.1351
12757TIP3    H259763   1.668   0.312  14.563  1.4390  1.2119 -0.6519
12758TIP3   OH259764   2.086   0.656  13.906 -0.2336  0.1989  0.0822
12758TIP3    H159765   2.046   0.588  13.851 -0.3404  0.8567 -0.6623
12758TIP3    H259766   2.178   0.660  13.877  0.2070 -0.8032  1.2893
12759TIP3   OH259767   4.280   3.510   2.466  0.4945 -0.2730 -0.4767
12759TIP3    H159768   4.365   3.529   2.504 -0.1068 -0.7109  1.1197
12759TIP3    H259769   4.257   3.590   2.418  0.5581  0.8888  1.3962
12760TIP3   OH259770   2.240   5.385   2.311 -0.0976  1.1090 -0.2285
12760TIP3    H159771   2.198   5.470   2.325 -0.6986  0.7061  0.4171
12760TIP3    H259772   2.193   5.348   2.236  0.6778  1.6696 -1.0090
12761TIP3   OH259773   1.215   6.504   2.583  0.7577  0.6807 -0.3245
12761TIP3    H159774   1.292   6.448   2.587 -0.2790 -0.7167  0.4625
12761TIP3    H259775   1.162   6.478   2.659  1.0475  3.9025  1.0616
12762TIP3   OH259776   5.113   2.621   3.672 -0.3292 -0.3050  1.1136
12762TIP3    H159777   5.099   2.538   3.718 -0.2790 -0.8130  0.2185
12762TIP3    H259778   5.196   2.609   3.627 -1.5455 -0.7363 -1.1021
12763TIP3   OH259779   6.556   3.728  13.393 -0.1371 -0.0799 -0.5674
12763TIP3    H159780   6.507   3.754  13.315  0.2610 -1.3841 -1.2592
12763TIP3    H259781   6.571   3.634  13.382  0.1648 -0.2179  0.9484
12764TIP3   OH259782   3.175   1.253  15.861  0.1925  0.3289 -0.1411
12764TIP3    H159783   3.201   1.227  15.773 -1.4292 -0.8993 -0.2900
12764TIP3    H259784   3.187   1.348  15.863  0.7138  0.2960 -1.5253
12765TIP3   OH259785   6.483   3.495   1.256  0.2152  0.5812 -0.4426
12765TIP3    H159786   6.502   3.506   1.162 -0.4529 -0.4371 -0.6980
12765TIP3    H259787   6.456   3.404   1.264 -2.1042  1.3118  0.3430
12766TIP3   OH259788   5.202   1.805   1.519 -0.3106  0.5188 -0.0472
12766TIP3    H159789   5.239   1.773   1.437 -1.2303  1.4077 -0.8221
12766TIP3    H259790   5.270   1.860   1.557 -0.7003  1.9259 -1.3281
12767TIP3   OH259791   1.184   3.442  16.816  0.4436  0.2153  0.3932
12767TIP3    H159792   1.106   3.397  16.783  1.5347 -1.8603  0.5733
12767TIP3    H259793   1.219   3.488  16.740  0.8411 -1.4920 -0.4836
12768TIP3   OH259794   3.723   5.625   5.269 -0.3758  0.1679  0.2401
12768TIP3    H159795   3.757   5.714   5.266  0.2239 -0.0330  0.7958
12768TIP3    H259796   3.721   5.597   5.178 -1.7896  1.1934 -0.0525
12769TIP3   OH259797   0.905   1.893   3.511  0.2076 -0.0113  0.4043
12769TIP3    H159798   0.826   1.928   3.471 -0.5642  0.7685  2.5068
12769TIP3    H259799   0.972   1.959   3.495 -0.3593  0.7973  1.2733
12770TIP3   OH259800   0.610   3.584  15.154 -0.5325 -0.0657 -0.0471
12770TIP3    H159801   0.638   3.515  15.095 -1.2654 -0.4400  0.0267
12770TIP3    H259802   0.531   3.548  15.196 -1.0644  0.9206 -0.2032
12771TIP3   OH259803   5.790   5.532   3.375 -0.3968  0.0854  0.2371
12771TIP3    H159804   5.876   5.572   3.393 -0.1220  0.0581 -1.0166
12771TIP3    H259805   5.811   5.446   3.340 -0.9935 -1.4361  3.4024
12772TIP3   OH259806   5.864   5.559   3.043  0.1369  0.0051 -0.5501
12772TIP3    H159807   5.865   5.469   3.013  1.1357  0.0906 -0.7836
12772TIP3    H259808   5.839   5.610   2.966 -0.5670 -0.0710 -0.3831
12773TIP3   OH259809   6.460   6.739  13.452  0.0245 -0.3072  0.2661
12773TIP3    H159810   6.501   6.653  13.461  1.6897  0.4235 -0.0665
12773TIP3    H259811   6.471   6.780  13.538 -3.0877 -1.3821  1.2300
12774TIP3   OH259812   2.861   6.461   3.257 -0.6728 -0.3605 -0.0666
12774TIP3    H159813   2.790   6.417   3.304 -0.4581 -0.6440 -0.0054
12774TIP3    H259814   2.821   6.494   3.177 -0.5237 -1.8830 -0.7853
12775TIP3   OH259815   6.385   0.745  15.623  0.1200 -0.3333  0.2682
12775TIP3    H159816   6.467   0.716  15.663  0.3097  0.8203  0.7411
12775TIP3    H259817   6.388   0.841  15.630 -1.1506 -0.2776  0.0709
12776TIP3   OH259818   6.103   3.184   4.922 -0.5171 -0.4975 -0.1186
12776TIP3    H159819   6.109   3.271   4.883 -1.1622 -0.5131 -0.2580
12776TIP3    H259820   6.182   3.176   4.977 -1.2721  0.7868  1.1684
12777TIP3   OH259821   2.412   4.092  12.821 -0.0574  0.4457 -0.7801
12777TIP3    H159822   2.387   4.141  12.743  1.2173  0.3714 -1.2578
12777TIP3    H259823   2.382   4.003  12.805 -1.9690  0.9541 -0.1154
12778TIP3   OH259824   4.479   3.727   4.649 -0.6218 -0.6902 -0.3199
12778TIP3    H159825   4.487   3.801   4.589 -0.0374 -1.3937 -1.1373
12778TIP3    H259826   4.464   3.766   4.735 -1.3154  0.3396 -0.9035
12779TIP3   OH259827   1.177   3.405   2.866 -0.1828 -0.5524  1.1184
12779TIP3    H159828   1.100   3.351   2.886 -1.0487  0.6082  0.9836
12779TIP3    H259829   1.190   3.459   2.943 -1.9173  2.0400 -0.3275
12780TIP3   OH259830   2.935   2.160  13.563 -0.4274  1.2445  0.5943
12780TIP3    H159831   2.925   2.072  13.598  0.4845  0.9981  0.2382
12780TIP3    H259832   2.858   2.207  13.595 -1.0325  0.2601  0.5967
12781TIP3   OH259833   0.012   1.161   2.129  0.1456  0.1533 -0.9542
12781TIP3    H159834  -0.070   1.188   2.170  1.4996  2.1865  0.4695
12781TIP3    H259835   0.080   1.183   2.193  1.7418 -2.6295 -1.5689
12782TIP3   OH259836   0.841   2.405  11.956 -0.0706  0.3064 -0.5859
12782TIP3    H159837   0.760   2.401  11.904  0.4523  0.7245 -1.4526
12782TIP3    H259838   0.862   2.499  11.960 -1.9378  0.6326  3.3015
12783TIP3   OH259839   3.375   3.688   4.802 -0.1662 -0.6731 -0.2746
12783TIP3    H159840   3.336   3.646   4.725 -0.4857 -1.2652  0.2009
12783TIP3    H259841   3.356   3.781   4.792 -2.0102 -1.0046  0.1321
12784TIP3   OH259842   3.818   4.038   6.087  0.9717  0.0324 -0.2426
12784TIP3    H159843   3.801   3.974   6.156  0.4072  1.3952  0.8933
12784TIP3    H259844   3.760   4.012   6.016  0.0735 -0.1682  0.5574
12785TIP3   OH259845   2.940   1.879  14.918  0.0697  0.6987  0.2271
12785TIP3    H159846   2.946   1.964  14.874 -0.1448  0.0348 -1.1252
12785TIP3    H259847   2.847   1.857  14.914  0.6376 -1.4139 -3.0389
12786TIP3   OH259848   0.377   3.868  11.852  0.0359 -0.2540  0.4741
12786TIP3    H159849   0.308   3.921  11.893  0.4372  0.9258 -0.3668
12786TIP3    H259850   0.334   3.785  11.831 -0.7857 -0.0020  1.1173
12787TIP3   OH259851   0.644   3.377  14.965  0.3651  0.0109  0.1126
12787TIP3    H159852   0.701   3.316  15.012 -1.1809 -1.4023  0.2180
12787TIP3    H259853   0.667   3.366  14.873  1.6679  0.9409  0.3245
12788TIP3   OH259854   3.775   6.073   0.442 -0.0834  0.2837 -0.5660
12788TIP3    H159855   3.849   6.097   0.387 -0.4728 -0.4432 -1.4125
12788TIP3    H259856   3.808   6.081   0.531  0.6121  1.2586 -0.9113
12789TIP3   OH259857   5.040   1.310   4.675  0.6963 -0.4845 -0.4056
12789TIP3    H159858   5.076   1.246   4.614  0.4444 -1.3501  0.3291
12789TIP3    H259859   4.982   1.365   4.622  1.5109 -0.3756 -1.1912
12790TIP3   OH259860   6.488   1.263   3.237  0.0603  0.1506 -0.1604
12790TIP3    H159861   6.461   1.283   3.147 -1.9240 -1.0330  0.1304
12790TIP3    H259862   6.458   1.337   3.288 -0.8352 -0.2115 -0.1511
12791TIP3   OH259863   2.920   6.548  11.599  0.0668  0.3515 -0.1045
12791TIP3    H159864   2.839   6.596  11.613  0.8531  1.5556  0.3595
12791TIP3    H259865   2.932   6.547  11.504 -0.6268 -0.0782 -0.1941
12792TIP3   OH259866   3.012   2.760  15.104 -0.2589  0.0491  0.1383
12792TIP3    H159867   3.030   2.816  15.179  0.9776 -0.8066  0.4782
12792TIP3    H259868   3.077   2.690  15.109  1.9237  1.6542 -3.4505
12793TIP3   OH259869   0.327   0.890   3.417  0.3441  0.9277 -0.3607
12793TIP3    H159870   0.231   0.897   3.420  0.3634  0.6491  1.4437
12793TIP3    H259871   0.344   0.796   3.423  0.7218  0.9060 -1.5832
12794TIP3   OH259872   0.719   3.629  12.764 -0.4665 -0.0705  0.1847
12794TIP3    H159873   0.730   3.659  12.674  2.2577  0.2486  0.5916
12794TIP3    H259874   0.681   3.705  12.809 -1.3432 -0.0509 -0.5684
12795TIP3   OH259875   1.497   2.036  14.625  0.1345 -0.2059 -0.2028
12795TIP3    H159876   1.476   2.124  14.595 -2.6015 -0.9117 -0.5119
12795TIP3    H259877   1.436   2.020  14.697  1.5362 -1.3346  0.7610
12796TIP3   OH259878   1.047   1.416   4.230 -0.0657 -0.6887  0.7285
12796TIP3    H159879   1.020   1.359   4.158 -0.2200 -0.7932  0.8695
12796TIP3    H259880   1.005   1.379   4.307 -0.9416  0.1647  0.6765
12797TIP3   OH259881   4.663   4.084   2.136  0.3951 -0.3304 -0.4552
12797TIP3    H159882   4.583   4.119   2.097  1.6327  1.3665 -1.5349
12797TIP3    H259883   4.704   4.033   2.066 -0.3124 -2.1918  0.4580
12798TIP3   OH259884   4.687   6.450  12.323  0.2031  1.2112 -0.2087
12798TIP3    H159885   4.751   6.380  12.339  1.8970  2.3822 -1.7099
12798TIP3    H259886   4.656   6.474  12.410 -1.5736 -2.4360  0.2711
12799TIP3   OH259887   1.719   3.341  15.764 -0.3736 -0.6002 -0.3365
12799TIP3    H159888   1.663   3.355  15.840 -1.2522 -0.9437 -0.9015
12799TIP3    H259889   1.718   3.246  15.751  1.9664 -0.8093  0.8398
12800TIP3   OH259890   4.995   3.391   0.205 -0.0532 -0.1914 -0.6611
12800TIP3    H159891   4.941   3.440   0.144  2.4660  2.0827 -1.1671
12800TIP3    H259892   4.935   3.329   0.247 -2.0565 -0.9882 -4.5303
12801TIP3   OH259893   1.188   6.200   0.869 -0.1731  0.0611 -0.2653
12801TIP3    H159894   1.259   6.160   0.919  0.6189  2.7877  0.8399
12801TIP3    H259895   1.211   6.184   0.777  1.2778 -0.0704  0.1131
12802TIP3   OH259896   2.853   6.629  13.200 -0.7494  0.1025 -0.5294
12802TIP3    H159897   2.921   6.571  13.167 -1.5734 -1.5263  0.5610
12802TIP3    H259898   2.772   6.581  13.186 -1.5003  1.2054 -0.0431
12803TIP3   OH259899   5.713   1.230  14.833 -0.4217 -0.1792  0.0054
12803TIP3    H159900   5.717   1.325  14.844  0.6623 -0.4471  2.3294
12803TIP3    H259901   5.629   1.205  14.871 -1.0470 -0.0833 -1.2970
12804TIP3   OH259902   3.742   0.243  16.613 -0.4424 -0.4137  0.3744
12804TIP3    H159903   3.771   0.284  16.695 -1.4099 -1.1394  1.0805
12804TIP3    H259904   3.730   0.151  16.634 -0.0051 -0.7549 -0.7791
12805TIP3   OH259905   0.051   6.587  14.210  0.0172  0.8802 -0.3615
12805TIP3    H159906  -0.029   6.599  14.261  0.7068  2.7047  0.3259
12805TIP3    H259907   0.028   6.522  14.143 -2.0234  1.3905 -0.1631
12806TIP3   OH259908   1.852   5.970  11.756 -0.5330 -0.0212 -0.1387
12806TIP3    H159909   1.836   5.954  11.663  4.0651 -0.1767 -1.0207
12806TIP3    H259910   1.885   5.887  11.789  1.4641  1.1026  0.7399
12807TIP3   OH259911   0.073   3.868   3.117  0.1517 -0.4278  0.7860
12807TIP3    H159912   0.092   3.796   3.176  0.1365  0.5467  2.0114
12807TIP3    H259913   0.145   3.929   3.129 -0.9495  0.7779  1.4335
12808TIP3   OH259914   0.693   1.462   4.056 -0.2503 -0.4867 -0.4635
12808TIP3    H159915   0.710   1.426   3.969 -2.0716 -2.1163 -0.1915
12808TIP3    H259916   0.692   1.385   4.114  0.6378  0.5400  0.9707
12809TIP3   OH259917   2.192   2.330   4.513 -0.2290 -0.6817  0.0744
12809TIP3    H159918   2.162   2.415   4.480 -1.0806 -0.8952  0.2916
12809TIP3    H259919   2.123   2.268   4.489  0.5417 -1.3779 -0.3741
12810TIP3   OH259920   2.586   3.598  13.191  0.6163  0.3119 -0.3811
12810TIP3    H159921   2.499   3.581  13.155  0.4563  1.8781 -0.7765
12810TIP3    H259922   2.590   3.545  13.270  0.4950 -2.2019 -2.0179
12811TIP3   OH259923   1.664   5.310   2.561 -0.1118 -0.0974 -0.2370
12811TIP3    H159924   1.621   5.396   2.554 -1.2896 -0.6011  0.6033
12811TIP3    H259925   1.656   5.272   2.473  0.9759  0.9011 -0.7793
12812TIP3   OH259926   3.581   1.239  16.924  0.0462 -0.0162  0.0206
12812TIP3    H159927   3.506   1.286  16.886  1.7640  2.4561 -0.3868
12812TIP3    H259928   3.653   1.258  16.865  1.6094 -0.2406  1.8216
12813TIP3   OH259929   4.621   4.001  17.200  0.1078 -0.5133 -0.0083
12813TIP3    H159930   4.557   3.951  17.252 -0.8458  0.6037 -0.0917
12813TIP3    H259931   4.682   3.934  17.167 -0.3771 -1.4611  0.9761
12814TIP3   OH259932   2.121   2.253  16.675 -0.1321  0.0147 -0.5106
12814TIP3    H159933   2.067   2.279  16.749  1.8362 -0.6935  1.2189
12814TIP3    H259934   2.099   2.161  16.660  1.4109 -0.6076  0.9495
12815TIP3   OH259935   0.820   1.461   6.674  0.0931  0.8464  0.0768
12815TIP3    H159936   0.865   1.462   6.758  3.0740  1.1056 -1.4463
12815TIP3    H259937   0.739   1.510   6.690  0.1057 -0.0091  3.0217
12816TIP3   OH259938   2.061   3.693  13.854 -0.1544  0.0073 -0.1517
12816TIP3    H159939   2.007   3.741  13.791 -0.9842  0.2091  0.7108
12816TIP3    H259940   2.040   3.732  13.939  0.9111 -0.3090  0.2619
12817TIP3   OH259941   4.737   3.988   1.010  0.6159 -0.2034 -0.1286
12817TIP3    H159942   4.762   3.955   0.923 -0.5714 -1.2210 -0.0942
12817TIP3    H259943   4.655   4.035   0.995  0.5720 -0.1128  0.3908
12818TIP3   OH259944   1.025   0.313  15.062 -0.1162  0.0019 -0.3343
12818TIP3    H159945   0.987   0.364  14.991  0.0906 -0.6449 -0.9155
12818TIP3    H259946   1.052   0.378  15.127  1.5122  0.7203 -1.7194
12819TIP3   OH259947   5.538   1.464   1.974  0.0607 -0.8449 -0.7744
12819TIP3    H159948   5.528   1.498   2.063  0.6067 -2.9088  0.0980
12819TIP3    H259949   5.478   1.390   1.970 -0.4428 -0.3806 -2.3561
12820TIP3   OH259950   3.158   0.263  16.403 -0.6898  0.3696  0.4769
12820TIP3    H159951   3.158   0.199  16.331 -0.0369  2.2629 -1.2843
12820TIP3    H259952   3.078   0.314  16.389  0.4043  1.9866 -0.1157
12821TIP3   OH259953   3.527   0.422   0.706 -0.6419 -0.5758  0.1760
12821TIP3    H159954   3.586   0.430   0.631 -1.9606  2.4093 -0.6530
12821TIP3    H259955   3.441   0.406   0.667 -1.3753  1.2244  0.9784
12822TIP3   OH259956   1.613   4.940  14.584 -0.0063  0.3156  0.2190
12822TIP3    H159957   1.548   4.870  14.580 -0.6620  0.9474 -0.2995
12822TIP3    H259958   1.655   4.929  14.669  0.1671 -0.9462 -0.0102
12823TIP3   OH259959   5.458   6.066  15.428  0.0398  0.4238  0.7837
12823TIP3    H159960   5.426   6.069  15.518 -1.0815 -0.4171  0.4195
12823TIP3    H259961   5.513   6.144  15.420 -0.5356  0.9598  1.9383
12824TIP3   OH259962   5.171   1.511  12.760 -0.9747  0.0369  0.6347
12824TIP3    H159963   5.111   1.440  12.781 -0.3928 -0.3404  1.0463
12824TIP3    H259964   5.116   1.589  12.758 -1.3929 -0.2344  1.4689
12825TIP3   OH259965   0.029   0.688  15.975 -0.0510  0.3832  0.5682
12825TIP3    H159966   0.111   0.727  15.944 -0.2907  2.6903  2.7687
12825TIP3    H259967   0.041   0.679  16.069 -1.2886 -1.9151  0.5519
12826TIP3   OH259968   5.937   1.069  11.159 -0.1463  0.5203  0.3288
12826TIP3    H159969   5.941   0.995  11.098  2.2201  2.0492 -1.4776
12826TIP3    H259970   6.029   1.094  11.172 -0.7392  1.3123  3.2004
12827TIP3   OH259971   6.256   0.379  16.040  0.3946 -0.2067  0.1710
12827TIP3    H159972   6.206   0.301  16.015 -1.8158  1.9772 -2.6169
12827TIP3    H259973   6.325   0.385  15.974  0.2818  0.4084  0.1031
12828TIP3   OH259974   2.639   3.417  11.187 -0.2651 -0.5594 -0.0343
12828TIP3    H159975   2.681   3.332  11.174 -2.3885 -1.7950  0.8137
12828TIP3    H259976   2.549   3.395  11.213 -0.4966  1.9234  1.4539
12829TIP3   OH259977   3.189   3.152   4.197 -0.9852  0.4178 -0.0344
12829TIP3    H159978   3.120   3.204   4.238  0.0973  0.8664  1.2567
12829TIP3    H259979   3.234   3.109   4.270  0.0249  0.0475 -0.8577
12830TIP3   OH259980   3.165   1.158  13.384  0.6694  0.6222 -0.6493
12830TIP3    H159981   3.256   1.134  13.364  0.2958 -0.0029 -1.6396
12830TIP3    H259982   3.114   1.082  13.355 -0.0774  0.5410  0.8532
12831TIP3   OH259983   1.271   3.797   3.542  0.1870 -0.0279  0.1454
12831TIP3    H159984   1.196   3.766   3.592 -0.9543  1.2060 -0.7798
12831TIP3    H259985   1.263   3.753   3.457 -0.5559  1.5148 -0.6105
12832TIP3   OH259986   3.468   5.095  10.414  0.2312  0.8527  1.0681
12832TIP3    H159987   3.526   5.160  10.373 -1.1648  0.0369 -2.3745
12832TIP3    H259988   3.513   5.012  10.402 -0.7580  0.4528  0.0519
12833TIP3   OH259989   6.458   2.459  16.785 -0.1449  0.1502  0.1758
12833TIP3    H159990   6.471   2.544  16.827 -1.1264  0.2499  0.2916
12833TIP3    H259991   6.507   2.397  16.840 -1.0752  0.3401  1.2408
12834TIP3   OH259992   6.626   6.174   6.444  0.5174  0.3040  0.4691
12834TIP3    H159993   6.656   6.085   6.460 -1.5066  0.0867  3.3525
12834TIP3    H259994   6.678   6.228   6.504  1.7387  1.0926 -1.2654
12835TIP3   OH259995   2.171   1.938   2.713  0.4060  0.3703 -0.0316
12835TIP3    H159996   2.147   1.867   2.654 -2.0891  0.7286  0.4864
12835TIP3    H259997   2.093   1.952   2.767  2.5521  0.1611  3.2602
12836TIP3   OH259998   2.645   4.065  13.881  0.1318 -0.1619  0.2103
12836TIP3    H159999   2.695   4.093  13.957 -1.3739 -1.7132  1.8172
12836TIP3    H260000   2.582   4.001  13.915 -1.2343 -0.1642 -2.1660
12837TIP3   OH260001   4.007   1.067   5.871  0.4069  0.4985  0.3585
12837TIP3    H160002   4.007   1.096   5.779  3.1467  0.2007  0.1964
12837TIP3    H260003   4.011   0.971   5.866  1.0446  0.4978  0.7564
12838TIP3   OH260004   5.525   3.507   4.811 -0.2204 -0.4741 -0.6548
12838TIP3    H160005   5.583   3.444   4.853  1.2321  0.7611 -0.7457
12838TIP3    H260006   5.512   3.472   4.723  3.7638  1.2392 -2.0601
12839TIP3   OH260007   5.778   2.499  13.468 -0.7587 -0.4171 -0.0798
12839TIP3    H160008   5.863   2.521  13.430 -1.4530  3.2988  0.2801
12839TIP3    H260009   5.797   2.436  13.537  1.7444  0.5947  0.1886
12840TIP3   OH260010   6.289   6.199  16.831  0.1621 -0.0428  0.3282
12840TIP3    H160011   6.253   6.212  16.919 -2.3584  2.3342 -0.9781
12840TIP3    H260012   6.300   6.288  16.796  0.5409 -0.9570 -1.9623
12841TIP3   OH260013   1.942   0.470  13.785 -0.2215 -0.3779 -0.3036
12841TIP3    H160014   1.859   0.442  13.824 -0.9525  0.9110 -0.9223
12841TIP3    H260015   1.971   0.395  13.733  0.4816 -1.9205  2.2177
12842TIP3   OH260016   5.037   5.365  13.043 -0.2264  0.1945 -0.2332
12842TIP3    H160017   4.986   5.354  13.124  1.1610  0.0820  0.6522
12842TIP3    H260018   4.995   5.437  12.998 -3.0006 -1.7961 -0.9787
12843TIP3   OH260019   0.792   1.941  11.869  0.6833 -0.4878  0.5201
12843TIP3    H160020   0.809   1.978  11.956  0.1777 -1.6200  1.1057
12843TIP3    H260021   0.751   1.856  11.886 -1.9080  0.4241 -0.7907
12844TIP3   OH260022   0.433   4.228  14.012 -0.0802 -0.4443  0.2428
12844TIP3    H160023   0.508   4.277  14.045  0.3814 -1.0768  0.1364
12844TIP3    H260024   0.469   4.143  13.988 -0.7777 -0.6483 -0.0812
12845TIP3   OH260025   0.470   6.319  13.931  1.0582  0.1060  0.5387
12845TIP3    H160026   0.490   6.385  13.865  0.3469  0.3331  0.5477
12845TIP3    H260027   0.546   6.261  13.931  0.5534 -0.6108 -1.3553
12846TIP3   OH260028   3.907   2.625   4.317 -0.3249 -0.9019  0.0864
12846TIP3    H160029   3.983   2.577   4.285  0.2678  1.2408 -1.8853
12846TIP3    H260030   3.943   2.694   4.372 -0.7748  0.3881 -1.1955
12847TIP3   OH260031   1.715   2.054  15.267 -0.3371  0.3467 -0.3605
12847TIP3    H160032   1.800   2.097  15.259 -0.2527  0.0564 -1.0231
12847TIP3    H260033   1.734   1.961  15.252 -0.5568  0.0986  0.8036
12848TIP3   OH260034   4.027   5.210   1.511 -0.2367  0.0120  0.2396
12848TIP3    H160035   4.052   5.267   1.439 -1.3806  0.0244 -0.1568
12848TIP3    H260036   3.972   5.142   1.470 -1.4758  0.4264  1.2030
12849TIP3   OH260037   5.221   1.979  11.496  0.1893 -0.0326 -0.1021
12849TIP3    H160038   5.218   2.064  11.453 -0.5971  0.2593  0.5047
12849TIP3    H260039   5.149   1.982  11.559 -0.8460 -1.7339 -1.1600
12850TIP3   OH260040   1.513   5.729  11.768 -0.1220 -0.3618  0.1917
12850TIP3    H160041   1.482   5.713  11.679 -0.6543 -0.7133  0.4355
12850TIP3    H260042   1.600   5.689  11.771  0.7754  1.4467 -0.7781
12851TIP3   OH260043   0.434   2.943  13.730 -0.2877 -0.6463  0.0107
12851TIP3    H160044   0.382   2.940  13.649  1.2842 -2.2802 -0.9903
12851TIP3    H260045   0.441   3.037  13.750 -0.2364 -0.1646 -2.0754
12852TIP3   OH260046   5.957   6.233   2.950 -0.5801  0.3127 -0.3392
12852TIP3    H160047   6.022   6.303   2.956  0.3497 -0.4923 -0.9893
12852TIP3    H260048   5.964   6.202   2.860 -0.9498 -0.6574 -0.0402
12853TIP3   OH260049   0.632   0.698  13.067  0.1747  0.4687 -0.0356
12853TIP3    H160050   0.694   0.637  13.107 -0.5438  0.0651  0.4703
12853TIP3    H260051   0.610   0.659  12.982  1.1367  0.9587 -0.5166
12854TIP3   OH260052   3.803   4.139   2.269 -0.5846 -0.3174  0.1016
12854TIP3    H160053   3.884   4.164   2.315  0.2072 -1.8989 -0.3694
12854TIP3    H260054   3.739   4.204   2.296  1.0129  1.3470  0.0009
12855TIP3   OH260055   6.622   0.462   5.939 -0.2522 -0.1947  0.3814
12855TIP3    H160056   6.685   0.501   5.999  0.4108 -0.8375  0.1054
12855TIP3    H260057   6.635   0.368   5.948  1.6065 -0.2681 -2.6172
12856TIP3   OH260058   3.730   6.009  11.796  0.1558 -0.4754 -0.5706
12856TIP3    H160059   3.774   6.064  11.861 -0.2877  1.8215 -2.1778
12856TIP3    H260060   3.666   6.067  11.754 -1.3941 -2.6172 -1.2715
12857TIP3   OH260061   1.879   0.476  12.536 -1.0740 -0.5082 -0.1984
12857TIP3    H160062   1.876   0.480  12.441  1.5694  0.0887 -0.2870
12857TIP3    H260063   1.790   0.497  12.564 -1.2396  1.9291 -2.4377
12858TIP3   OH260064   3.985   0.302   6.635  0.0256  0.1138 -0.8827
12858TIP3    H160065   4.075   0.328   6.613  0.9314 -0.9412  1.4593
12858TIP3    H260066   3.952   0.261   6.555  1.9676 -0.3832 -1.4639
12859TIP3   OH260067   3.373   1.685   0.316  0.1485  0.2492  0.0930
12859TIP3    H160068   3.284   1.683   0.351 -0.1450  0.9452 -0.5799
12859TIP3    H260069   3.391   1.595   0.289 -0.0045 -0.0791  1.0679
12860TIP3   OH260070   5.386   3.144   5.626 -0.1898 -0.0285  0.0724
12860TIP3    H160071   5.423   3.074   5.679 -1.9283 -1.2544 -0.3140
12860TIP3    H260072   5.298   3.156   5.660 -0.4642  0.8661 -0.9291
12861TIP3   OH260073   0.173   0.459  16.634  0.4745  0.1291  0.1724
12861TIP3    H160074   0.249   0.403  16.650  0.4023 -0.4470 -1.5125
12861TIP3    H260075   0.147   0.489  16.722  1.8446 -0.6986  0.8744
12862TIP3   OH260076   6.033   5.545  12.179 -0.0623 -0.4040  0.7931
12862TIP3    H160077   6.113   5.556  12.128 -0.3068 -2.2577 -0.0172
12862TIP3    H260078   6.060   5.494  12.256 -1.0215 -3.9315 -1.1013
12863TIP3   OH260079   2.786   1.156   2.916  0.1001 -0.0832  0.0869
12863TIP3    H160080   2.795   1.250   2.905 -2.5050  0.0939 -0.8359
12863TIP3    H260081   2.766   1.144   3.009 -2.7698  0.5907 -0.3976
12864TIP3   OH260082   5.808   0.934   1.637 -0.1508 -0.0352  0.3865
12864TIP3    H160083   5.729   0.951   1.688  0.6159 -0.5308  1.7649
12864TIP3    H260084   5.857   0.869   1.688 -0.7780 -2.8532 -2.4373
12865TIP3   OH260085   3.060   4.465  14.455  0.0674 -0.4162 -0.1114
12865TIP3    H160086   3.046   4.388  14.401  0.3419 -0.4431 -0.1457
12865TIP3    H260087   3.154   4.482  14.449  0.3079 -1.1712  1.3914
12866TIP3   OH260088   3.756   6.337   4.936 -0.0875 -1.0288  0.0162
12866TIP3    H160089   3.719   6.252   4.958 -1.0299 -0.6364 -0.0184
12866TIP3    H260090   3.788   6.372   5.019 -1.1964 -0.7065  0.3138
12867TIP3   OH260091   0.050   6.223  17.124  0.2301  0.4278  0.5723
12867TIP3    H160092   0.097   6.164  17.182  1.0401  2.3072  1.8956
12867TIP3    H260093  -0.020   6.170  17.087  1.3088 -1.5099  1.2213
12868TIP3   OH260094   5.430   6.800  15.855  0.3906  0.4518  1.2068
12868TIP3    H160095   5.503   6.775  15.912  0.4096  0.8945  1.3791
12868TIP3    H260096   5.448   6.891  15.830 -0.0558  0.5385  1.1800
12869TIP3   OH260097   2.955   4.176   3.472  0.2981 -0.3206 -0.0650
12869TIP3    H160098   2.874   4.198   3.518 -0.2940  0.6260 -1.5248
12869TIP3    H260099   2.949   4.083   3.454 -1.4804  0.1254 -2.0287
12870TIP3   OH260100   6.133   2.896   2.330  0.6038  0.1878  0.4350
12870TIP3    H160101   6.216   2.940   2.312  1.3411 -1.2792  0.2120
12870TIP3    H260102   6.153   2.835   2.400 -0.5973  0.7326  1.2665
12871TIP3   OH260103   4.433   0.277  16.529  0.3803  0.3811 -0.1308
12871TIP3    H160104   4.502   0.225  16.488 -0.8175  0.2234 -2.0230
12871TIP3    H260105   4.415   0.346  16.465 -2.6044 -0.7744 -0.6131
12872TIP3   OH260106   1.730   6.487   0.459 -0.3546  0.0108 -0.1437
12872TIP3    H160107   1.792   6.549   0.420 -1.3886  0.6229 -0.8515
12872TIP3    H260108   1.776   6.403   0.459  1.4198  0.9456  1.6977
12873TIP3   OH260109   2.852   1.437  14.902 -0.2655 -0.2452  0.0993
12873TIP3    H160110   2.788   1.508  14.909  0.9393  0.8129  0.6634
12873TIP3    H260111   2.810   1.373  14.844 -2.1655  0.0325  1.1261
12874TIP3   OH260112   6.208   0.740   1.140  0.3904 -0.4670 -0.8547
12874TIP3    H160113   6.252   0.748   1.225 -1.0678 -0.4405 -0.0966
12874TIP3    H260114   6.248   0.664   1.099  1.0259 -0.5458 -0.0999
12875TIP3   OH260115   6.537   2.472   1.358 -0.3112 -0.2753  0.0612
12875TIP3    H160116   6.562   2.401   1.417  0.5588 -1.6375 -1.8727
12875TIP3    H260117   6.620   2.516   1.339 -0.2421 -1.1228 -1.7179
12876TIP3   OH260118   3.769   4.833   5.418  0.1341  0.1184  0.1618
12876TIP3    H160119   3.683   4.850   5.457 -0.1295  2.9168 -1.4873
12876TIP3    H260120   3.827   4.896   5.462  0.4669  1.1187 -1.6741
12877TIP3   OH260121   0.384   2.717   4.118 -0.6763 -0.4413  0.1336
12877TIP3    H160122   0.422   2.792   4.165  0.6811 -0.2526 -1.2069
12877TIP3    H260123   0.446   2.646   4.134 -1.6478 -1.1103  0.8961
12878TIP3   OH260124   3.562   4.626   5.019 -0.2496  0.7431  0.0414
12878TIP3    H160125   3.638   4.626   5.077 -1.5349  1.5403  1.7574
12878TIP3    H260126   3.589   4.572   4.945  0.9838 -1.3746  1.9745
12879TIP3   OH260127   2.494   6.341   1.375 -0.7222  0.6189 -0.5093
12879TIP3    H160128   2.471   6.432   1.358  3.6035  1.6520 -1.3675
12879TIP3    H260129   2.529   6.309   1.292  1.8562 -0.4463  0.9263
12880TIP3   OH260130   4.458   4.782   2.542 -0.3636 -0.0261 -0.0394
12880TIP3    H160131   4.500   4.739   2.467  0.2837 -0.0193  0.3129
12880TIP3    H260132   4.408   4.712   2.585 -0.3938 -0.1236 -0.2300
12881TIP3   OH260133   4.923   3.176  15.613  0.2231  0.6305 -0.1245
12881TIP3    H160134   4.933   3.129  15.530  0.9643  1.9530 -0.7925
12881TIP3    H260135   4.859   3.124  15.661 -0.7650  0.2256 -1.8066
12882TIP3   OH260136   4.603   5.246   1.224 -0.3958 -0.0145  0.2186
12882TIP3    H160137   4.572   5.189   1.154 -1.3307 -1.8333  2.0801
12882TIP3    H260138   4.574   5.204   1.305  0.6516  2.0482  1.7235
12883TIP3   OH260139   2.663   4.494   3.015 -0.4434 -0.1654  0.0561
12883TIP3    H160140   2.703   4.419   3.060 -1.6283 -0.3157  0.8900
12883TIP3    H260141   2.675   4.567   3.076  0.4861  0.2820 -0.6480
12884TIP3   OH260142   0.827   3.482  16.379  0.5321  0.1545  1.0773
12884TIP3    H160143   0.861   3.494  16.290 -0.9840  0.3241  0.4990
12884TIP3    H260144   0.866   3.400  16.409 -0.7093 -1.0774 -0.6163
12885TIP3   OH260145   4.919   2.504   4.386 -0.8077  0.5878 -0.3500
12885TIP3    H160146   4.943   2.440   4.453 -1.6852  0.5923 -0.0192
12885TIP3    H260147   4.904   2.452   4.307  0.2525  0.5843 -0.5535
12886TIP3   OH260148   2.954   3.054   4.571 -0.2676 -0.2520 -0.1305
12886TIP3    H160149   2.915   2.998   4.638  1.8124 -0.0058  1.3068
12886TIP3    H260150   2.962   2.997   4.494 -0.5213 -1.1852  0.5219
12887TIP3   OH260151   0.157   4.760   5.062 -0.4867  0.3153  0.0825
12887TIP3    H160152   0.123   4.771   5.151  0.4681  0.5824  0.4292
12887TIP3    H260153   0.092   4.802   5.006 -0.6115  1.0230  0.7432
12888TIP3   OH260154   6.423   3.790  15.032  0.1109 -0.0874  0.6020
12888TIP3    H160155   6.330   3.768  15.028  0.2263 -0.7379  1.3374
12888TIP3    H260156   6.460   3.724  15.090  1.5415 -1.5445 -1.9211
12889TIP3   OH260157   6.681   4.814   0.825  0.3952  0.2165 -0.4850
12889TIP3    H160158   6.607   4.778   0.874  2.3939 -1.9461  1.0707
12889TIP3    H260159   6.663   4.789   0.734  0.1379 -2.0104  0.1341
12890TIP3   OH260160   0.346   5.371  16.304 -0.4722 -0.3231  0.4554
12890TIP3    H160161   0.279   5.323  16.256  0.8603 -2.0112  0.2539
12890TIP3    H260162   0.386   5.307  16.363 -0.7918  1.2683  2.4799
12891TIP3   OH260163   6.070   0.590  12.038 -0.0137 -0.1553  0.5347
12891TIP3    H160164   5.991   0.557  12.081 -0.5012  0.0473 -0.1941
12891TIP3    H260165   6.060   0.685  12.041 -0.1005 -0.1411 -0.1069
12892TIP3   OH260166   2.462   1.292  12.830 -0.0813 -0.6642  0.4109
12892TIP3    H160167   2.495   1.204  12.849 -0.1437 -0.9201 -0.6108
12892TIP3    H260168   2.539   1.340  12.799  0.0326 -0.2421  1.3486
12893TIP3   OH260169   4.436   4.987  14.690 -0.0824  0.0875  0.3749
12893TIP3    H160170   4.461   5.075  14.665 -2.5432  0.6140 -0.3677
12893TIP3    H260171   4.401   4.948  14.610 -1.4327 -0.6472  1.2947
12894TIP3   OH260172   4.152   3.823  15.077  0.6020 -0.2047  0.4356
12894TIP3    H160173   4.165   3.899  15.134 -0.4123 -0.8945  1.6231
12894TIP3    H260174   4.058   3.821  15.062  0.9501  0.5160 -2.0836
12895TIP3   OH260175   6.409   4.627  15.156 -0.4374 -0.6216  0.0894
12895TIP3    H160176   6.416   4.547  15.208 -0.7583  0.5393  1.9443
12895TIP3    H260177   6.474   4.686  15.193 -0.9119  0.3575 -0.6019
12896TIP3   OH260178   4.198   4.136   5.796  0.0928 -0.0543  0.4793
12896TIP3    H160179   4.204   4.064   5.734  0.2067 -0.1663  0.6205
12896TIP3    H260180   4.124   4.114   5.853 -0.2250  0.2121  0.1757
12897TIP3   OH260181   0.857   3.535  11.696  0.0769 -0.4983 -0.0324
12897TIP3    H160182   0.911   3.530  11.775 -1.6527  2.0944  1.3902
12897TIP3    H260183   0.801   3.457  11.701 -0.4671 -0.0262  1.6765
12898TIP3   OH260184   5.649   2.733  13.423  0.7687 -0.1659 -0.4906
12898TIP3    H160185   5.694   2.654  13.454 -0.1169 -0.5608 -0.1894
12898TIP3    H260186   5.675   2.741  13.332  0.6425 -0.9715 -0.6037
12899TIP3   OH260187   3.412   6.811   0.166 -0.2100  0.6202 -0.0043
12899TIP3    H160188   3.473   6.883   0.178  1.5114 -0.9020  0.5993
12899TIP3    H260189   3.413   6.794   0.071 -0.5121  1.2802 -0.1286
12900TIP3   OH260190   1.457   4.834   2.019 -0.4762  0.0777 -1.0765
12900TIP3    H160191   1.490   4.793   1.939 -1.3956 -0.3869 -1.2217
12900TIP3    H260192   1.496   4.782   2.090  1.0652  1.0441 -1.1857
12901TIP3   OH260193   4.251   1.251  14.524 -0.0683  0.2607 -0.6240
12901TIP3    H160194   4.337   1.244  14.566 -0.2125 -1.3348 -0.5804
12901TIP3    H260195   4.227   1.343  14.535  0.7866  0.3044  1.0401
12902TIP3   OH260196   0.216   2.963   2.152  0.4930 -0.2149 -0.1088
12902TIP3    H160197   0.222   3.056   2.128  0.0332 -0.4122 -1.0100
12902TIP3    H260198   0.162   2.963   2.232 -0.1591  0.2384 -0.5399
12903TIP3   OH260199   2.296   4.188   3.481  0.1312 -0.5488 -0.1754
12903TIP3    H160200   2.295   4.269   3.532 -1.9819 -0.8132  0.2424
12903TIP3    H260201   2.347   4.127   3.534 -1.0517 -0.4650  1.0979
12904TIP3   OH260202   0.836   6.813   1.692  0.2709 -0.0692  0.2613
12904TIP3    H160203   0.862   6.724   1.671 -0.3574 -0.2597  0.2838
12904TIP3    H260204   0.742   6.807   1.710 -0.4737  1.1393 -2.9122
12905TIP3   OH260205   3.743   1.774  11.673  0.4322 -0.0027 -0.0413
12905TIP3    H160206   3.709   1.837  11.609 -0.9791 -0.7254 -0.0289
12905TIP3    H260207   3.670   1.714  11.688  1.3321 -0.8684  0.9387
12906TIP3   OH260208   2.552   4.874   2.412  0.2392  0.1988 -0.5901
12906TIP3    H160209   2.595   4.839   2.334 -1.8804  0.9727 -2.1513
12906TIP3    H260210   2.525   4.963   2.388  0.0731  0.6730  1.2185
12907TIP3   OH260211   3.528   5.515   0.108 -0.1651 -0.2286  0.1127
12907TIP3    H160212   3.617   5.507   0.141  0.1664  0.1204 -0.6942
12907TIP3    H260213   3.473   5.478   0.177  0.6617 -1.1576  0.2751
12908TIP3   OH260214   4.239   3.672  17.130 -0.0875  0.4221  0.4139
12908TIP3    H160215   4.279   3.615  17.065 -0.8913 -0.2002  0.4634
12908TIP3    H260216   4.269   3.638  17.214 -3.8309 -2.5021  0.6631
12909TIP3   OH260217   5.733   4.985   0.139  0.1567 -0.1960  0.1668
12909TIP3    H160218   5.639   5.002   0.151 -0.2101 -2.2295  0.3339
12909TIP3    H260219   5.743   4.964   0.046  0.1181 -1.8387  0.5161
12910TIP3   OH260220   0.766   5.697  16.059 -0.4692 -0.3884 -0.9654
12910TIP3    H160221   0.708   5.629  16.093 -1.2340 -0.1332 -1.7141
12910TIP3    H260222   0.707   5.771  16.040  0.1947  0.1116 -1.1241
12911TIP3   OH260223   6.272   0.722  12.225  0.3657  0.3033 -0.1840
12911TIP3    H160224   6.209   0.778  12.179 -0.1922  0.2938  0.5657
12911TIP3    H260225   6.219   0.655  12.267  1.0664 -0.9951 -1.3386
12912TIP3   OH260226   6.478   6.181   5.652  0.1714 -0.3333 -0.2712
12912TIP3    H160227   6.498   6.254   5.711 -2.0425  0.5978 -0.6296
12912TIP3    H260228   6.392   6.151   5.679  0.2368 -1.5648 -1.3851
12913TIP3   OH260229   6.377   5.604  16.251 -0.0974  0.5902 -0.2889
12913TIP3    H160230   6.391   5.511  16.233  0.3162  0.6694 -0.3873
12913TIP3    H260231   6.325   5.635  16.176  2.1168  1.0487 -1.6747
12914TIP3   OH260232   4.652   6.232  14.682 -0.6714 -0.3356  0.2647
12914TIP3    H160233   4.672   6.321  14.655 -0.2878 -0.2393  0.8597
12914TIP3    H260234   4.684   6.226  14.772 -0.3102 -1.1965  0.0868
12915TIP3   OH260235   4.931   1.153   4.045  0.2773 -0.1101  0.1640
12915TIP3    H160236   4.915   1.195   4.129 -0.7825 -2.9193  1.4245
12915TIP3    H260237   4.998   1.087   4.064 -1.5660 -2.2780 -0.6950
12916TIP3   OH260238   1.668   5.819   3.612  0.5064 -0.1395 -0.3525
12916TIP3    H160239   1.735   5.861   3.667 -0.1311 -0.7837  0.9333
12916TIP3    H260240   1.645   5.886   3.548  1.0466  0.7484  0.3573
12917TIP3   OH260241   5.510   0.367   2.019 -0.1673  0.0580  0.5323
12917TIP3    H160242   5.517   0.453   2.060  0.2818 -0.2150  1.0462
12917TIP3    H260243   5.556   0.376   1.936  0.0513  0.2632  0.6735
12918TIP3   OH260244   2.578   1.044  16.771  0.5524  0.1695  0.1758
12918TIP3    H160245   2.659   1.092  16.757  0.8218  0.0888  1.4396
12918TIP3    H260246   2.520   1.106  16.816  0.1916 -0.0277 -0.0132
12919TIP3   OH260247   1.493   3.960   0.701 -0.1264  0.2970  0.3233
12919TIP3    H160248   1.412   4.009   0.684  1.0510  2.1240 -0.2172
12919TIP3    H260249   1.556   3.997   0.640  0.9350 -1.6433  0.2149
12920TIP3   OH260250   2.128   6.371   3.302 -0.9729  0.3170  0.3771
12920TIP3    H160251   2.206   6.425   3.289 -1.7647  1.3803 -0.0216
12920TIP3    H260252   2.134   6.342   3.392 -0.3194  0.7390  0.4744
12921TIP3   OH260253   1.011   1.746  14.817  0.1178 -0.3414  0.2504
12921TIP3    H160254   0.992   1.774  14.728 -0.8126  0.1061  0.5717
12921TIP3    H260255   1.101   1.774  14.833  0.0266  0.2662 -0.2837
12922TIP3   OH260256   3.153   5.849   1.917 -0.2022  0.0625 -0.3084
12922TIP3    H160257   3.202   5.793   1.977 -0.1877 -0.7763 -1.0967
12922TIP3    H260258   3.131   5.926   1.969  0.6041 -0.2499  0.5039
12923TIP3   OH260259   4.669   4.308   4.538  0.1134  0.6562 -0.3838
12923TIP3    H160260   4.650   4.340   4.626 -1.3743  2.1728 -1.2501
12923TIP3    H260261   4.765   4.303   4.535  0.1521 -0.8547  1.8067
12924TIP3   OH260262   1.604   2.477  15.180  0.3910  0.0765  0.3043
12924TIP3    H160263   1.693   2.493  15.148  1.0892  1.0573  2.6650
12924TIP3    H260264   1.569   2.564  15.199 -0.7702 -0.3575  0.2175
12925TIP3   OH260265   4.591   3.454   3.428  0.4919 -0.1133 -0.2516
12925TIP3    H160266   4.634   3.382   3.474  0.5507 -1.0737 -1.7715
12925TIP3    H260267   4.498   3.444   3.448  0.5175 -0.5141 -0.3400
12926TIP3   OH260268   1.804   2.608  15.008 -0.0504  0.3873 -0.1127
12926TIP3    H160269   1.889   2.651  15.007  0.2902 -0.2893 -1.9894
12926TIP3    H260270   1.760   2.638  14.929 -0.7823 -0.7996 -0.1778
12927TIP3   OH260271   2.971   0.467   4.828 -0.0805  0.0804 -0.4318
12927TIP3    H160272   3.051   0.499   4.786 -0.6947  1.9396 -0.2306
12927TIP3    H260273   2.992   0.465   4.921 -0.1245  0.1287 -0.4204
12928TIP3   OH260274   3.644   2.394  15.962  0.5833  0.2272  0.1554
12928TIP3    H160275   3.701   2.391  15.885 -1.2118 -2.2299 -1.1364
12928TIP3    H260276   3.688   2.455  16.021  2.7499  1.0701 -2.2039
12929TIP3   OH260277   6.356   3.329   4.017  0.9382 -0.2335 -0.1452
12929TIP3    H160278   6.330   3.332   3.925  0.5873  0.9747 -0.0088
12929TIP3    H260279   6.281   3.290   4.062  0.7202  0.0793 -0.2372
12930TIP3   OH260280   1.078   0.451  15.970  0.4736  0.0598  0.0001
12930TIP3    H160281   1.057   0.536  15.931  0.2437  0.3682  0.7895
12930TIP3    H260282   1.133   0.473  16.046 -1.1590 -0.3634  1.3357
12931TIP3   OH260283   6.543   5.099  13.777 -0.1336 -0.0542 -0.4197
12931TIP3    H160284   6.478   5.143  13.832 -0.7399 -1.1235 -0.2655
12931TIP3    H260285   6.572   5.024  13.830  0.4580 -0.1776 -0.9138
12932TIP3   OH260286   5.019   0.612   0.961  0.2615 -0.5340  0.1934
12932TIP3    H160287   4.963   0.687   0.981  1.8977  0.5427  0.9493
12932TIP3    H260288   4.967   0.535   0.983 -0.4579  0.4762  2.1057
12933TIP3   OH260289   5.117   3.170  12.929 -0.0479  0.3857 -0.0131
12933TIP3    H160290   5.076   3.084  12.940  0.9850 -0.0918  0.1732
12933TIP3    H260291   5.210   3.154  12.946 -0.2918  2.1764  3.4812
12934TIP3   OH260292   3.233   4.521   4.019  0.3612  0.4302 -0.3660
12934TIP3    H160293   3.290   4.553   3.949  0.6070  0.9768  0.0781
12934TIP3    H260294   3.274   4.439   4.047  1.1336  0.9888  0.1803
12935TIP3   OH260295   2.676   1.332  11.633 -0.0513  0.0647  0.0095
12935TIP3    H160296   2.676   1.237  11.637  1.8163  0.0239 -0.2717
12935TIP3    H260297   2.744   1.353  11.568 -1.5675  1.5453 -1.1401
12936TIP3   OH260298   6.402   0.688   0.595  0.3940  0.6698  0.3533
12936TIP3    H160299   6.351   0.719   0.670  1.6510  0.2006  1.4095
12936TIP3    H260300   6.462   0.759   0.576 -0.6360  1.2322 -0.9139
12937TIP3   OH260301   6.087   2.601  13.022  0.0771 -0.3327  0.1165
12937TIP3    H160302   6.021   2.580  12.956 -0.2620 -0.2668  0.4295
12937TIP3    H260303   6.092   2.696  13.021  0.9130 -0.3854 -0.6282
12938TIP3   OH260304   4.302   4.606   3.482 -0.5220  0.1157  0.2875
12938TIP3    H160305   4.315   4.682   3.426  0.8594 -1.2412 -1.2722
12938TIP3    H260306   4.364   4.618   3.554 -0.6962  0.7283  0.3405
12939TIP3   OH260307   1.268   6.299  13.968  0.9535  0.7346 -0.1381
12939TIP3    H160308   1.269   6.262  14.056 -0.6012  0.3785 -0.2608
12939TIP3    H260309   1.250   6.392  13.982 -0.3975  0.4780 -0.1377
12940TIP3   OH260310   5.783   2.341  16.505  0.1793 -0.3308 -0.2253
12940TIP3    H160311   5.838   2.347  16.583 -1.1357 -0.8937  0.7542
12940TIP3    H260312   5.735   2.423  16.503 -2.0374 -1.5480  1.2808
12941TIP3   OH260313   4.303   4.255  16.262 -0.0826  0.2672 -0.2780
12941TIP3    H160314   4.221   4.288  16.226 -1.0302 -1.3962  0.2912
12941TIP3    H260315   4.356   4.235  16.185 -1.3142 -1.3345 -0.7331
12942TIP3   OH260316   2.782   5.991   1.156  0.1176  0.5372  0.2094
12942TIP3    H160317   2.877   5.982   1.151  0.1872  1.1212  0.5357
12942TIP3    H260318   2.754   5.917   1.211  0.4754  0.9121  0.9051
12943TIP3   OH260319   1.616   3.423  16.677  0.2102 -0.2653  0.5165
12943TIP3    H160320   1.624   3.477  16.598 -1.8293  0.7475  0.9389
12943TIP3    H260321   1.635   3.484  16.749 -0.1158 -0.6184  0.9016
12944TIP3   OH260322   5.376   3.782   9.869 -0.1578 -0.3861  0.3320
12944TIP3    H160323   5.393   3.697   9.910 -0.1239 -0.0195  1.0796
12944TIP3    H260324   5.283   3.799   9.887  0.0828  0.1910  1.0225
12945TIP3   OH260325   3.311   0.606   5.803 -0.9114  0.0622  0.4525
12945TIP3    H160326   3.245   0.673   5.785  0.0547  0.9710  0.2272
12945TIP3    H260327   3.320   0.606   5.899 -0.5738  0.5968  0.4238
12946TIP3   OH260328   0.983   4.891  14.135 -0.3498 -0.2775  0.3499
12946TIP3    H160329   0.987   4.827  14.064  0.9843  0.3898 -0.2037
12946TIP3    H260330   0.981   4.839  14.215 -0.9809 -1.0269 -0.1549
12947TIP3   OH260331   1.260   1.041  12.314 -0.4380  0.2354  0.6166
12947TIP3    H160332   1.181   0.988  12.311 -0.3730  0.1885 -0.2184
12947TIP3    H260333   1.308   1.019  12.234  0.4074  0.2767  1.1024
12948TIP3   OH260334   1.129   3.236   1.905  0.3089 -0.1909 -0.5386
12948TIP3    H160335   1.067   3.256   1.835  1.0961 -1.0020 -1.4788
12948TIP3    H260336   1.178   3.160   1.873  1.9426  0.5714  0.0860
12949TIP3   OH260337   6.718   4.191  14.042  0.2833 -0.2605 -0.2795
12949TIP3    H160338   6.627   4.218  14.026  0.0048 -1.8073 -1.3953
12949TIP3    H260339   6.730   4.113  13.987  2.5657  0.4409 -0.7948
12950TIP3   OH260340   1.983   1.733  11.815 -0.0293  0.1845 -0.5536
12950TIP3    H160341   2.054   1.786  11.851  2.8737 -3.3918 -0.7292
12950TIP3    H260342   1.933   1.705  11.892  1.5404 -1.0824  0.0245
12951TIP3   OH260343   4.886   3.158   1.071 -0.2763  0.3084 -0.0792
12951TIP3    H160344   4.880   3.249   1.045 -2.8409  1.1193  3.0402
12951TIP3    H260345   4.801   3.120   1.051  0.3430 -1.0701 -0.1985
12952TIP3   OH260346   4.453   4.705  11.466  0.1395  0.2065 -0.3360
12952TIP3    H160347   4.405   4.779  11.429 -0.5620 -0.5833 -1.0113
12952TIP3    H260348   4.489   4.739  11.548 -0.5704  1.1593 -0.4107
12953TIP3   OH260349   6.817   1.669  14.548 -0.0773 -0.4998 -0.4653
12953TIP3    H160350   6.809   1.680  14.454  1.2094 -0.1339 -0.5496
12953TIP3    H260351   6.890   1.726  14.572  0.1769 -1.2654  0.6140
12954TIP3   OH260352   5.217   3.739  14.522  0.4596 -0.3214 -0.4359
12954TIP3    H160353   5.128   3.742  14.485  0.4569  1.6361 -0.3002
12954TIP3    H260354   5.271   3.786  14.458  0.6845  1.9833  1.3849
12955TIP3   OH260355   0.020   0.531  14.629  0.5899 -0.2875 -0.4222
12955TIP3    H160356   0.010   0.440  14.657  2.2370 -0.4385 -0.2838
12955TIP3    H260357  -0.004   0.530  14.536 -0.2639 -0.6874 -0.1998
12956TIP3   OH260358   4.628   3.094  12.021 -0.0733 -0.4549 -0.1074
12956TIP3    H160359   4.672   3.172  11.989 -1.1423 -0.0173 -0.5348
12956TIP3    H260360   4.613   3.112  12.114 -0.8551  0.1132 -0.3356
12957TIP3   OH260361   0.403   2.535  13.573  0.0814  0.3271 -0.2471
12957TIP3    H160362   0.325   2.573  13.614  0.8955 -0.1354  1.8262
12957TIP3    H260363   0.392   2.440  13.584  1.3786  0.2956  1.0019
12958TIP3   OH260364   3.690   3.473  12.867 -0.2130 -0.1207  0.2840
12958TIP3    H160365   3.772   3.498  12.908  0.2050 -1.3800  0.2482
12958TIP3    H260366   3.703   3.489  12.773 -0.8028  1.7800  0.5169
12959TIP3   OH260367   4.714   6.355   1.799 -0.0524 -0.6243 -0.1088
12959TIP3    H160368   4.714   6.399   1.884  0.6513 -0.2804 -0.2892
12959TIP3    H260369   4.782   6.287   1.807  0.2233 -0.3948 -0.5001
12960TIP3   OH260370   1.352   0.194  14.158 -0.2523 -0.1610 -0.3765
12960TIP3    H160371   1.433   0.195  14.107  1.3062 -2.2808  1.9713
12960TIP3    H260372   1.376   0.233  14.242 -2.1628  0.9410 -0.3054
12961TIP3   OH260373   2.525   1.173  16.256  0.2998  0.2281  0.1707
12961TIP3    H160374   2.588   1.237  16.222  0.8463  1.2294  2.9555
12961TIP3    H260375   2.483   1.218  16.330  0.3790 -2.4751  1.9063
12962TIP3   OH260376   1.862   3.020   2.043  0.6321  0.0135 -0.2804
12962TIP3    H160377   1.933   2.976   1.997  0.8703 -0.1163  0.2134
12962TIP3    H260378   1.794   3.033   1.976  1.3896  0.7620 -0.9193
12963TIP3   OH260379   3.661   5.938   4.285  0.6622 -0.0135 -0.0963
12963TIP3    H160380   3.662   5.843   4.276 -0.3658  0.0977 -1.4795
12963TIP3    H260381   3.639   5.971   4.198  0.3480  1.4718  0.5210
12964TIP3   OH260382   3.765   4.959  10.355 -0.0785 -0.2407 -0.3546
12964TIP3    H160383   3.730   4.873  10.378 -1.8494  1.1635  2.4615
12964TIP3    H260384   3.860   4.950  10.364 -0.1571 -2.2301 -1.3590
12965TIP3   OH260385   6.353   3.564  13.827  0.1954  0.5024  0.7262
12965TIP3    H160386   6.280   3.624  13.843  1.0571  1.7379  0.1541
12965TIP3    H260387   6.428   3.622  13.812  0.3564 -0.6187 -3.3020
12966TIP3   OH260388   0.600   3.094  16.991  0.2226 -0.3228  0.0058
12966TIP3    H160389   0.672   3.038  17.021  0.0348  0.4935  2.0852
12966TIP3    H260390   0.621   3.113  16.900  3.0112  0.4126  0.7542
12967TIP3   OH260391   3.446   4.885  17.235  0.5937  0.2668 -0.3130
12967TIP3    H160392   3.391   4.858  17.162  1.3016  0.4272 -0.9129
12967TIP3    H260393   3.402   4.962  17.271 -1.2308 -1.4407  1.1913
12968TIP3   OH260394   4.055   1.635  13.434 -0.0868 -0.4623 -0.5213
12968TIP3    H160395   4.090   1.664  13.349  2.3934 -3.8263 -0.7406
12968TIP3    H260396   4.111   1.677  13.498  2.1078 -2.8768 -0.7812
12969TIP3   OH260397   0.399   3.882   0.706  0.2128 -0.3824  0.5179
12969TIP3    H160398   0.379   3.952   0.768 -1.1176  0.7431 -1.1245
12969TIP3    H260399   0.334   3.893   0.636  1.6731 -1.6194 -1.0647
12970TIP3   OH260400   5.031   0.560   0.249  0.4693  0.1441  0.1210
12970TIP3    H160401   5.013   0.474   0.286 -0.1650  0.8714  1.5540
12970TIP3    H260402   5.073   0.608   0.321  1.7710  0.6876 -0.9942
12971TIP3   OH260403   5.752   1.640  12.343  1.0728  0.0660  0.3755
12971TIP3    H160404   5.712   1.702  12.404 -0.7407 -0.7753  0.0641
12971TIP3    H260405   5.818   1.692  12.296  1.8598  0.9344  2.4031
12972TIP3   OH260406   0.897   6.234  15.240  0.3096  0.3562 -0.1489
12972TIP3    H160407   0.975   6.269  15.197  0.5434  0.4334  0.3277
12972TIP3    H260408   0.860   6.310  15.286 -0.0132  0.3084 -0.3357
12973TIP3   OH260409   0.020   4.871  10.646  0.6810  0.2313 -0.3790
12973TIP3    H160410   0.020   4.965  10.626 -0.0355  0.2580 -0.2698
12973TIP3    H260411   0.034   4.867  10.741  1.4547  0.1971 -0.4915
12974TIP3   OH260412   4.039   6.771   3.573 -0.6525 -0.0880 -0.2246
12974TIP3    H160413   3.959   6.720   3.575 -0.4269 -0.4226  0.7496
12974TIP3    H260414   4.011   6.859   3.549 -0.9207 -0.8667 -2.9024
12975TIP3   OH260415   6.228   2.517   2.198  0.3442  0.0382  0.4378
12975TIP3    H160416   6.187   2.579   2.258 -0.0375 -0.6605  0.9060
12975TIP3    H260417   6.224   2.559   2.113  1.4267  1.3078  0.9929
12976TIP3   OH260418   2.829   2.110   0.428  0.1959 -0.4718 -0.1178
12976TIP3    H160419   2.753   2.066   0.466 -0.3357 -0.5872 -1.2854
12976TIP3    H260420   2.883   2.134   0.503 -0.2535 -1.7530  0.6287
12977TIP3   OH260421   4.100   0.951  15.247  0.7791  0.2719  0.4125
12977TIP3    H160422   4.028   0.913  15.299  2.2669 -3.7240 -0.2198
12977TIP3    H260423   4.064   0.961  15.159  1.1484 -2.5608 -0.1184
12978TIP3   OH260424   6.189   2.861   5.743  0.0730 -0.5674 -0.6240
12978TIP3    H160425   6.151   2.774   5.750  0.2720 -0.5876  0.3237
12978TIP3    H260426   6.284   2.846   5.743  0.0949 -0.4069 -1.2253
12979TIP3   OH260427   6.373   3.911   2.092 -0.1881 -0.0610 -0.6941
12979TIP3    H160428   6.319   3.943   2.020 -3.3427 -3.4068  0.0306
12979TIP3    H260429   6.387   3.987   2.148 -1.4341  1.5735 -2.5459
12980TIP3   OH260430   6.657   1.064   2.791  0.1327  0.0599 -1.0427
12980TIP3    H160431   6.734   1.093   2.839 -0.3342  0.4597 -0.5375
12980TIP3    H260432   6.590   1.052   2.858 -0.3982  0.2160 -1.5426
12981TIP3   OH260433   1.178   3.313  11.199  0.2051  0.2532  0.2190
12981TIP3    H160434   1.273   3.303  11.191  0.1756  0.8047 -1.0176
12981TIP3    H260435   1.148   3.230  11.234  1.2039  0.2539  1.0952
12982TIP3   OH260436   6.786   0.685   4.550  0.3785  0.4876  0.0455
12982TIP3    H160437   6.853   0.649   4.609 -0.1444  0.2773  0.5136
12982TIP3    H260438   6.705   0.679   4.600  0.1238  1.3787 -0.2606
12983TIP3   OH260439   1.756   4.927  13.924 -0.4223 -0.3020 -0.1707
12983TIP3    H160440   1.701   4.905  13.849  0.7361 -0.3830 -1.0005
12983TIP3    H260441   1.727   5.014  13.950  2.3575  1.7909 -3.6975
12984TIP3   OH260442   2.007   2.913  13.773 -0.3609  0.3787  0.0709
12984TIP3    H160443   2.076   2.959  13.724  0.2853 -0.6959 -0.0521
12984TIP3    H260444   1.927   2.961  13.752  0.3459  1.6439  0.2030
12985TIP3   OH260445   2.940   4.015   4.268  0.2363 -0.2628 -0.7640
12985TIP3    H160446   2.963   3.925   4.246 -1.8668 -0.5516 -1.8511
12985TIP3    H260447   2.940   4.017   4.364  0.6450 -1.3137 -0.7342
12986TIP3   OH260448   5.707   3.568  15.241  0.6144  0.3496  0.1343
12986TIP3    H160449   5.670   3.643  15.194  0.4139  0.8168  1.0322
12986TIP3    H260450   5.715   3.500  15.174 -2.9001 -0.1531  0.1279
12987TIP3   OH260451   2.321   4.031   5.772  0.4241 -0.0028  0.2749
12987TIP3    H160452   2.272   4.048   5.691 -0.2353  1.2479  0.9262
12987TIP3    H260453   2.390   4.097   5.772  0.6411 -0.2298  0.5702
12988TIP3   OH260454   0.264   6.820   4.092 -0.3391 -0.0528  1.1270
12988TIP3    H160455   0.231   6.730   4.093 -1.3361  0.2550 -0.7757
12988TIP3    H260456   0.263   6.844   3.999 -0.2415  1.9827  1.6335
12989TIP3   OH260457   3.629   5.232  14.304  0.3595 -0.0822 -0.1219
12989TIP3    H160458   3.702   5.208  14.361  1.2706  1.9425 -0.3761
12989TIP3    H260459   3.619   5.157  14.246  1.1170 -1.0994  1.0282
12990TIP3   OH260460   1.721   6.679   6.746  0.6268  0.0316  0.5866
12990TIP3    H160461   1.646   6.696   6.688  1.7771 -0.8659 -1.2158
12990TIP3    H260462   1.684   6.631   6.820 -0.7348  0.3867  0.1453
12991TIP3   OH260463   6.732   6.776  12.812 -0.0378  0.1741  0.3482
12991TIP3    H160464   6.730   6.771  12.717  0.9666  0.8470  0.2752
12991TIP3    H260465   6.745   6.869  12.830  1.5099 -0.1735  1.0927
12992TIP3   OH260466   0.475   1.937  12.098 -0.1847 -0.1127 -0.0929
12992TIP3    H160467   0.450   2.003  12.034 -0.9793 -1.2964 -1.0277
12992TIP3    H260468   0.429   1.962  12.178  0.1030  0.8725 -0.2348
12993TIP3   OH260469   0.146   3.823  14.589  0.1787 -0.0177 -0.6063
12993TIP3    H160470   0.079   3.891  14.598  0.2736  0.0179 -0.1593
12993TIP3    H260471   0.212   3.846  14.654 -0.3550 -1.1906  0.3794
12994TIP3   OH260472   6.449   0.448  15.861 -0.1634 -0.0179  0.1726
12994TIP3    H160473   6.409   0.409  15.783  0.1055  0.6234 -0.2942
12994TIP3    H260474   6.443   0.543  15.846  0.2924  0.1013  0.7255
12995TIP3   OH260475   2.192   3.479  11.770  0.4013  0.0665 -0.7440
12995TIP3    H160476   2.124   3.424  11.809  0.1707  1.5040  0.9611
12995TIP3    H260477   2.235   3.422  11.706 -1.8710 -1.1053 -1.2739
12996TIP3   OH260478   6.767   4.265   2.320  0.3961 -0.0147  0.3619
12996TIP3    H160479   6.726   4.179   2.310 -1.8290  1.0626  0.0778
12996TIP3    H260480   6.828   4.270   2.246 -0.8516 -0.5704 -0.7270
12997TIP3   OH260481   0.359   0.677   1.882 -0.4585  0.2347 -0.2453
12997TIP3    H160482   0.443   0.645   1.850 -0.7498 -1.0943  0.2603
12997TIP3    H260483   0.340   0.753   1.827  2.0249  1.7997  0.9980
12998TIP3   OH260484   5.842   2.151  14.330 -0.0381 -0.1479 -0.4825
12998TIP3    H160485   5.854   2.068  14.377  1.8389 -0.0615 -0.7879
12998TIP3    H260486   5.900   2.145  14.254  0.1565  1.4740 -0.4821
12999TIP3   OH260487   4.202   6.351   1.316  0.2493 -0.3249 -0.0173
12999TIP3    H160488   4.243   6.438   1.311 -0.4213  0.0169  0.3594
12999TIP3    H260489   4.252   6.305   1.383 -2.0110  1.2188  2.8471
13000TIP3   OH260490   1.482   2.995   0.328 -0.0094  0.6161 -0.2177
13000TIP3    H160491   1.415   3.044   0.281  0.0838  0.2665 -0.7328
13000TIP3    H260492   1.478   3.027   0.418 -0.5449  0.9291 -0.3523
13001TIP3   OH260493   2.741   0.169  16.412 -0.2592 -0.1157 -0.0250
13001TIP3    H160494   2.821   0.191  16.459 -0.6098  2.0813 -0.4064
13001TIP3    H260495   2.701   0.098  16.463  0.7038  0.4222  1.4962
13002TIP3   OH260496   6.149   5.167  12.502 -0.4892 -0.2191 -0.4518
13002TIP3    H160497   6.185   5.225  12.569  0.4238  0.7740 -1.7818
13002TIP3    H260498   6.225   5.136  12.453 -1.1491 -0.8603 -1.0910
13003TIP3   OH260499   5.675   3.908  16.789  0.6845  0.1083 -0.1517
13003TIP3    H160500   5.694   3.825  16.745 -1.4704 -0.3991 -0.2108
13003TIP3    H260501   5.668   3.972  16.717  0.9829  0.0639 -0.2212
13004TIP3   OH260502   5.191   6.496  14.761  0.8725 -0.3898  0.4988
13004TIP3    H160503   5.196   6.550  14.840 -0.6085 -1.9164  1.6459
13004TIP3    H260504   5.099   6.475  14.751  1.0816 -0.4386 -1.4950
13005TIP3   OH260505   5.887   6.423  12.510  0.2286 -0.0819 -0.4063
13005TIP3    H160506   5.932   6.506  12.527 -1.4321  0.5769  0.8625
13005TIP3    H260507   5.911   6.368  12.585 -2.0754  0.7162  0.9668
13006TIP3   OH260508   5.677   4.343  10.063  0.0247 -0.0586  0.5965
13006TIP3    H160509   5.760   4.381  10.035  0.7083 -2.0934 -0.2031
13006TIP3    H260510   5.629   4.416  10.102  1.2362  1.6636 -1.0465
13007TIP3   OH260511   5.178   6.692  15.976  0.5362  0.1163  0.4378
13007TIP3    H160512   5.228   6.716  15.898 -0.3356 -0.0274 -0.1704
13007TIP3    H260513   5.171   6.597  15.972  0.8778  0.0664  0.9365
13008TIP3   OH260514   0.807   4.188   0.886 -0.4377 -0.3144 -0.3363
13008TIP3    H160515   0.718   4.178   0.851 -0.5420 -1.3596  0.2037
13008TIP3    H260516   0.795   4.194   0.980  0.2451 -3.5248  0.0290
13009TIP3   OH260517   3.608   4.076   5.532 -0.2769 -0.1889  0.0099
13009TIP3    H160518   3.590   3.988   5.564 -2.0758 -0.0603 -0.5858
13009TIP3    H260519   3.522   4.112   5.511  0.4074  1.8354  0.5467
13010TIP3   OH260520   4.472   0.632   0.397 -0.1955 -0.1022  0.0099
13010TIP3    H160521   4.516   0.639   0.483  0.4816 -0.5107 -0.2943
13010TIP3    H260522   4.432   0.718   0.384  0.5511  0.2971  0.2841
13011TIP3   OH260523   3.520   2.701  16.914  0.3995 -0.6644 -0.1351
13011TIP3    H160524   3.578   2.760  16.868  0.8564 -0.5120  0.6279
13011TIP3    H260525   3.530   2.724  17.007 -1.6575  0.0832 -0.0798
13012TIP3   OH260526   0.542   2.129  14.242  0.0887 -0.6438 -0.0730
13012TIP3    H160527   0.564   2.219  14.266 -2.3671  0.4734 -1.7757
13012TIP3    H260528   0.488   2.097  14.315 -1.4613  0.3060 -0.7694
13013TIP3   OH260529   3.535   4.571  15.417 -0.1504 -0.0092  0.7296
13013TIP3    H160530   3.533   4.586  15.322 -0.2726 -0.2647  0.6898
13013TIP3    H260531   3.572   4.651  15.453  0.8876 -0.3161  0.3800
13014TIP3   OH260532   2.514   4.856   3.509 -0.4630  0.6265 -0.3377
13014TIP3    H160533   2.489   4.833   3.599 -0.7033  0.0168 -0.5522
13014TIP3    H260534   2.609   4.867   3.513 -0.5653  1.3956  0.1557
13015TIP3   OH260535   6.052   0.641  12.735  0.0923  0.5784 -0.3393
13015TIP3    H160536   6.138   0.664  12.769 -0.2816  1.7394 -0.1696
13015TIP3    H260537   6.049   0.681  12.648  0.7210 -1.6671 -1.4303
13016TIP3   OH260538   4.806   6.012   3.836  0.6816  0.4520  0.2753
13016TIP3    H160539   4.765   5.926   3.849 -1.7153  1.6367  0.9467
13016TIP3    H260540   4.785   6.035   3.746  1.4183  0.2739  0.0619
13017TIP3   OH260541   2.320   2.909  13.091  0.0917 -0.4565 -0.0611
13017TIP3    H160542   2.244   2.851  13.088  0.1967 -0.6462  0.8038
13017TIP3    H260543   2.316   2.950  13.177  1.1069 -0.6724  0.0956
13018TIP3   OH260544   6.055   6.458  11.770 -0.0822 -0.0840  0.4793
13018TIP3    H160545   5.985   6.433  11.830 -1.2694  0.3407 -0.7155
13018TIP3    H260546   6.110   6.379  11.763 -2.7077 -1.8107 -1.7353
13019TIP3   OH260547   5.441   4.555   5.339 -0.3771 -0.2079  0.0829
13019TIP3    H160548   5.514   4.612   5.365 -0.2357 -0.8419  1.0974
13019TIP3    H260549   5.423   4.502   5.416 -0.1735 -1.9023 -1.0054
13020TIP3   OH260550   2.411   4.636  12.724 -0.1861  0.8380  0.5222
13020TIP3    H160551   2.470   4.611  12.795  1.7552 -0.0289 -1.3038
13020TIP3    H260552   2.387   4.552  12.683  0.9565  1.4509 -1.5057
13021TIP3   OH260553   1.353   5.916   1.360 -0.0969  0.0139  0.0404
13021TIP3    H160554   1.404   5.936   1.438  2.5680 -0.2910 -1.5641
13021TIP3    H260555   1.409   5.942   1.287 -2.4407  0.0936 -1.7921
13022TIP3   OH260556   4.529   3.540  14.057 -0.2244  0.9412  0.6214
13022TIP3    H160557   4.446   3.580  14.085 -0.1927  0.6280  1.1715
13022TIP3    H260558   4.583   3.614  14.031 -0.4606  1.1955  0.8490
13023TIP3   OH260559   2.630   4.049   1.791  0.0732  0.2679  0.0162
13023TIP3    H160560   2.557   4.112   1.793  0.9972  1.4213 -1.2205
13023TIP3    H260561   2.694   4.084   1.852  0.3475  0.2272 -0.2460
13024TIP3   OH260562   4.953   5.748   2.906 -0.2143 -0.2596 -0.6488
13024TIP3    H160563   5.010   5.671   2.916 -0.2843 -0.2737 -0.3505
13024TIP3    H260564   4.890   5.722   2.839  0.0535 -0.2899 -0.8911
13025TIP3   OH260565   2.895   0.984  11.596  0.5162 -0.0912 -0.1856
13025TIP3    H160566   2.936   0.949  11.516 -0.3975 -0.6250 -0.4290
13025TIP3    H260567   2.810   1.016  11.567  0.2787 -0.0665  0.5325
13026TIP3   OH260568   5.941   3.815   5.029 -0.1106  0.1408 -0.1594
13026TIP3    H160569   5.978   3.779   4.949 -0.2997  1.0747 -0.6662
13026TIP3    H260570   5.876   3.750   5.057  1.3445 -1.1480  0.3249
13027TIP3   OH260571   0.779   3.119   3.383 -0.0338  0.2621 -0.1006
13027TIP3    H160572   0.847   3.118   3.316  0.5230 -1.2931  0.4688
13027TIP3    H260573   0.823   3.088   3.462 -0.9908  0.8818  0.6902
13028TIP3   OH260574   4.822   0.286  14.424  0.2283  0.2632 -0.0373
13028TIP3    H160575   4.821   0.316  14.333 -1.2600  0.0665 -0.0940
13028TIP3    H260576   4.750   0.333  14.466  2.1253  1.8692  1.5640
13029TIP3   OH260577   2.416   2.559   4.453 -0.5592 -0.3903  0.2918
13029TIP3    H160578   2.458   2.477   4.426 -0.1395 -0.3001  0.6728
13029TIP3    H260579   2.442   2.571   4.544  0.4958  0.8627 -0.1527
13030TIP3   OH260580   4.730   2.422   5.584 -0.2583 -0.6160  0.4394
13030TIP3    H160581   4.778   2.384   5.657 -2.0128 -0.5701  1.6603
13030TIP3    H260582   4.646   2.448   5.622 -0.9649 -0.0402 -1.4650
13031TIP3   OH260583   4.241   2.114  17.286 -0.3494  0.5820 -0.1702
13031TIP3    H160584   4.323   2.065  17.292 -0.5237  0.4441  1.2454
13031TIP3    H260585   4.181   2.066  17.343 -1.0631  1.3823 -0.2416
13032TIP3   OH260586   6.797   1.004   4.523  0.8534  0.2345 -0.2613
13032TIP3    H160587   6.802   0.915   4.558  1.2345  0.8044  1.1634
13032TIP3    H260588   6.810   1.061   4.599  0.4866  1.5152 -1.1340
13033TIP3   OH260589   6.190   4.742  17.060  0.4562  0.6001 -0.6007
13033TIP3    H160590   6.223   4.711  17.145 -1.8557 -0.3045 -0.0041
13033TIP3    H260591   6.211   4.672  16.999  2.2681  1.3223 -0.8366
13034TIP3   OH260592   1.786   1.002   5.296 -0.1956 -0.9380 -0.5337
13034TIP3    H160593   1.709   0.945   5.291 -1.1841  0.3841 -0.6821
13034TIP3    H260594   1.791   1.028   5.388 -0.9018  0.2960 -0.8449
13035TIP3   OH260595   5.242   0.863   0.796 -0.2261  0.0183 -0.3794
13035TIP3    H160596   5.168   0.899   0.844  0.1356 -1.0037  0.9752
13035TIP3    H260597   5.315   0.867   0.858  0.3550 -0.9025 -0.9910
13036TIP3   OH260598   6.193   2.299  16.470  0.2387 -0.0209 -0.1228
13036TIP3    H160599   6.205   2.302  16.375  1.7238  0.4918  0.0828
13036TIP3    H260600   6.182   2.206  16.490  1.0827 -0.2332 -0.6536
13037TIP3   OH260601   6.692   5.775  13.458  0.6763  0.2684  0.0750
13037TIP3    H160602   6.633   5.831  13.408  1.1237  1.1510  0.5170
13037TIP3    H260603   6.639   5.699  13.481 -0.3293  1.1183  0.5951
13038TIP3   OH260604   5.107   2.768  12.517  0.2541  0.6035 -0.1261
13038TIP3    H160605   5.090   2.807  12.432  0.3994 -0.5941 -0.7193
13038TIP3    H260606   5.026   2.722  12.540  1.0675 -1.2792 -0.8552
13039TIP3   OH260607   3.080   0.108  11.342  0.0591 -0.1797 -0.1925
13039TIP3    H160608   3.032   0.132  11.421 -0.2039 -1.0907 -0.0651
13039TIP3    H260609   3.049   0.169  11.275  0.7766  1.0379  0.5610
13040TIP3   OH260610   5.541   4.239   2.370  0.3070  0.1628 -0.0244
13040TIP3    H160611   5.505   4.239   2.459 -0.4387  0.9817 -0.3195
13040TIP3    H260612   5.547   4.146   2.347  1.3756 -0.0983  1.2182
13041TIP3   OH260613   3.113   3.960  11.526 -0.1280  0.1058  0.2971
13041TIP3    H160614   3.051   4.006  11.582 -0.2465  0.8391 -0.4323
13041TIP3    H260615   3.113   4.009  11.444  1.4014  0.1005  0.2827
13042TIP3   OH260616   2.312   5.841  13.056  0.7399  0.2705 -0.1192
13042TIP3    H160617   2.258   5.864  12.980 -1.7822  0.8653  1.8019
13042TIP3    H260618   2.400   5.872  13.033 -0.9242  4.7926 -0.8776
13043TIP3   OH260619   6.181   2.135  16.004 -0.4146  0.1381 -0.3859
13043TIP3    H160620   6.108   2.197  16.001 -0.0242  0.6856  1.4184
13043TIP3    H260621   6.199   2.116  15.911 -1.1209  2.0009 -0.9323
13044TIP3   OH260622   1.775   4.251  15.070 -0.2076 -0.6954 -0.2700
13044TIP3    H160623   1.777   4.346  15.056  0.3364 -0.5612  0.6638
13044TIP3    H260624   1.682   4.231  15.083 -0.4171 -0.4206 -1.2727
13045TIP3   OH260625   4.902   2.496  15.206  0.6240  0.1404 -0.2779
13045TIP3    H160626   4.902   2.572  15.264 -0.1349  0.4132 -0.6348
13045TIP3    H260627   4.854   2.429  15.255 -0.8191  0.6580 -0.9523
13046TIP3   OH260628   6.695   4.672   5.038 -0.0380 -0.7452 -0.3835
13046TIP3    H160629   6.748   4.638   5.109  1.9056  2.3061 -0.2594
13046TIP3    H260630   6.606   4.676   5.074  0.7723 -0.0438  1.5906
13047TIP3   OH260631   4.557   2.441  16.473  0.0250  0.2007 -0.7249
13047TIP3    H160632   4.579   2.473  16.385  0.0897 -0.7791 -1.0694
13047TIP3    H260633   4.492   2.372  16.458  0.8226 -0.7011 -0.0902
13048TIP3   OH260634   6.623   3.981   6.155  0.3520  0.0368 -0.4927
13048TIP3    H160635   6.584   3.953   6.073  0.0133  0.7306 -0.5621
13048TIP3    H260636   6.608   4.075   6.159 -2.7201 -0.4583  1.9773
13049TIP3   OH260637   6.545   4.346  11.684 -0.1664 -0.6855 -0.3924
13049TIP3    H160638   6.576   4.382  11.601  1.1481  0.1648  0.4498
13049TIP3    H260639   6.595   4.393  11.751 -0.5479 -2.0110  0.8469
13050TIP3   OH260640   5.837   4.694   3.136 -0.3212 -0.2928  0.5472
13050TIP3    H160641   5.812   4.621   3.193 -1.4740  0.9597  1.6983
13050TIP3    H260642   5.784   4.768   3.168 -1.0340  0.4299 -2.1834
13051TIP3   OH260643   1.985   2.166   4.384 -0.5356 -0.5523 -0.3164
13051TIP3    H160644   1.903   2.179   4.433  0.0404 -1.1257  0.8023
13051TIP3    H260645   2.029   2.094   4.429  0.2737 -0.6936 -1.3300
13052TIP3   OH260646   2.212   5.798  11.778  0.4229  0.4752  0.2146
13052TIP3    H160647   2.130   5.750  11.766 -0.3252  0.9109  3.0935
13052TIP3    H260648   2.268   5.737  11.827  0.3339  1.6000  1.7691
13053TIP3   OH260649   0.816   0.218   5.972 -0.0028 -0.2553  0.2572
13053TIP3    H160650   0.762   0.228   5.894  2.1114  2.4694 -0.9678
13053TIP3    H260651   0.886   0.159   5.944  0.0344 -0.3162  0.4827
13054TIP3   OH260652   4.792   6.420  11.572  0.3970  0.1981  0.3634
13054TIP3    H160653   4.828   6.380  11.492  0.2731  0.4815  0.1651
13054TIP3    H260654   4.720   6.362  11.597 -1.0209  1.3410 -1.0067
13055TIP3   OH260655   0.111   5.317   2.069 -0.0752 -0.2024 -0.1448
13055TIP3    H160656   0.205   5.301   2.066 -0.1617 -1.0666  1.1078
13055TIP3    H260657   0.100   5.375   2.145 -0.4633  0.5946 -0.8039
13056TIP3   OH260658   0.569   3.923  15.723  0.2390 -0.2113  0.0571
13056TIP3    H160659   0.486   3.916  15.677  0.7325  0.0717 -0.8930
13056TIP3    H260660   0.577   4.016  15.744  0.3146 -0.2347  0.1318
13057TIP3   OH260661   5.031   0.428  14.772 -0.8089  0.3670 -0.4893
13057TIP3    H160662   5.051   0.412  14.680 -0.9342  0.6319 -0.5628
13057TIP3    H260663   5.061   0.349  14.817  1.1441  1.0852 -0.4852
13058TIP3   OH260664   2.544   0.078   2.203  0.3126  0.3018 -0.3751
13058TIP3    H160665   2.629   0.068   2.247  0.8538 -3.1041 -2.0644
13058TIP3    H260666   2.566   0.109   2.116 -0.4781  2.8407  0.2854
13059TIP3   OH260667   2.903   6.081  15.100  0.0505  0.2681  0.0194
13059TIP3    H160668   2.987   6.053  15.063  0.5523 -0.8252  1.9336
13059TIP3    H260669   2.916   6.174  15.120  0.4338  0.3737 -0.6830
13060TIP3   OH260670   0.951   0.171  14.092 -0.6711 -0.1070 -0.0998
13060TIP3    H160671   0.987   0.225  14.162 -0.4408  1.1439 -1.1437
13060TIP3    H260672   0.860   0.201  14.083  0.5866  3.0674 -3.4060
13061TIP3   OH260673   3.265   2.923  14.796 -0.8884  0.1359 -0.3952
13061TIP3    H160674   3.313   2.844  14.822 -0.1143  0.9216  0.5972
13061TIP3    H260675   3.237   2.962  14.879 -2.0556  0.4285 -0.9178
13062TIP3   OH260676   6.144   5.960   1.212  0.0642 -0.4476 -0.2327
13062TIP3    H160677   6.105   5.932   1.296 -1.5005 -1.5879 -1.3118
13062TIP3    H260678   6.237   5.938   1.220 -0.4002 -2.2282  0.5197
13063TIP3   OH260679   5.717   0.747  13.173  0.0262  0.0768  0.3257
13063TIP3    H160680   5.660   0.796  13.232 -0.3298 -0.1332  0.1593
13063TIP3    H260681   5.668   0.667  13.153  0.0729  0.2140 -0.3701
13064TIP3   OH260682   5.481   1.384  16.682 -0.6212 -0.3352  0.2007
13064TIP3    H160683   5.533   1.464  16.681  0.6084 -1.1321 -0.0018
13064TIP3    H260684   5.504   1.339  16.601 -0.3838 -1.4761  0.8868
13065TIP3   OH260685   2.504   1.792   3.528  0.1843  0.3599  0.4862
13065TIP3    H160686   2.594   1.759   3.538  0.0137 -0.0519  0.6924
13065TIP3    H260687   2.506   1.879   3.566  0.8491  0.9261 -0.8262
13066TIP3   OH260688   1.521   5.071  12.505  0.2805  0.3295  0.2457
13066TIP3    H160689   1.575   4.993  12.523  2.9036  2.1217  0.4348
13066TIP3    H260690   1.564   5.113  12.431 -1.8382  0.9623 -0.6551
13067TIP3   OH260691   0.752   5.769   5.774  0.2205 -1.2309  0.0511
13067TIP3    H160692   0.721   5.839   5.717 -0.4954 -0.9603  0.7628
13067TIP3    H260693   0.700   5.693   5.750  0.5513 -1.3503 -0.2829
13068TIP3   OH260694   1.958   3.714  11.393  0.1831 -0.1434 -0.5487
13068TIP3    H160695   1.968   3.635  11.445 -0.0417  0.1466 -0.0638
13068TIP3    H260696   1.868   3.710  11.360 -1.0850  1.7482  2.5315
13069TIP3   OH260697   4.132   6.129   2.503  0.4329 -0.1007  0.2731
13069TIP3    H160698   4.145   6.137   2.409  1.0447 -1.2682  0.2438
13069TIP3    H260699   4.217   6.103   2.537  0.3338  0.7666  1.2164
13070TIP3   OH260700   3.100   1.674   0.342  0.0435 -0.0010 -0.1250
13070TIP3    H160701   3.011   1.659   0.309  0.1266 -0.4026 -0.1681
13070TIP3    H260702   3.116   1.767   0.325 -0.5489  0.1892  0.3216
13071TIP3   OH260703   5.354   3.270   1.395  0.4062  0.3276 -0.2796
13071TIP3    H160704   5.386   3.180   1.395 -0.0731  0.1423 -1.7470
13071TIP3    H260705   5.258   3.262   1.390  0.4786  0.9087 -3.5120
13072TIP3   OH260706   0.127   0.087   0.341 -0.2377  0.1587 -0.1121
13072TIP3    H160707   0.081   0.143   0.279 -1.3467 -0.7919 -0.1606
13072TIP3    H260708   0.199   0.141   0.374  0.9461  0.3496 -2.9177
13073TIP3   OH260709   5.095   2.566   4.059 -0.3123 -0.1984 -0.3523
13073TIP3    H160710   5.125   2.629   3.994 -1.2492 -0.0479 -0.6496
13073TIP3    H260711   5.099   2.614   4.142  0.2243 -0.1682 -0.3963
13074TIP3   OH260712   0.641   5.715   5.451  0.0828 -0.3274 -0.1863
13074TIP3    H160713   0.730   5.695   5.478 -0.6599 -1.6191  1.4166
13074TIP3    H260714   0.593   5.633   5.462 -0.8094 -0.2908 -3.2814
13075TIP3   OH260715   4.224   6.587   4.681 -0.8030 -0.5384 -0.2260
13075TIP3    H160716   4.189   6.611   4.596  0.2004  1.8071 -0.0298
13075TIP3    H260717   4.291   6.653   4.699  0.2755 -2.0548  1.5649
13076TIP3   OH260718   5.621   3.685   2.267 -0.0381  0.1755 -0.2402
13076TIP3    H160719   5.700   3.735   2.249  0.3857 -0.5873 -0.5076
13076TIP3    H260720   5.634   3.648   2.354  0.0207 -0.1608 -0.3870
13077TIP3   OH260721   5.318   3.889   4.244  0.2474 -0.2257  0.0830
13077TIP3    H160722   5.259   3.964   4.249  0.7903  0.1783  0.5048
13077TIP3    H260723   5.392   3.913   4.300  1.0543 -0.5092 -0.8645
13078TIP3   OH260724   3.690   1.029   1.984  0.2798  0.0801 -0.1806
13078TIP3    H160725   3.640   1.042   1.903  2.0529  1.1274 -1.1373
13078TIP3    H260726   3.704   0.935   1.988  0.2753  0.0304 -1.1618
13079TIP3   OH260727   2.753   3.998  12.376  0.2318 -0.1639  0.1225
13079TIP3    H160728   2.803   3.937  12.322 -0.1865 -0.6572  0.2865
13079TIP3    H260729   2.697   4.045  12.313  0.7241  0.2178 -0.0299
13080TIP3   OH260730   3.169   6.516  13.135 -0.3865  0.4053  0.1194
13080TIP3    H160731   3.130   6.493  13.219  4.1586 -0.8449  2.0091
13080TIP3    H260732   3.135   6.452  13.074  0.3545 -1.9913  2.1574
13081TIP3   OH260733   0.897   5.585   1.682 -0.3394 -0.9026  0.0783
13081TIP3    H160734   0.958   5.621   1.618  0.6382  0.1518  1.5756
13081TIP3    H260735   0.938   5.602   1.766 -1.4818 -2.5279  0.9798
13082TIP3   OH260736   4.736   0.830  16.016  0.0838 -0.3871 -0.7985
13082TIP3    H160737   4.742   0.891  16.089 -0.0011 -1.0896 -0.2096
13082TIP3    H260738   4.737   0.886  15.938 -1.0230  0.4363 -0.2328
13083TIP3   OH260739   3.434   6.104  14.783  0.1908  0.1746 -0.0970
13083TIP3    H160740   3.458   6.038  14.848  0.0692  0.3742  0.1533
13083TIP3    H260741   3.338   6.101  14.781  0.1778  0.4587  0.0387
13084TIP3   OH260742   4.288   5.614   5.269 -0.6512 -0.5944  0.5501
13084TIP3    H160743   4.201   5.641   5.240  0.3437 -0.0208 -2.1230
13084TIP3    H260744   4.343   5.691   5.253  0.3151 -0.8871  2.3719
13085TIP3   OH260745   2.111   4.867   3.236  0.3357 -0.1447  0.0273
13085TIP3    H160746   2.021   4.897   3.251  0.3026 -0.5618  0.6767
13085TIP3    H260747   2.164   4.919   3.296  0.3480 -0.9434  0.7137
13086TIP3   OH260748   3.433   1.001   5.830  0.7058  0.2084  0.1623
13086TIP3    H160749   3.386   0.990   5.913  0.8330  0.1515  0.2251
13086TIP3    H260750   3.505   1.060   5.851 -0.5164  1.9193 -0.3709
13087TIP3   OH260751   3.399   4.165   1.719  0.2050 -0.6676  0.3292
13087TIP3    H160752   3.400   4.252   1.759 -0.1011 -0.6473  0.2908
13087TIP3    H260753   3.480   4.124   1.750  0.6994 -0.1119 -0.2193
13088TIP3   OH260754   2.352   2.320   7.087  0.5615  0.3506 -0.3896
13088TIP3    H160755   2.260   2.322   7.115  0.5029  1.0419 -0.6299
13088TIP3    H260756   2.361   2.236   7.042  0.0750  0.2325 -0.2723
13089TIP3   OH260757   5.745   3.970   5.425  0.7516  0.4365  0.0569
13089TIP3    H160758   5.737   3.883   5.464  0.6312  1.0774  1.4718
13089TIP3    H260759   5.740   3.954   5.331  0.6538 -1.0792  0.3064
13090TIP3   OH260760   0.366   3.489  15.223 -0.6387 -0.1288  0.0879
13090TIP3    H160761   0.289   3.535  15.257 -0.9865 -1.5082  1.2014
13090TIP3    H260762   0.333   3.405  15.194  0.3032 -0.3694 -0.3072
13091TIP3   OH260763   0.988   4.142   4.171  0.1778  0.4404 -0.1221
13091TIP3    H160764   1.070   4.113   4.131  0.4931  3.9211 -2.2784
13091TIP3    H260765   1.016   4.199   4.243 -0.3470  1.0016 -0.3613
13092TIP3   OH260766   2.927   2.699   0.218 -0.0705  0.5004  0.3855
13092TIP3    H160767   2.992   2.744   0.164 -0.1279  1.2325  0.9197
13092TIP3    H260768   2.858   2.764   0.232 -2.8796 -1.4622 -3.4867
13093TIP3   OH260769   6.045   1.145   6.329  0.6162  0.1850  0.0041
13093TIP3    H160770   6.137   1.170   6.337  0.3138  2.6696 -3.2369
13093TIP3    H260771   6.047   1.054   6.299  1.9937  0.1679  0.1129
13094TIP3   OH260772   4.915   0.495   2.321 -0.0356 -0.3796 -0.0697
13094TIP3    H160773   4.987   0.532   2.270  0.0976 -0.3437  0.1460
13094TIP3    H260774   4.838   0.545   2.294 -0.1964 -1.1949 -1.1748
13095TIP3   OH260775   0.898   4.249  15.317 -0.0460 -0.3558  0.1967
13095TIP3    H160776   0.822   4.290  15.357  0.2479 -1.7977  2.2992
13095TIP3    H260777   0.863   4.175  15.267 -0.1121 -0.4070  0.3207
13096TIP3   OH260778   6.473   2.610  14.098 -0.3239 -0.1389  0.3562
13096TIP3    H160779   6.418   2.669  14.150  0.8449  1.1177  0.2053
13096TIP3    H260780   6.489   2.659  14.017  1.1223 -0.4275  0.4612
13097TIP3   OH260781   5.657   3.306  14.152 -0.0037 -0.2356  0.1138
13097TIP3    H160782   5.683   3.238  14.215 -2.9204  1.2967  3.1573
13097TIP3    H260783   5.735   3.359  14.140  1.6075 -2.6193 -0.3843
13098TIP3   OH260784   1.762   0.088   0.420  0.5095  0.1545  0.2837
13098TIP3    H160785   1.704   0.128   0.356  0.8713  0.3437  0.0748
13098TIP3    H260786   1.801   0.013   0.374 -2.1475 -2.0397  1.4706
13099TIP3   OH260787   4.285   5.221   0.033 -0.2763 -0.2816  0.2021
13099TIP3    H160788   4.262   5.304  -0.008  0.3114  0.9325  2.2818
13099TIP3    H260789   4.380   5.225   0.044 -0.2808 -1.0915  0.5901
13100TIP3   OH260790   0.149   4.460   2.098 -0.3809 -0.6483  0.1577
13100TIP3    H160791   0.177   4.375   2.132 -1.8476 -0.8380  0.9552
13100TIP3    H260792   0.209   4.523   2.138 -0.6218 -1.1114  1.2643
13101TIP3   OH260793   5.437   4.770  14.909 -0.2973  0.0087 -0.2249
13101TIP3    H160794   5.523   4.775  14.952 -1.5003  2.1373  2.0074
13101TIP3    H260795   5.385   4.712  14.964 -1.3542  1.4690  0.3356
13102TIP3   OH260796   5.668   4.087   4.639  0.1538 -0.4381 -0.4356
13102TIP3    H160797   5.750   4.077   4.688 -0.4442 -1.3589  0.3868
13102TIP3    H260798   5.672   4.176   4.605  0.0091  0.6984  2.3774
13103TIP3   OH260799   5.448   5.109  14.915  0.2987 -0.1784 -0.0753
13103TIP3    H160800   5.372   5.145  14.869  0.4763 -0.4121 -0.5606
13103TIP3    H260801   5.511   5.090  14.845  0.2740 -1.2637  0.1921
13104TIP3   OH260802   5.122   6.429  15.156  0.1780 -0.2365  0.0439
13104TIP3    H160803   5.210   6.448  15.124 -0.0667  1.1840  0.1712
13104TIP3    H260804   5.135   6.388  15.241  0.6995  1.5167  0.8408
13105TIP3   OH260805   2.599   5.810  11.750 -0.2556  0.2235  0.2272
13105TIP3    H160806   2.693   5.797  11.744 -0.3673 -1.0273  1.1959
13105TIP3    H260807   2.565   5.776  11.667  0.1170  0.4771 -0.0304
13106TIP3   OH260808   5.621   1.110  14.479 -0.6238  0.3836  0.1889
13106TIP3    H160809   5.542   1.156  14.454 -0.8582 -0.8941 -1.4736
13106TIP3    H260810   5.693   1.164  14.447 -0.8506  0.6738  0.1744
13107TIP3   OH260811   0.136   0.198   1.029 -0.5482 -0.0138 -0.0470
13107TIP3    H160812   0.105   0.280   1.068  0.7402  0.0957  0.8096
13107TIP3    H260813   0.228   0.194   1.055 -0.6832 -1.8920  0.1722
13108TIP3   OH260814   6.091   1.129  14.534  0.1525 -0.0207 -0.1437
13108TIP3    H160815   6.130   1.196  14.479 -1.1213 -0.0932 -1.1646
13108TIP3    H260816   6.001   1.159  14.549 -0.0219 -0.8264  0.5079
13109TIP3   OH260817   0.472   3.270  13.568 -0.1304  0.1237  0.6136
13109TIP3    H160818   0.509   3.188  13.534  1.2947  0.5943  1.0008
13109TIP3    H260819   0.468   3.256  13.663 -1.0094  0.0543  0.5678
13110TIP3   OH260820   4.511   1.702  15.737  0.4339 -0.8054  0.2109
13110TIP3    H160821   4.596   1.707  15.781  0.8106  0.0937 -0.6014
13110TIP3    H260822   4.461   1.638  15.788  1.1584 -0.4091  1.4325
13111TIP3   OH260823   5.124   2.473  10.792  0.0838  0.6070 -0.2860
13111TIP3    H160824   5.194   2.423  10.751 -1.5367 -0.4768 -1.8090
13111TIP3    H260825   5.124   2.558  10.747 -0.5616  0.0445 -1.3790
13112TIP3   OH260826   2.772   4.417  14.570 -0.2684 -0.4890  0.0214
13112TIP3    H160827   2.819   4.491  14.608 -1.7136  0.0695  0.7797
13112TIP3    H260828   2.688   4.416  14.615 -1.4903 -0.6924 -2.1533
13113TIP3   OH260829   1.691   5.865  13.337 -0.2752 -0.2809 -0.2470
13113TIP3    H160830   1.694   5.884  13.243 -1.9269  0.9869 -0.0717
13113TIP3    H260831   1.653   5.944  13.376  2.0062 -0.0850  1.7093
13114TIP3   OH260832   6.562   4.745  15.354  0.6152 -0.0333 -0.4576
13114TIP3    H160833   6.656   4.735  15.371  0.4060 -0.5418  0.4814
13114TIP3    H260834   6.521   4.727  15.439 -0.3116  0.4760 -0.7941
13115TIP3   OH260835   3.618   3.799  15.343  0.5548 -0.1771 -0.7830
13115TIP3    H160836   3.618   3.847  15.425 -2.9876 -0.9719 -0.2419
13115TIP3    H260837   3.649   3.712  15.366 -0.7077 -0.4813 -0.2333
13116TIP3   OH260838   5.636   6.154  12.981 -0.1567 -0.1577 -0.2286
13116TIP3    H160839   5.604   6.243  12.970 -1.4613 -0.7101 -0.9178
13116TIP3    H260840   5.677   6.132  12.897  2.1034  0.5536  0.6496
13117TIP3   OH260841   3.016   0.643  14.026 -0.3268  0.9271 -0.7529
13117TIP3    H160842   3.041   0.733  14.046  1.4690  0.3960 -0.4889
13117TIP3    H260843   3.064   0.590  14.089 -1.7681 -0.1892 -0.5723
13118TIP3   OH260844   2.658   0.621  16.987  0.1997 -0.8532  0.0669
13118TIP3    H160845   2.610   0.540  16.969  0.2303 -1.2992  1.8500
13118TIP3    H260846   2.596   0.691  16.967 -0.2429 -1.3453 -0.2986
13119TIP3   OH260847   6.427   1.028   5.441 -0.0899 -0.4017  0.4614
13119TIP3    H160848   6.488   1.101   5.436  1.0247 -1.2448  1.4189
13119TIP3    H260849   6.438   0.981   5.358  0.8906 -0.8005  0.8139
13120TIP3   OH260850   3.419   1.332  13.409  0.0386  0.0854  0.0048
13120TIP3    H160851   3.343   1.341  13.467 -0.1740  0.3729 -0.3156
13120TIP3    H260852   3.478   1.273  13.456 -0.6199 -0.5691  0.0201
13121TIP3   OH260853   3.878   4.063   5.217  0.3314 -0.1041 -0.0130
13121TIP3    H160854   3.814   3.992   5.222  0.0712  0.0536 -0.9530
13121TIP3    H260855   3.825   4.143   5.213  0.4912 -0.0818 -2.8859
13122TIP3   OH260856   5.206   5.808   2.521  0.1186 -0.0875 -0.0435
13122TIP3    H160857   5.272   5.877   2.517 -0.1911  0.2950  1.1379
13122TIP3    H260858   5.142   5.832   2.455 -1.3408  2.1954  2.1196
13123TIP3   OH260859   4.954   1.341  11.172  0.2541 -0.4029 -0.7476
13123TIP3    H160860   4.976   1.254  11.140  0.8810 -0.0135 -1.3798
13123TIP3    H260861   4.958   1.397  11.095  1.5026  0.4847 -0.0649
13124TIP3   OH260862   5.184   1.149  14.532  0.0817  0.6141 -0.0237
13124TIP3    H160863   5.238   1.119  14.459  0.2359  0.2504  0.2390
13124TIP3    H260864   5.095   1.123  14.509  0.1272  0.5176 -0.0882
13125TIP3   OH260865   3.206   6.148   1.008  0.1861 -0.1022 -0.0996
13125TIP3    H160866   3.268   6.116   0.943 -1.5576 -0.2658 -1.7312
13125TIP3    H260867   3.229   6.240   1.020  0.7258 -0.1598 -0.7051
13126TIP3   OH260868   2.617   0.917  12.977  0.2466 -0.0702 -0.0876
13126TIP3    H160869   2.533   0.963  12.979  0.8069  1.0736 -1.5530
13126TIP3    H260870   2.595   0.827  12.954 -0.4081  0.7955 -3.1467
13127TIP3   OH260871   2.675   4.341  16.214  0.2826  0.5488  0.4550
13127TIP3    H160872   2.631   4.285  16.151  0.9512  0.2813  0.2240
13127TIP3    H260873   2.673   4.428  16.174  1.6608  0.1795 -0.4313
13128TIP3   OH260874   4.914   6.513  11.984 -0.9088 -0.4245  0.2345
13128TIP3    H160875   4.901   6.434  11.931 -0.1151 -1.9094  2.1751
13128TIP3    H260876   4.826   6.540  12.008 -1.1379 -1.3121  0.4034
13129TIP3   OH260877   5.407   4.406  10.670 -0.3424 -0.2972  0.0510
13129TIP3    H160878   5.458   4.418  10.590 -1.5825 -0.1022 -0.7233
13129TIP3    H260879   5.316   4.420  10.643 -0.8298 -0.8293  1.3663
13130TIP3   OH260880   2.052   2.893  17.139  0.0879  0.9536 -0.0882
13130TIP3    H160881   1.965   2.924  17.117 -0.3006  0.2326  0.4034
13130TIP3    H260882   2.076   2.834  17.067 -0.9012 -0.8702  1.0526
13131TIP3   OH260883   5.112   4.094   4.273  0.5001 -0.8365 -0.0036
13131TIP3    H160884   5.045   4.119   4.209 -0.9331  0.3119  1.9104
13131TIP3    H260885   5.150   4.177   4.302  0.8367 -1.3164  0.9603
13132TIP3   OH260886   4.862   5.216  14.889 -0.2441  0.5767  0.1999
13132TIP3    H160887   4.852   5.124  14.861  0.4250  0.5979 -0.1165
13132TIP3    H260888   4.946   5.243  14.851  0.2871  0.8613  1.5357
13133TIP3   OH260889   4.726   5.823  15.272  0.0709  0.7119 -0.5120
13133TIP3    H160890   4.818   5.813  15.297 -0.1798  1.4841  0.7219
13133TIP3    H260891   4.725   5.805  15.178  1.3841  0.0842 -0.4165
13134TIP3   OH260892   2.270   1.630   2.331  0.1588  0.0084 -0.1849
13134TIP3    H160893   2.181   1.614   2.361  0.5307  0.6644  1.3086
13134TIP3    H260894   2.292   1.554   2.278 -1.3210 -0.1115 -0.6506
13135TIP3   OH260895   3.861   6.310   5.226  0.3713  0.6178 -0.5266
13135TIP3    H160896   3.913   6.241   5.268  0.5897  0.6126 -0.8028
13135TIP3    H260897   3.888   6.390   5.269 -0.1019  0.4958  0.0053
13136TIP3   OH260898   2.861   1.729   3.061  0.7425  0.3713  0.3426
13136TIP3    H160899   2.786   1.776   3.025 -0.2019 -0.3193  1.3681
13136TIP3    H260900   2.850   1.736   3.156  0.9834 -1.2791  0.5065
13137TIP3   OH260901   3.682   0.281   3.332  0.6676  0.3701 -0.4260
13137TIP3    H160902   3.663   0.257   3.423  0.7486 -0.1509 -0.5416
13137TIP3    H260903   3.697   0.197   3.288  1.9750  0.6784 -0.6142
13138TIP3   OH260904   2.094   1.683   2.630  0.6360  0.0608 -0.1321
13138TIP3    H160905   2.145   1.602   2.635 -1.1104 -1.1086 -0.9029
13138TIP3    H260906   2.014   1.664   2.679  0.2014  1.3324 -0.3295
13139TIP3   OH260907   4.322   5.428   2.255  0.0617 -0.2027  0.5111
13139TIP3    H160908   4.367   5.459   2.177  0.2992  1.5820  1.3380
13139TIP3    H260909   4.272   5.352   2.225 -0.4744  0.9212 -1.5384
13140TIP3   OH260910   1.096   3.312   0.513 -0.0082 -0.0330 -0.5925
13140TIP3    H160911   1.146   3.294   0.433 -1.7509  0.6175 -1.8719
13140TIP3    H260912   1.049   3.393   0.494  0.6785  0.9421  1.6682
13141TIP3   OH260913   0.999   5.338   6.007 -0.2645  0.2909  0.3554
13141TIP3    H160914   0.974   5.252   6.038  1.3614  0.4303  2.1538
13141TIP3    H260915   1.051   5.375   6.078 -0.6068  2.5995 -0.5531
13142TIP3   OH260916   5.654   0.970   2.081 -0.0092 -0.0827  0.7341
13142TIP3    H160917   5.654   1.056   2.125 -0.7353  1.5877 -2.3849
13142TIP3    H260918   5.746   0.952   2.064  0.0374  1.1299 -0.4437
13143TIP3   OH260919   3.093   3.603   1.803 -0.8711 -0.6602  0.1941
13143TIP3    H160920   3.117   3.687   1.842  2.0569 -0.8354 -1.0528
13143TIP3    H260921   3.048   3.626   1.721 -0.5656 -0.3036  0.1247
13144TIP3   OH260922   4.235   2.273   5.761 -0.8096 -0.7307 -0.2243
13144TIP3    H160923   4.291   2.340   5.721  0.0365 -0.2347  1.7530
13144TIP3    H260924   4.158   2.320   5.791  0.2202 -0.4584  2.0384
13145TIP3   OH260925   4.817   3.347   0.688 -0.1711  0.3742  0.8729
13145TIP3    H160926   4.747   3.408   0.713 -2.5428 -1.3324 -1.2658
13145TIP3    H260927   4.782   3.261   0.710  0.6102 -0.6177 -1.5615
13146TIP3   OH260928   0.683   0.521   0.246 -0.1336  0.3632  0.2090
13146TIP3    H160929   0.679   0.563   0.332  1.1238 -2.0415  1.4880
13146TIP3    H260930   0.597   0.481   0.234 -0.1185  0.2147  0.6065
13147TIP3   OH260931   4.994   1.033  15.805 -0.5169  0.8503 -0.0241
13147TIP3    H160932   5.024   1.123  15.792 -1.3111  1.6996  3.3508
13147TIP3    H260933   4.906   1.042  15.843  0.4563 -1.2200  2.9325
13148TIP3   OH260934   3.341   2.030  13.005 -0.0794 -0.5365  0.1064
13148TIP3    H160935   3.291   2.055  12.927 -0.8713 -0.1356  0.7298
13148TIP3    H260936   3.414   1.978  12.971  0.1433  0.4529 -0.9864
13149TIP3   OH260937   0.394   3.309  14.255  0.3601  0.2630  0.1665
13149TIP3    H160938   0.354   3.380  14.305 -0.4596 -0.5554  0.6846
13149TIP3    H260939   0.455   3.268  14.317 -1.7774 -1.7166  1.0030
13150TIP3   OH260940   3.696   5.510   0.541 -0.1791 -0.1027  0.4144
13150TIP3    H160941   3.789   5.491   0.552 -0.1335 -0.0020  0.1932
13150TIP3    H260942   3.652   5.448   0.600 -0.0207 -0.7594 -0.1567
13151TIP3   OH260943   5.122   6.215   3.647  0.9204  0.4921  0.1299
13151TIP3    H160944   5.161   6.128   3.653 -1.7044 -0.5652  2.5813
13151TIP3    H260945   5.158   6.264   3.721 -0.7816  0.1481  1.2096
13152TIP3   OH260946   0.232   2.741   0.865 -0.0498 -0.0909 -0.1373
13152TIP3    H160947   0.187   2.765   0.946  1.3114 -0.6721  0.8159
13152TIP3    H260948   0.323   2.726   0.892  0.8803  1.7491 -2.1393
13153TIP3   OH260949   5.906   6.263   4.470  0.2127  0.4916 -0.1118
13153TIP3    H160950   5.879   6.310   4.549 -1.6110  0.3238 -0.6170
13153TIP3    H260951   5.827   6.217   4.441  1.1075 -0.2065 -1.5087
13154TIP3   OH260952   6.736   3.868   0.466 -0.0892 -0.3846 -0.2154
13154TIP3    H160953   6.642   3.884   0.462  0.1245  0.7643 -0.8739
13154TIP3    H260954   6.764   3.863   0.375  0.4545 -0.8969 -0.0246
13155TIP3   OH260955   3.129   5.753   6.621  0.3899  0.1560 -0.2562
13155TIP3    H160956   3.121   5.840   6.582 -0.2073  0.1968 -0.0482
13155TIP3    H260957   3.099   5.692   6.553 -2.2324  0.3391  0.6811
13156TIP3   OH260958   2.005   2.254  14.716 -0.0956 -0.5997 -0.2076
13156TIP3    H160959   1.914   2.237  14.690 -0.2420  1.7264 -1.3217
13156TIP3    H260960   2.054   2.248  14.634  0.0533  2.6611 -0.4159
13157TIP3   OH260961   1.534   6.749  16.731 -0.3527  0.6974  0.4394
13157TIP3    H160962   1.447   6.740  16.691 -0.4102 -1.8659  1.0820
13157TIP3    H260963   1.582   6.804  16.670 -2.4999  2.3781  0.1885
13158TIP3   OH260964   0.810   5.232   3.307 -0.2242  0.0530  0.4351
13158TIP3    H160965   0.790   5.284   3.229  0.4067 -0.9420 -0.4039
13158TIP3    H260966   0.905   5.230   3.312 -0.2467  1.4801  2.1961
13159TIP3   OH260967   1.193   1.114  15.302 -0.2163 -0.9965  0.7826
13159TIP3    H160968   1.289   1.113  15.302 -0.1741  1.0094  0.6917
13159TIP3    H260969   1.168   1.081  15.216  0.4533  0.5830 -0.0372
13160TIP3   OH260970   5.540   4.968   4.778  0.2775 -0.0375 -0.3982
13160TIP3    H160971   5.567   4.900   4.840  1.2398 -1.6880 -2.5796
13160TIP3    H260972   5.468   4.928   4.729 -0.4433  1.2428 -0.4098
13161TIP3   OH260973   5.535   1.282  16.940 -0.3130  0.5051 -0.4061
13161TIP3    H160974   5.506   1.334  16.865 -1.4687 -0.7482 -0.8699
13161TIP3    H260975   5.530   1.191  16.909  0.3170  0.0350  0.8217
13162TIP3   OH260976   3.450   5.709   5.391  0.0308  0.3570 -0.5964
13162TIP3    H160977   3.420   5.620   5.372 -0.9186  0.6623 -0.5191
13162TIP3    H260978   3.545   5.704   5.380  0.1219 -0.9515  0.5171
13163TIP3   OH260979   0.653   1.554   0.534  0.0602 -0.3573 -0.2696
13163TIP3    H160980   0.728   1.495   0.545  1.1481  1.0584 -0.0621
13163TIP3    H260981   0.637   1.554   0.439  0.3153 -0.6681 -0.3137
13164TIP3   OH260982   0.109   4.869  16.753  0.5388 -0.4743 -0.5898
13164TIP3    H160983   0.115   4.785  16.798  1.9327  0.4184  0.9618
13164TIP3    H260984   0.179   4.922  16.792 -1.4474  1.9906 -0.2451
13165TIP3   OH260985   6.354   3.096   5.368  0.2166 -0.1394 -0.4356
13165TIP3    H160986   6.414   3.134   5.432  0.3393  0.1305 -0.7093
13165TIP3    H260987   6.292   3.166   5.348  1.1862  0.3583 -1.8781
13166TIP3   OH260988   1.942   3.685   2.423 -0.2411  0.6667 -0.4661
13166TIP3    H160989   1.965   3.601   2.462 -1.1011 -0.2663 -1.9103
13166TIP3    H260990   1.998   3.748   2.467  3.1683 -1.1570 -1.9476
13167TIP3   OH260991   2.241   0.308   2.026  0.1912 -0.2660  0.6460
13167TIP3    H160992   2.313   0.305   2.089 -0.7862 -1.9934  1.7218
13167TIP3    H260993   2.281   0.289   1.942  1.0335 -1.0632  1.2201
13168TIP3   OH260994   2.729   0.494   2.490 -0.1261  0.4775 -0.2229
13168TIP3    H160995   2.666   0.531   2.428 -1.1837 -2.6424 -1.1150
13168TIP3    H260996   2.812   0.492   2.442 -0.5340 -0.2162 -0.9206
13169TIP3   OH260997   2.759   5.089   4.371  0.0255  0.4041 -0.3043
13169TIP3    H160998   2.828   5.061   4.310  0.4403  0.7356  0.0124
13169TIP3    H260999   2.713   5.160   4.325 -0.3817 -0.1048 -0.6915
13170TIP3   OH261000   5.305   4.881  13.427  1.1225  0.1719 -0.2506
13170TIP3    H161001   5.379   4.851  13.480  0.8153 -0.9260 -0.4306
13170TIP3    H261002   5.262   4.947  13.481  1.8229  0.2956  0.1520
13171TIP3   OH261003   2.842   0.301  14.739  0.0091  0.0826  0.2343
13171TIP3    H161004   2.867   0.329  14.651 -1.9694  1.0901 -0.0324
13171TIP3    H261005   2.909   0.338  14.796  0.2773  1.0065 -0.6672
13172TIP3   OH261006   3.271   0.197  15.286 -0.0084 -0.2337 -0.7430
13172TIP3    H161007   3.213   0.143  15.232 -2.3794  1.9640 -0.4675
13172TIP3    H261008   3.286   0.145  15.365 -1.8675 -0.6942 -0.6846
13173TIP3   OH261009   6.402   1.658  13.721 -0.2613  0.3599  0.3470
13173TIP3    H161010   6.401   1.678  13.814 -0.5900 -0.7063  0.5706
13173TIP3    H261011   6.341   1.585  13.711  0.8702 -0.4753 -0.4894
13174TIP3   OH261012   2.694   3.265   3.128 -0.0983 -1.0811  0.0764
13174TIP3    H161013   2.775   3.250   3.080 -0.0110 -1.4570  0.3463
13174TIP3    H261014   2.655   3.178   3.137 -0.5542 -0.8988 -0.0931
13175TIP3   OH261015   2.637   3.919  15.946 -0.0416  0.2747  0.4265
13175TIP3    H161016   2.707   3.984  15.956  1.5122 -1.2682 -0.0623
13175TIP3    H261017   2.646   3.862  16.022 -0.9486  0.2331  0.5010
13176TIP3   OH261018   3.015   1.268  15.164  0.0407 -0.1651 -0.5899
13176TIP3    H161019   3.038   1.199  15.226  0.0864  0.1385 -0.2720
13176TIP3    H261020   2.993   1.344  15.218 -1.5344 -0.3925 -0.8880
13177TIP3   OH261021   3.155   2.985  11.685 -0.3363 -0.5456  0.3597
13177TIP3    H161022   3.185   2.972  11.595 -2.4208 -0.4578 -0.3788
13177TIP3    H261023   3.200   3.064  11.714  0.0813 -0.3693 -0.7471
13178TIP3   OH261024   5.559   5.889   4.607  0.1198  0.5069 -0.0024
13178TIP3    H161025   5.593   5.803   4.583 -1.4747  0.1852 -1.2126
13178TIP3    H261026   5.497   5.911   4.537 -0.2086  2.2106  0.7871
13179TIP3   OH261027   1.574   4.235  14.266 -0.5552 -0.3782 -0.3221
13179TIP3    H161028   1.598   4.243  14.358 -1.7300 -1.2124  0.0769
13179TIP3    H261029   1.493   4.183  14.267 -1.3554  0.7875 -1.7102
13180TIP3   OH261030   5.471   6.675   1.675  0.1308  0.4701 -0.9644
13180TIP3    H161031   5.511   6.621   1.743  0.4197 -0.6609 -2.0185
13180TIP3    H261032   5.430   6.613   1.616 -3.1319  1.5574 -0.0009
13181TIP3   OH261033   1.668   6.046  17.269  1.0763 -0.0368 -0.3295
13181TIP3    H161034   1.609   5.971  17.276  1.5742 -0.3423  0.5921
13181TIP3    H261035   1.645   6.087  17.185 -1.1352  0.4221  0.4612
13182TIP3   OH261036   5.724   3.478  14.987  0.3229 -0.0742 -0.1425
13182TIP3    H161037   5.768   3.545  14.935  1.7908 -0.8337  0.1089
13182TIP3    H261038   5.656   3.444  14.928 -0.1356  1.3136 -0.4247
13183TIP3   OH261039   0.745   4.516  13.852  0.3920 -0.0236  0.2519
13183TIP3    H161040   0.793   4.443  13.892  0.1621 -0.5583 -0.4284
13183TIP3    H261041   0.654   4.487  13.853  0.6821 -1.2233 -3.0852
13184TIP3   OH261042   5.557   0.358   0.721  0.4940  0.0769 -0.2257
13184TIP3    H161043   5.504   0.353   0.642  0.9736 -1.0790 -0.4862
13184TIP3    H261044   5.495   0.375   0.791  0.0751  1.1790 -0.8617
13185TIP3   OH261045   6.375   0.875   0.801 -0.5561 -0.0906 -0.5967
13185TIP3    H161046   6.428   0.840   0.873  0.5285 -0.4628 -1.5756
13185TIP3    H261047   6.395   0.968   0.800 -0.8526 -0.0172 -0.1951
13186TIP3   OH261048   0.655   5.897  14.864  0.0178  0.0322  0.5133
13186TIP3    H161049   0.699   5.817  14.893  1.6903  1.6531  2.6115
13186TIP3    H261050   0.710   5.929  14.792 -1.1500 -1.1389 -0.9331
13187TIP3   OH261051   4.753   1.649   1.034  0.2508 -0.0708 -0.0686
13187TIP3    H161052   4.787   1.606   1.113  2.0517 -0.0471 -0.7911
13187TIP3    H261053   4.671   1.689   1.061  1.8430  1.6799  2.3290
13188TIP3   OH261054   2.832   0.458   4.393 -0.5315  0.4983 -0.1525
13188TIP3    H161055   2.926   0.468   4.382 -0.4979  0.1416 -0.1933
13188TIP3    H261056   2.794   0.499   4.315 -0.3659 -0.4236 -0.7174
13189TIP3   OH261057   0.141   4.576  14.077 -0.2344  0.5007  0.9332
13189TIP3    H161058   0.150   4.488  14.041 -0.3287  0.3025  1.3978
13189TIP3    H261059   0.213   4.583  14.140  0.4229  1.1346  0.1351
13190TIP3   OH261060   4.702   2.039   6.457  0.0024 -1.2708 -0.0009
13190TIP3    H161061   4.661   2.066   6.540  0.8491 -0.9366  0.3215
13190TIP3    H261062   4.630   2.037   6.394 -0.1237  1.6344 -0.0084
13191TIP3   OH261063   5.583   3.203  12.369  0.1167  0.2722  0.0254
13191TIP3    H161064   5.555   3.293  12.352 -1.0877 -0.1971 -0.5593
13191TIP3    H261065   5.507   3.163  12.411 -0.0686 -1.0030 -1.4883
13192TIP3   OH261066   3.308   1.781  10.826  0.1094  0.1041 -0.6325
13192TIP3    H161067   3.386   1.726  10.834 -0.6803 -1.0399 -0.6652
13192TIP3    H261068   3.258   1.741  10.755 -1.0411  0.1584  0.1274
13193TIP3   OH261069   2.534   1.494   5.832 -0.2068  0.0070  0.3844
13193TIP3    H161070   2.530   1.558   5.760  0.1898  0.2120  0.5403
13193TIP3    H261071   2.625   1.466   5.833 -0.3441 -0.4292  0.4349
13194TIP3   OH261072   0.707   2.783   0.058  0.0324  0.0863 -0.7561
13194TIP3    H161073   0.631   2.765   0.114  0.4967  0.6507  0.0679
13194TIP3    H261074   0.774   2.721   0.088  0.9812  1.8004  0.7612
13195TIP3   OH261075   1.954   5.228  12.776  0.0804 -0.4378  0.2550
13195TIP3    H161076   1.962   5.165  12.848 -2.5763  1.5064  2.3781
13195TIP3    H261077   1.932   5.311  12.820  2.8743  1.8430 -2.4917
13196TIP3   OH261078   0.479   6.774  14.308  0.2973  0.0564 -0.4043
13196TIP3    H161079   0.447   6.685  14.291  2.3587 -1.1911  1.9652
13196TIP3    H261080   0.498   6.809  14.221 -3.1062 -0.7722 -1.5691
13197TIP3   OH261081   0.506   5.493   2.304  0.1279  0.3665  0.1854
13197TIP3    H161082   0.470   5.508   2.392 -1.7159  0.5243 -0.5820
13197TIP3    H261083   0.509   5.397   2.296  1.3580  0.3418  0.8343
13198TIP3   OH261084   4.186   1.280   6.795  0.1137  0.2892  0.2482
13198TIP3    H161085   4.231   1.326   6.724  0.1054 -0.3997 -0.2116
13198TIP3    H261086   4.146   1.349   6.847 -1.0606  0.7426 -1.2223
13199TIP3   OH261087   5.632   2.229  14.796  0.1436 -0.0874 -0.1228
13199TIP3    H161088   5.567   2.262  14.859 -0.4019  1.4186 -1.4391
13199TIP3    H261089   5.716   2.240  14.840 -0.2006  1.3063  0.2071
13200TIP3   OH261090   0.725   3.701  12.095  0.1880 -0.1201 -0.5756
13200TIP3    H161091   0.766   3.661  12.171  0.5134  0.4956 -0.4304
13200TIP3    H261092   0.798   3.730  12.040 -0.0315  2.0940  0.2573
13201TIP3   OH261093   3.065   1.008  12.009 -0.2424  0.3837  0.6864
13201TIP3    H161094   3.057   0.916  12.036 -1.7325  0.4612  0.5223
13201TIP3    H261095   2.985   1.026  11.960  0.5084  1.4804 -0.1678
13202TIP3   OH261096   4.572   0.166  12.623  0.2794  0.7571  0.6838
13202TIP3    H161097   4.622   0.087  12.603  1.1804  2.2631 -3.4976
13202TIP3    H261098   4.517   0.141  12.697  0.6883 -3.7413 -0.3669
13203TIP3   OH261099   1.396   3.526   2.058 -0.4411  0.4781  0.0647
13203TIP3    H161100   1.388   3.470   2.135 -0.2334  0.5701  0.1537
13203TIP3    H261101   1.309   3.525   2.018 -0.5835  0.5281  0.3690
13204TIP3   OH261102   0.858   3.728   5.680 -0.7004 -0.1851  0.1664
13204TIP3    H161103   0.859   3.634   5.663 -1.1772 -0.0715 -0.5121
13204TIP3    H261104   0.946   3.747   5.713 -0.2510 -0.6943 -0.6941
13205TIP3   OH261105   4.387   1.075   4.144  0.0612 -0.2754  0.1367
13205TIP3    H161106   4.441   1.009   4.100 -0.0293 -0.0580 -0.3090
13205TIP3    H261107   4.304   1.030   4.161 -0.2230 -0.0940 -0.7329
13206TIP3   OH261108   0.346   3.261  15.025 -0.0694 -0.2209 -0.3610
13206TIP3    H161109   0.436   3.288  15.044  0.0668  0.3195 -1.6890
13206TIP3    H261110   0.349   3.166  15.024  0.3620 -0.2168  0.1684
13207TIP3   OH261111   4.839   0.795  14.242 -0.1290 -0.6226  0.2409
13207TIP3    H161112   4.757   0.831  14.277  0.1131  0.2467 -0.0889
13207TIP3    H261113   4.870   0.736  14.311 -1.8150 -2.1305 -0.2646
13208TIP3   OH261114   1.081   5.259   3.221 -0.1647 -0.4040 -0.0795
13208TIP3    H161115   1.080   5.321   3.148 -0.3550  0.6901  0.8358
13208TIP3    H261116   1.174   5.249   3.243 -0.1587 -0.1076  0.0387
13209TIP3   OH261117   6.675   2.337   5.588 -0.3606 -0.2722 -0.1487
13209TIP3    H161118   6.760   2.378   5.571 -0.0030 -0.7941  0.3181
13209TIP3    H261119   6.691   2.243   5.573 -0.9115 -0.3478 -0.2688
13210TIP3   OH261120   4.967   4.912  14.034  0.0445  0.1411  0.4488
13210TIP3    H161121   4.984   5.000  14.069  1.1615 -0.5533  1.6737
13210TIP3    H261122   4.876   4.894  14.060  1.1076 -0.7275  3.9117
13211TIP3   OH261123   2.940   5.180  11.157  0.4906 -0.5252 -0.0333
13211TIP3    H161124   2.943   5.275  11.146 -2.3399 -0.3791  0.1104
13211TIP3    H261125   2.935   5.168  11.252  1.7187 -0.8697 -0.0033
13212TIP3   OH261126   2.603   3.986   4.434 -0.0586 -0.1873 -0.0513
13212TIP3    H161127   2.581   4.040   4.510 -0.6947 -3.3419  2.0878
13212TIP3    H261128   2.694   4.010   4.414 -0.8499  2.8434 -0.2033
13213TIP3   OH261129   5.732   3.879   2.565 -0.4104  0.4834  0.1529
13213TIP3    H161130   5.713   3.807   2.624 -0.7276 -1.2792 -2.0038
13213TIP3    H261131   5.776   3.944   2.619 -0.0563 -1.3533  2.1490
13214TIP3   OH261132   5.691   1.539  12.842 -0.2717 -0.0794  0.3798
13214TIP3    H161133   5.710   1.451  12.875 -0.9769 -0.3722  0.0310
13214TIP3    H261134   5.604   1.531  12.803  1.0499 -0.0633 -2.7096
13215TIP3   OH261135   0.100   5.461  12.432  0.1541 -0.4455  0.2580
13215TIP3    H161136   0.173   5.470  12.371  0.0084  1.2596  0.3269
13215TIP3    H261137   0.044   5.536  12.415 -0.6779 -0.7752  1.4461
13216TIP3   OH261138   4.539   6.756   0.075 -0.1075 -0.1552  0.9349
13216TIP3    H161139   4.498   6.670   0.083  0.7670 -0.7602 -0.7670
13216TIP3    H261140   4.633   6.738   0.074  0.0705  0.7437 -0.1196
13217TIP3   OH261141   5.348   5.132  11.001 -0.6837  0.3394 -0.4261
13217TIP3    H161142   5.346   5.133  10.906  1.5731 -1.7471 -0.5395
13217TIP3    H261143   5.400   5.209  11.025 -1.7162  1.1758 -0.8395
13218TIP3   OH261144   1.953   0.890   2.388  0.2538  0.5081 -0.3494
13218TIP3    H161145   1.935   0.887   2.294 -0.4008  1.5488 -0.2643
13218TIP3    H261146   1.927   0.978   2.414 -0.4806 -0.0945  0.9944
13219TIP3   OH261147   3.943   4.553  13.767 -0.3263  0.7290  0.3466
13219TIP3    H161148   3.896   4.493  13.709 -1.2990  1.3591  0.4822
13219TIP3    H261149   4.035   4.529  13.757 -0.5661  0.3060 -0.8485
13220TIP3   OH261150   4.474   0.877   4.004 -0.4263 -0.3492 -0.3097
13220TIP3    H161151   4.552   0.825   4.023 -0.7970 -0.6731  0.3463
13220TIP3    H261152   4.426   0.826   3.938 -0.4962 -0.5488 -0.1028
13221TIP3   OH261153   1.389   4.140   4.938  0.5763 -0.4988 -0.7497
13221TIP3    H161154   1.467   4.174   4.894 -0.2024  0.2881 -1.5127
13221TIP3    H261155   1.353   4.076   4.877  1.5619 -2.1077  0.3204
13222TIP3   OH261156   3.385   1.844   0.559 -0.5877 -0.3206 -0.0109
13222TIP3    H161157   3.324   1.840   0.485 -1.3251  0.0530  0.5631
13222TIP3    H261158   3.465   1.881   0.522 -0.7058 -0.8226 -0.7790
13223TIP3   OH261159   6.233   0.694   6.130  1.0038 -0.2948 -0.0084
13223TIP3    H161160   6.317   0.723   6.165  1.1745  0.4644 -1.0303
13223TIP3    H261161   6.250   0.675   6.038 -0.4963  2.4272 -0.9160
13224TIP3   OH261162   6.443   1.726   0.719 -0.1332  0.7565 -0.3237
13224TIP3    H161163   6.379   1.692   0.657  0.5556 -1.6769  0.2351
13224TIP3    H261164   6.525   1.729   0.670 -0.4421  2.8619 -0.7356
13225TIP3   OH261165   5.007   6.583   1.114  0.1076  0.7745  0.3635
13225TIP3    H161166   4.994   6.491   1.091 -0.4513  1.4851 -2.3946
13225TIP3    H261167   5.021   6.583   1.209  0.7715 -2.1978  0.3019
13226TIP3   OH261168   2.143   5.919  12.360  0.2596 -0.3722  0.2624
13226TIP3    H161169   2.135   5.913  12.265  0.3535 -0.3556  0.2540
13226TIP3    H261170   2.188   5.838  12.385  0.3903 -0.2977  0.2737
13227TIP3   OH261171   6.620   1.199  16.548  0.4604  0.2863 -0.2127
13227TIP3    H161172   6.641   1.131  16.613 -1.0590  0.1989  0.2119
13227TIP3    H261173   6.657   1.167  16.466  1.2433 -0.2430  0.3501
13228TIP3   OH261174   0.434   4.400   4.273 -0.5834 -0.4350  0.2142
13228TIP3    H161175   0.382   4.378   4.350 -0.6089  2.0413  0.9205
13228TIP3    H261176   0.370   4.404   4.202 -1.0188  0.2679  0.6367
13229TIP3   OH261177   4.259   2.553  11.887  0.0026  0.1449  0.5998
13229TIP3    H161178   4.331   2.596  11.842 -1.0242  0.9890 -0.2646
13229TIP3    H261179   4.278   2.564  11.980 -0.1670  2.3387  0.3902
13230TIP3   OH261180   5.123   2.598  13.880 -0.4076 -1.0640  0.4069
13230TIP3    H161181   5.142   2.541  13.805  1.8452 -0.6002  0.5967
13230TIP3    H261182   5.117   2.537  13.954  1.0802 -1.1813  0.4542
13231TIP3   OH261183   6.526   5.253  15.257  0.1596 -0.3058  0.4294
13231TIP3    H161184   6.561   5.172  15.220  1.6768 -0.0232  1.1950
13231TIP3    H261185   6.600   5.291  15.305 -0.7711  1.1153  0.7611
13232TIP3   OH261186   5.189   1.826  11.988 -0.0084 -0.3722 -0.5617
13232TIP3    H161187   5.122   1.889  12.017  2.0884  1.6813 -0.0019
13232TIP3    H261188   5.142   1.767  11.929 -2.2631  1.2059 -0.4260
13233TIP3   OH261189   6.330   1.010  11.191 -0.4556 -0.1398 -0.0445
13233TIP3    H161190   6.383   0.940  11.229  1.5645  1.8373  0.9120
13233TIP3    H261191   6.331   1.080  11.257  0.8661  2.3149 -2.5473
13234TIP3   OH261192   1.703   5.805   5.258 -0.2566  0.5111  0.1357
13234TIP3    H161193   1.708   5.892   5.299 -1.6445  1.0298 -0.7771
13234TIP3    H261194   1.660   5.750   5.324  0.1453  0.6272  0.5038
13235TIP3   OH261195   3.844   2.405   5.857  0.1453 -0.3822  0.5772
13235TIP3    H161196   3.932   2.438   5.874  0.2161 -0.8310  1.0754
13235TIP3    H261197   3.836   2.326   5.911 -0.4572 -0.5077  0.3166
13236TIP3   OH261198   3.178   1.761   2.640  0.1070  0.5620 -0.2522
13236TIP3    H161199   3.184   1.750   2.735  0.3033 -0.8784 -0.4172
13236TIP3    H261200   3.117   1.834   2.628  2.1891  2.6121  1.0405
13237TIP3   OH261201   0.309   0.448  15.497  0.5300 -0.0739 -0.5924
13237TIP3    H161202   0.265   0.420  15.578 -0.3675  0.9142 -0.7296
13237TIP3    H261203   0.258   0.408  15.427  0.8243 -0.2599 -0.7009
13238TIP3   OH261204   6.500   0.665   2.714  1.1248 -0.4971 -0.5541
13238TIP3    H161205   6.416   0.621   2.727  0.0964  0.8067 -2.4968
13238TIP3    H261206   6.540   0.667   2.801 -1.1827 -0.4768  0.5357
13239TIP3   OH261207   2.968   1.400   3.143 -0.4398  0.1532  0.1691
13239TIP3    H161208   2.974   1.396   3.048  0.3337 -2.5575  0.2989
13239TIP3    H261209   2.978   1.493   3.164  1.7481  0.5071 -2.2601
13240TIP3   OH261210   1.581   1.700  11.434  0.1572 -0.0101 -0.0150
13240TIP3    H161211   1.614   1.649  11.360 -0.2263 -0.9552  0.4632
13240TIP3    H261212   1.588   1.641  11.509  1.6985  1.3385  0.9441
13241TIP3   OH261213   5.502   2.581   3.687  0.2575 -0.0215 -0.5811
13241TIP3    H161214   5.443   2.531   3.743  0.8822 -0.0447  0.0672
13241TIP3    H261215   5.579   2.525   3.677  0.3891  0.2281 -0.9971
13242TIP3   OH261216   4.510   2.800   4.896  0.0555 -0.0632 -0.3436
13242TIP3    H161217   4.490   2.893   4.903  2.9076  0.5130  0.8145
13242TIP3    H261218   4.442   2.757   4.947 -0.1042  1.5435  0.8529
13243TIP3   OH261219   3.864   6.811  14.777  0.6068 -0.0151 -0.3692
13243TIP3    H161220   3.825   6.778  14.696  2.1104 -0.7900 -0.8041
13243TIP3    H261221   3.875   6.905  14.762  0.3842 -0.0664 -0.8616
13244TIP3   OH261222   0.934   2.705   4.778 -0.6542 -0.0646 -0.3957
13244TIP3    H161223   0.877   2.737   4.708  0.6510  0.2639 -1.3328
13244TIP3    H261224   0.962   2.784   4.824 -0.0688 -0.1272 -0.6403
13245TIP3   OH261225   4.722   0.650   2.179  0.1218  0.0224  0.1402
13245TIP3    H161226   4.649   0.612   2.132 -0.5873  0.1496  1.1262
13245TIP3    H261227   4.690   0.736   2.208  1.6552  1.3700 -1.9748
13246TIP3   OH261228   6.234   1.582   5.485 -0.2459 -0.8091 -0.3147
13246TIP3    H161229   6.163   1.627   5.439 -1.4370 -1.7866  0.5313
13246TIP3    H261230   6.193   1.544   5.562  0.8700 -2.6817 -0.5921
13247TIP3   OH261231   6.619   5.474   1.999 -0.1427 -0.8792 -0.0349
13247TIP3    H161232   6.591   5.397   2.048 -1.5095  0.0191  0.6293
13247TIP3    H261233   6.538   5.522   1.981  0.8910  1.4140  1.2904
13248TIP3   OH261234   2.616   4.676  15.240 -0.2447 -0.0649  0.6755
13248TIP3    H161235   2.649   4.684  15.151 -2.8389  1.5952 -0.1640
13248TIP3    H261236   2.662   4.744  15.290  0.7018 -0.5570  0.4908
13249TIP3   OH261237   4.926   5.618   6.174 -0.1650 -0.1946 -0.5788
13249TIP3    H161238   4.932   5.523   6.164  0.8557 -0.3822  1.7224
13249TIP3    H261239   4.894   5.631   6.263  0.0619  1.6317 -0.7487
13250TIP3   OH261240   5.475   2.381   4.199 -0.3577  0.8638 -0.6319
13250TIP3    H161241   5.470   2.398   4.105  0.5978  2.4832 -0.4174
13250TIP3    H261242   5.452   2.465   4.240 -0.6068  0.2240  0.5718
13251TIP3   OH261243   6.443   4.989   1.579  0.0953  0.5565  0.0024
13251TIP3    H161244   6.492   4.934   1.640 -0.0091  1.0855  0.5640
13251TIP3    H261245   6.473   5.078   1.598  0.7340  0.6450 -1.3298
13252TIP3   OH261246   2.847   5.367  12.596  0.4043 -0.1714  0.1541
13252TIP3    H161247   2.906   5.437  12.570  0.7397 -0.4194  0.2427
13252TIP3    H261248   2.903   5.290  12.604 -0.1842 -0.8034 -1.4525
13253TIP3   OH261249   6.248   1.364   1.815  0.1301 -0.1288  0.3320
13253TIP3    H161250   6.253   1.421   1.892 -1.1785  1.6413 -0.8542
13253TIP3    H261251   6.302   1.408   1.749  2.5682 -2.4522  0.6830
13254TIP3   OH261252   4.168   3.601   0.748  0.2507  0.2682  0.5886
13254TIP3    H161253   4.162   3.659   0.824 -2.2364 -1.4236  1.7739
13254TIP3    H261254   4.078   3.599   0.713  0.1969 -3.0439  0.7661
13255TIP3   OH261255   3.601   5.845   3.024 -0.2404  0.2115  0.1709
13255TIP3    H161256   3.623   5.782   3.093  0.2915 -1.8532 -1.7933
13255TIP3    H261257   3.520   5.811   2.985  1.8059 -1.2211 -3.0845
13256TIP3   OH261258   1.500   0.797  16.674  0.2936  0.4435 -0.0629
13256TIP3    H161259   1.426   0.755  16.630  0.0631  0.8528 -0.0737
13256TIP3    H261260   1.511   0.880  16.627 -1.4591  1.9716  2.1285
13257TIP3   OH261261   4.375   6.760   6.158  0.5299 -0.3717 -0.2277
13257TIP3    H161262   4.440   6.726   6.220  1.6366  0.3937 -0.9430
13257TIP3    H261263   4.316   6.687   6.143 -0.0438 -0.4136  2.1136
13258TIP3   OH261264   2.407   5.480   4.560  0.0790  0.1068 -0.1122
13258TIP3    H161265   2.337   5.545   4.570  0.7945  1.1573 -1.7706
13258TIP3    H261266   2.372   5.416   4.498  0.3151  0.2608 -0.4075
13259TIP3   OH261267   0.471   6.691   2.696 -0.4903  0.4779 -0.2759
13259TIP3    H161268   0.404   6.640   2.650 -2.6338  0.8832  2.2642
13259TIP3    H261269   0.554   6.660   2.660 -1.8886 -2.3298 -1.2626
13260TIP3   OH261270   5.009   6.533   2.591  0.1470  0.6118  0.1904
13260TIP3    H161271   5.031   6.578   2.509 -0.5129  1.4261  0.4667
13260TIP3    H261272   5.024   6.440   2.570  1.4638  0.9260 -0.3837
13261TIP3   OH261273   3.113   5.726   1.398  0.1027  0.1051 -0.4097
13261TIP3    H161274   3.188   5.776   1.432  0.6268 -0.7508 -0.2925
13261TIP3    H261275   3.145   5.689   1.316  0.0276 -0.8264 -0.0171
13262TIP3   OH261276   2.842   2.184  17.270 -0.0162  0.2331 -0.4973
13262TIP3    H161277   2.818   2.094  17.247  0.5775  0.4154 -1.8632
13262TIP3    H261278   2.934   2.179  17.296  0.1988  0.5413 -1.1823
13263TIP3   OH261279   1.720   2.225  15.681 -0.1606 -0.3749 -0.7641
13263TIP3    H161280   1.677   2.193  15.602  0.6474 -0.7262 -1.0699
13263TIP3    H261281   1.781   2.292  15.649  0.9333 -1.2566 -0.5782
13264TIP3   OH261282   3.675   1.875   5.117  0.5282 -0.3121  0.1759
13264TIP3    H161283   3.703   1.832   5.036 -0.1544 -0.0678 -0.1957
13264TIP3    H261284   3.711   1.963   5.112 -2.2019  0.7493 -1.3782
13265TIP3   OH261285   4.305   1.413   2.576  0.6406 -0.4245 -0.0092
13265TIP3    H161286   4.268   1.423   2.488  0.2970  0.0152  0.1813
13265TIP3    H261287   4.232   1.433   2.635  0.8699 -0.7188  0.3754
13266TIP3   OH261288   0.376   6.453  15.197  0.0094 -0.1911 -0.0635
13266TIP3    H161289   0.294   6.455  15.246 -0.0345  1.7086 -0.1857
13266TIP3    H261290   0.363   6.385  15.132 -1.1281 -0.5394  0.5094
13267TIP3   OH261291   6.818   2.741   2.880 -0.9343 -0.2915 -0.0080
13267TIP3    H161292   6.850   2.677   2.816 -0.3765 -0.3753  0.3457
13267TIP3    H261293   6.806   2.822   2.830  2.4055  0.4916  0.3411
13268TIP3   OH261294   4.156   0.650   3.028  0.6869  0.0393 -0.3649
13268TIP3    H161295   4.228   0.671   3.087 -1.1907 -0.6795  2.2697
13268TIP3    H261296   4.136   0.733   2.984 -0.2580  1.5573  2.7451
13269TIP3   OH261297   2.754   0.290  17.042 -0.2156  0.3806 -0.3653
13269TIP3    H161298   2.709   0.267  16.961 -1.4113  1.8689 -0.1400
13269TIP3    H261299   2.822   0.224  17.051  1.2039  1.2917 -3.6007
13270TIP3   OH261300   5.606   4.360   6.223 -0.4449 -0.6015 -0.3619
13270TIP3    H161301   5.566   4.401   6.146 -0.6975 -0.2356 -0.0333
13270TIP3    H261302   5.584   4.418   6.296  2.3854  0.7538 -0.4789
13271TIP3   OH261303   5.517   2.377   3.914 -0.4412  0.1610  0.4891
13271TIP3    H161304   5.541   2.298   3.865 -0.1751 -0.3128  1.3825
13271TIP3    H261305   5.598   2.427   3.921 -0.4402  0.1459  0.5904
13272TIP3   OH261306   6.049   1.666   3.043 -0.0371 -0.6423 -0.2677
13272TIP3    H161307   5.975   1.611   3.019 -0.8268  0.0686  0.4625
13272TIP3    H261308   6.014   1.755   3.042  0.4765 -0.3950  1.2322
13273TIP3   OH261309   2.013   1.367   5.306 -0.4182 -0.0559  0.5073
13273TIP3    H161310   1.921   1.349   5.283 -0.3258 -0.6291  0.5768
13273TIP3    H261311   2.032   1.307   5.378  0.1131 -0.1747  0.2691
13274TIP3   OH261312   3.432   0.050  16.258  0.3949 -0.6719  0.0124
13274TIP3    H161313   3.445   0.086  16.346 -0.3041  0.9338 -0.5052
13274TIP3    H261314   3.347   0.007  16.262 -1.5267  2.8145 -0.8683
13275TIP3   OH261315   1.855   2.122  14.228  0.0511  0.3206  0.5540
13275TIP3    H161316   1.935   2.118  14.177  0.6515  2.7542  1.2099
13275TIP3    H261317   1.799   2.184  14.181 -0.9259 -0.3759  0.7831
13276TIP3   OH261318   1.101   3.103  13.690 -0.4905  0.1579  0.0809
13276TIP3    H161319   1.010   3.077  13.704 -1.4426  3.7906  1.1085
13276TIP3    H261320   1.108   3.114  13.595 -1.0448 -0.4271 -0.0284
13277TIP3   OH261321   2.522   5.512   0.390 -0.0513  0.4160 -0.3780
13277TIP3    H161322   2.540   5.597   0.429  0.4830 -0.6696  1.7719
13277TIP3    H261323   2.439   5.484   0.430  1.3423 -1.4480  1.2751
13278TIP3   OH261324   5.715   1.099  12.372 -0.0213  0.2239 -0.0853
13278TIP3    H161325   5.653   1.055  12.430 -2.5211  2.2613 -1.0936
13278TIP3    H261326   5.724   1.041  12.297  0.0383 -0.5342  0.5075
13279TIP3   OH261327   5.899   2.157   1.631  0.2222 -0.3734 -0.0483
13279TIP3    H161328   5.860   2.222   1.690 -0.3766 -0.9380  0.1865
13279TIP3    H261329   5.992   2.157   1.654  0.1418  0.0411  0.2935
13280TIP3   OH261330   4.215   6.661   5.256 -0.4168  0.0887 -0.1117
13280TIP3    H161331   4.305   6.681   5.281 -0.4811 -0.2448  0.3928
13280TIP3    H261332   4.169   6.745   5.263 -0.0130  0.3921 -0.9888
13281TIP3   OH261333   0.723   3.329   2.926  0.3574  0.4589 -0.3663
13281TIP3    H161334   0.686   3.291   3.005 -0.5001  1.4085 -0.2985
13281TIP3    H261335   0.787   3.393   2.959  1.3972 -0.5125 -0.4720
13282TIP3   OH261336   1.468   4.393  16.077 -0.5649  0.0152 -0.1422
13282TIP3    H161337   1.441   4.484  16.088 -2.8733 -0.6702  0.2696
13282TIP3    H261338   1.431   4.367  15.992 -0.2789 -0.6604 -0.0650
13283TIP3   OH261339   2.999   5.399   3.250 -0.0232 -0.5010 -0.2045
13283TIP3    H161340   3.089   5.428   3.236  0.0997 -0.7687  0.0269
13283TIP3    H261341   2.959   5.470   3.301  0.8419 -1.6161  2.1149
13284TIP3   OH261342   1.898   1.164  16.494  0.4140  0.2588 -0.4005
13284TIP3    H161343   1.843   1.118  16.431  1.2139 -1.9078  0.4305
13284TIP3    H261344   1.838   1.221  16.543 -0.6925 -0.3460 -1.0435
13285TIP3   OH261345   5.968   1.240  12.033  0.5419  0.4093 -0.1210
13285TIP3    H161346   5.965   1.300  12.107  1.3838  2.4105 -1.6715
13285TIP3    H261347   5.877   1.219  12.015  0.2541  1.0346  0.5784
13286TIP3   OH261348   5.519   4.855   0.767 -0.3292  0.6436 -0.0605
13286TIP3    H161349   5.476   4.776   0.800  0.8517 -0.2969 -0.7267
13286TIP3    H261350   5.612   4.840   0.785  0.0730  1.1739 -1.6384
13287TIP3   OH261351   5.909   0.234   5.387  0.1537 -0.0073  0.4975
13287TIP3    H161352   5.960   0.224   5.468  0.5110  0.2438  0.3066
13287TIP3    H261353   5.901   0.145   5.353  0.8074 -0.0099  0.3279
13288TIP3   OH261354   1.654   5.520   6.207 -0.0345  0.1760  0.8601
13288TIP3    H161355   1.579   5.494   6.261  1.0029 -0.3837  2.0684
13288TIP3    H261356   1.633   5.610   6.179 -1.4575 -0.2173  0.6064
13289TIP3   OH261357   2.407   4.440  14.254  0.9016 -0.0362 -0.1050
13289TIP3    H161358   2.418   4.474  14.343 -0.7265  0.3693 -0.0354
13289TIP3    H261359   2.377   4.349  14.267  0.3565  0.1231 -0.2232
13290TIP3   OH261360   3.499   0.340   4.333  0.7662  0.0522  0.2880
13290TIP3    H161361   3.455   0.257   4.317 -1.0982  1.5436 -2.6704
13290TIP3    H261362   3.446   0.382   4.401  0.8807 -0.5416  0.7507
13291TIP3   OH261363   5.815   5.363   2.641  0.6310  0.1707 -0.0752
13291TIP3    H161364   5.896   5.358   2.589  0.2953 -0.1177 -0.5677
13291TIP3    H261365   5.802   5.457   2.655  1.4191  0.1943  0.5824
13292TIP3   OH261366   4.499   4.077   1.232  0.1001  0.1672 -0.4068
13292TIP3    H161367   4.409   4.062   1.259 -0.2241  1.1727 -0.8731
13292TIP3    H261368   4.509   4.028   1.150 -0.2566  0.6306 -0.7352
13293TIP3   OH261369   3.797   3.503  13.538  0.7635  0.0347  0.0877
13293TIP3    H161370   3.826   3.499  13.630 -0.5956  1.0279  0.5855
13293TIP3    H261371   3.847   3.576  13.501 -0.2739  1.0348  0.6403
13294TIP3   OH261372   4.873   1.902   0.689  0.1031  0.6384  1.0789
13294TIP3    H161373   4.777   1.896   0.681  0.2486 -2.2764  0.9679
13294TIP3    H261374   4.904   1.912   0.599  0.0595 -1.5354  0.8112
13295TIP3   OH261375   1.208   1.037  14.605 -0.0625 -0.4713 -0.0493
13295TIP3    H161376   1.276   0.986  14.560 -1.3684 -0.2514 -2.3797
13295TIP3    H261377   1.126   0.997  14.576 -1.0392  1.5845 -0.2253
13296TIP3   OH261378   1.977   2.385  12.256 -0.0924 -0.2649 -0.7152
13296TIP3    H161379   2.064   2.406  12.292 -0.9328  1.0601  0.5786
13296TIP3    H261380   1.990   2.386  12.161  1.1722  0.5716 -0.5458
13297TIP3   OH261381   0.253   3.929   5.063 -0.3305  0.2631 -0.0664
13297TIP3    H161382   0.336   3.883   5.073 -0.5758 -0.0615  0.5188
13297TIP3    H261383   0.254   3.962   4.973  0.7943  0.9861  0.2097
13298TIP3   OH261384   5.397   6.223  11.593  0.3388 -0.1850 -0.4097
13298TIP3    H161385   5.447   6.253  11.517  1.0146 -1.0825 -0.3249
13298TIP3    H261386   5.429   6.278  11.665  1.4480 -0.9582 -0.2901
13299TIP3   OH261387   0.180   1.616  16.598  0.5902  0.4591  0.1886
13299TIP3    H161388   0.166   1.657  16.513  0.2502 -0.3820 -0.1657
13299TIP3    H261389   0.154   1.524  16.585  1.7624  0.0296  0.8486
13300TIP3   OH261390   1.197   6.765   2.670 -0.0236  0.1001  0.3302
13300TIP3    H161391   1.219   6.672   2.663  0.2509  0.1968 -0.0777
13300TIP3    H261392   1.166   6.776   2.760 -0.5044 -0.4845  0.2362
13301TIP3   OH261393   1.356   5.542  12.068  0.7686 -0.0233  0.3494
13301TIP3    H161394   1.409   5.620  12.085 -0.4530  0.2271  3.2457
13301TIP3    H261395   1.321   5.518  12.153 -0.1709 -2.8244 -0.7786
13302TIP3   OH261396   5.974   2.548  12.116  0.2008  0.0128  0.8257
13302TIP3    H161397   5.970   2.471  12.059  0.4235 -0.1030  0.9692
13302TIP3    H261398   6.047   2.531  12.176  1.7506  1.3808 -0.6317
13303TIP3   OH261399   0.574   3.915   6.617 -0.1340 -0.4086 -0.3396
13303TIP3    H161400   0.603   3.859   6.544  0.0632 -0.0219 -0.5595
13303TIP3    H261401   0.478   3.913   6.611 -0.1526 -1.4454  0.2054
13304TIP3   OH261402   5.437   3.216  13.262  0.5079  0.2251 -0.5298
13304TIP3    H161403   5.507   3.279  13.275  1.9598 -1.6720  1.1844
13304TIP3    H261404   5.371   3.239  13.327  0.8759  0.2133 -0.1477
13305TIP3   OH261405   2.861   4.090   0.960 -0.5524 -0.1606  0.0646
13305TIP3    H161406   2.806   4.143   0.902 -0.5767 -0.5299 -0.2489
13305TIP3    H261407   2.810   4.011   0.977 -1.2103  0.6221  1.8402
13306TIP3   OH261408   6.430   3.814   4.571 -0.0405 -0.3719 -0.2866
13306TIP3    H161409   6.366   3.807   4.643  0.4914  1.9030  0.4523
13306TIP3    H261410   6.515   3.804   4.614  0.2394  0.1657 -0.7021
13307TIP3   OH261411   2.022   2.741   1.688 -0.4030 -0.0082  0.4923
13307TIP3    H161412   2.116   2.727   1.673 -0.2280  1.9067 -0.3922
13307TIP3    H261413   1.982   2.728   1.602 -0.9161 -0.5171  0.8067
13308TIP3   OH261414   5.474   3.685  11.999 -0.7559 -0.2783  0.3502
13308TIP3    H161415   5.523   3.761  11.967  0.2498 -0.0650  2.2920
13308TIP3    H261416   5.540   3.615  12.005 -1.7847 -1.5098 -1.9811
13309TIP3   OH261417   3.146   4.095  11.290 -0.0429  0.1306 -0.4837
13309TIP3    H161418   3.090   4.165  11.256  0.5343  0.6364 -0.4190
13309TIP3    H261419   3.231   4.138  11.303  0.5123 -0.7614 -1.1231
13310TIP3   OH261420   5.476   3.619   1.705  0.2493 -0.2140 -0.1858
13310TIP3    H161421   5.457   3.642   1.614  0.9794 -1.2896 -0.6165
13310TIP3    H261422   5.439   3.691   1.756  1.0377  1.0794 -1.4163
13311TIP3   OH261423   4.486   4.074   0.937 -0.3359  0.5362  0.2010
13311TIP3    H161424   4.406   4.126   0.937 -0.3976  0.4687 -1.3157
13311TIP3    H261425   4.468   4.002   0.877  0.0110 -0.8232  1.7099
13312TIP3   OH261426   3.792   4.404   1.976  0.1247 -0.2297  0.5471
13312TIP3    H161427   3.878   4.399   1.934  0.7167  0.3445  1.6526
13312TIP3    H261428   3.788   4.492   2.012 -1.0089 -0.1962  0.3538
13313TIP3   OH261429   6.615   3.896   4.851 -0.4526  0.0740  0.2553
13313TIP3    H161430   6.639   3.947   4.928 -0.4956 -0.1522  0.4172
13313TIP3    H261431   6.661   3.939   4.779  1.4704 -1.1036  0.7396
13314TIP3   OH261432   4.524   1.836   3.318 -0.0563  0.6144 -0.1922
13314TIP3    H161433   4.560   1.750   3.295  1.0250  0.9813  0.1332
13314TIP3    H261434   4.448   1.815   3.373  0.0166 -0.1478 -0.3786
13315TIP3   OH261435   6.497   5.616   3.794 -0.7479 -0.3982  0.3935
13315TIP3    H161436   6.423   5.662   3.754 -0.7390 -0.4511  0.3149
13315TIP3    H261437   6.539   5.570   3.721  1.2436  2.1597 -0.1160
13316TIP3   OH261438   4.092   0.472  16.203  0.0349  0.4084  0.3723
13316TIP3    H161439   4.033   0.434  16.268  3.0934 -0.1595  2.9698
13316TIP3    H261440   4.126   0.551  16.245  0.4010  1.2391 -1.4539
13317TIP3   OH261441   5.613   3.452   0.005  0.2099 -0.1756  0.1105
13317TIP3    H161442   5.566   3.388  -0.048  1.3061 -0.5609 -0.4139
13317TIP3    H261443   5.558   3.530   0.004 -1.8005 -1.5281  1.8664
13318TIP3   OH261444   2.941   0.090   3.479 -0.5052  0.4991  0.1673
13318TIP3    H161445   2.849   0.108   3.498 -0.7693 -0.8117  0.1773
13318TIP3    H261446   2.967   0.161   3.420 -1.7582  0.4383 -0.4929
13319TIP3   OH261447   3.904   4.607   6.171  0.1171  0.3234 -0.5916
13319TIP3    H161448   3.961   4.592   6.246 -0.7613  2.0703  0.4771
13319TIP3    H261449   3.881   4.520   6.139  1.8690 -0.4113  0.1092
13320TIP3   OH261450   5.636   3.326  11.631  0.5506 -0.5204 -0.6466
13320TIP3    H161451   5.599   3.367  11.554  0.7782 -0.6371 -0.8176
13320TIP3    H261452   5.671   3.399  11.683  0.6548 -0.4683 -0.7899
13321TIP3   OH261453   5.565   5.050  15.378 -0.4603  0.1585  0.1580
13321TIP3    H161454   5.562   5.119  15.444 -0.7327  0.7434 -0.4550
13321TIP3    H261455   5.561   5.097  15.294 -2.6189 -0.6876 -0.2536
13322TIP3   OH261456   3.545   1.284   1.561  0.2955  0.0153 -0.0772
13322TIP3    H161457   3.567   1.318   1.475 -0.5103  0.2455 -0.2039
13322TIP3    H261458   3.607   1.326   1.621 -0.7454  1.7963 -0.2192
13323TIP3   OH261459   0.348   4.428   1.398 -0.7780 -0.0586  0.7308
13323TIP3    H161460   0.283   4.359   1.410 -0.0203 -0.8528  0.3510
13323TIP3    H261461   0.403   4.423   1.477  0.5703 -1.3126 -0.2694
13324TIP3   OH261462   1.274   0.958   3.739  0.0404 -0.2249  0.2325
13324TIP3    H161463   1.281   0.974   3.833  0.6308 -0.1210  0.1697
13324TIP3    H261464   1.363   0.939   3.710 -0.0314  0.3717 -0.4202
13325TIP3   OH261465   3.312   1.641  16.634  0.4059  0.4964  0.0572
13325TIP3    H161466   3.316   1.601  16.721 -0.2219 -0.2908 -0.2732
13325TIP3    H261467   3.382   1.706  16.634  0.0842  0.8566  1.3326
13326TIP3   OH261468   1.625   4.961   2.908 -0.5183 -0.0569  0.4706
13326TIP3    H161469   1.640   5.041   2.857  1.6123  1.3232  3.1269
13326TIP3    H261470   1.550   4.982   2.964  0.7424  0.5680  1.9830
13327TIP3   OH261471   1.243   4.357  12.683  0.0089  0.0848 -0.1766
13327TIP3    H161472   1.293   4.337  12.604  0.0975  2.0569 -0.6454
13327TIP3    H261473   1.162   4.308  12.674  1.7386 -3.0235  0.5077
13328TIP3   OH261474   0.297   4.428   3.663 -0.1768  0.1534  0.2286
13328TIP3    H161475   0.204   4.440   3.682 -0.7914 -1.1604 -1.8056
13328TIP3    H261476   0.309   4.333   3.662  1.1746  0.3098  0.3506
13329TIP3   OH261477   1.457   5.572   4.417  0.4195  0.3719 -0.4284
13329TIP3    H161478   1.511   5.500   4.385 -0.2441 -0.7436  0.8624
13329TIP3    H261479   1.439   5.625   4.340  1.0476 -0.7667 -1.3864
13330TIP3   OH261480   3.741   5.606  15.947  0.1997  0.0079 -0.4279
13330TIP3    H161481   3.742   5.702  15.941  1.3718  0.0069 -0.4708
13330TIP3    H261482   3.654   5.581  15.919 -0.8079  1.1958  1.5543
13331TIP3   OH261483   4.993   0.903   2.000  0.2347 -0.0611  0.3196
13331TIP3    H161484   5.021   0.955   2.075 -1.0779 -1.6139  1.9377
13331TIP3    H261485   5.052   0.929   1.929  0.0596  3.0697  1.2490
13332TIP3   OH261486   1.675   2.242  15.958  0.9991  0.0892  0.1144
13332TIP3    H161487   1.673   2.240  15.862 -1.8244 -0.7165  0.1694
13332TIP3    H261488   1.639   2.328  15.981 -2.4259 -1.3888  0.4982
13333TIP3   OH261489   4.222   2.908  16.196 -0.5548  0.5051 -0.2388
13333TIP3    H161490   4.266   2.920  16.280 -0.6938  0.9305 -0.2264
13333TIP3    H261491   4.280   2.949  16.132  0.3665 -1.2623 -0.5830
13334TIP3   OH261492   5.515   0.022  15.073 -0.2704  0.2962  0.4187
13334TIP3    H161493   5.510   0.054  14.983  0.7394 -1.1222 -0.1611
13334TIP3    H261494   5.445   0.069  15.120 -1.8228 -0.0976 -1.4510
13335TIP3   OH261495   5.553   5.342   3.445  0.0113  0.3611  0.1215
13335TIP3    H161496   5.500   5.312   3.519 -1.3267  1.2248 -0.4584
13335TIP3    H261497   5.508   5.421   3.414  0.2891 -0.2276 -1.8690
13336TIP3   OH261498   1.648   3.603   5.448  0.0298 -0.2066 -0.3615
13336TIP3    H161499   1.554   3.616   5.460  0.5793  2.5391  1.2479
13336TIP3    H261500   1.672   3.663   5.378  0.8779  0.3045  0.3617
13337TIP3   OH261501   2.323   6.756   3.370 -0.7003 -0.0558 -0.4567
13337TIP3    H161502   2.237   6.756   3.328  0.0338  1.1859 -1.9944
13337TIP3    H261503   2.357   6.668   3.354 -1.0958 -0.0955 -1.1066
13338TIP3   OH261504   3.679   5.398  14.864  0.3145  0.3548  0.1980
13338TIP3    H161505   3.667   5.359  14.777  0.8843  0.2558  0.1672
13338TIP3    H261506   3.662   5.492  14.850 -0.7613  0.1784  0.2165
13339TIP3   OH261507   3.942   2.088   2.738  0.4738  0.6475  0.0499
13339TIP3    H161508   3.923   2.182   2.738 -0.7336  0.4158  0.0544
13339TIP3    H261509   3.870   2.049   2.688 -0.5532 -0.5738  2.4100
13340TIP3   OH261510   1.385   6.087  11.644  0.3838  0.2176  0.1914
13340TIP3    H161511   1.469   6.068  11.602  0.2466  1.6571 -0.7721
13340TIP3    H261512   1.351   6.162  11.596 -1.7984 -0.7938  0.0996
13341TIP3   OH261513   0.949   0.662   0.461  0.0891  0.3453 -0.3867
13341TIP3    H161514   0.966   0.695   0.549 -0.0948  1.8698 -0.8994
13341TIP3    H261515   0.957   0.739   0.404  0.4983 -0.6669 -1.7442
13342TIP3   OH261516   1.974   2.010   2.164  0.4010 -0.0668  0.1444
13342TIP3    H161517   1.979   2.105   2.168 -0.7204 -0.0347  0.9902
13342TIP3    H261518   2.022   1.980   2.242 -0.2870 -0.1612  0.5306
13343TIP3   OH261519   4.242   2.703  12.950 -0.0924  0.1239  0.4995
13343TIP3    H161520   4.165   2.687  12.895 -0.0271 -1.3073  0.8045
13343TIP3    H261521   4.219   2.667  13.035  0.9874 -0.5099  0.5307
13344TIP3   OH261522   4.225   4.638  15.284  0.0073 -0.2472 -0.1948
13344TIP3    H161523   4.147   4.689  15.304  0.4958  1.1848 -1.7631
13344TIP3    H261524   4.297   4.702  15.286  0.4359 -0.4727 -3.6922
13345TIP3   OH261525   3.740   1.715   4.348 -0.0430  0.6076  0.1658
13345TIP3    H161526   3.726   1.620   4.339 -0.5120  0.6817  0.1172
13345TIP3    H261527   3.705   1.752   4.267 -2.6618  1.1174  1.4886
13346TIP3   OH261528   1.391   5.393   2.869 -0.0809  0.4258  0.2627
13346TIP3    H161529   1.344   5.402   2.786  1.3762 -0.3453 -0.6702
13346TIP3    H261530   1.413   5.483   2.893 -0.1094  0.6263 -0.4307
13347TIP3   OH261531   1.064   2.434   1.274 -0.0791 -0.2045  0.3221
13347TIP3    H161532   1.019   2.407   1.194  0.2591  2.9906 -1.0342
13347TIP3    H261533   1.150   2.392   1.268 -0.4931 -0.9782 -0.3560
13348TIP3   OH261534   6.724   3.452   1.412 -0.1227  0.6627  0.0186
13348TIP3    H161535   6.651   3.474   1.355 -0.3194 -0.1113 -0.0236
13348TIP3    H261536   6.692   3.380   1.466  0.1268  1.2555  0.9734
13349TIP3   OH261537   4.300   1.188   5.573 -0.0149  0.7464  0.7191
13349TIP3    H161538   4.377   1.194   5.629  0.4183 -1.8550  0.4773
13349TIP3    H261539   4.321   1.118   5.511 -1.6631  1.5755 -0.8113
13350TIP3   OH261540   1.375   2.078  16.012 -0.5453  0.0313  0.0293
13350TIP3    H161541   1.360   2.095  16.105 -0.9806  0.6723 -0.1581
13350TIP3    H261542   1.351   2.159  15.968  2.3127  0.6829 -0.4184
13351TIP3   OH261543   6.685   0.580   0.111 -0.2091  0.1215  0.4208
13351TIP3    H161544   6.707   0.577   0.204 -0.6744 -1.1357  0.5040
13351TIP3    H261545   6.607   0.524   0.103 -0.3056  0.4003 -0.6835
13352TIP3   OH261546   0.844   1.711   4.444  0.0608  0.1720 -0.2866
13352TIP3    H161547   0.861   1.623   4.477  0.5655  0.6945  0.9005
13352TIP3    H261548   0.759   1.705   4.400  0.5926 -1.1383 -1.1548
13353TIP3   OH261549   6.313   2.963   2.599 -0.0522  0.0497  0.1426
13353TIP3    H161550   6.308   3.041   2.545  2.3910 -0.7118 -1.2883
13353TIP3    H261551   6.337   2.995   2.686  0.9828  0.9047 -0.4504
13354TIP3   OH261552   3.068   5.496  12.556  0.0316 -0.2893 -0.1768
13354TIP3    H161553   3.120   5.435  12.504 -0.6536 -0.8339 -0.2360
13354TIP3    H261554   3.131   5.561  12.589  0.4463  0.2018 -1.8815
13355TIP3   OH261555   5.802   4.845   2.506  0.0454  0.1062 -0.5803
13355TIP3    H161556   5.796   4.923   2.561 -2.2813  0.8668 -1.8525
13355TIP3    H261557   5.768   4.872   2.421 -0.9580 -2.3409 -1.0005
13356TIP3   OH261558   1.296   2.076  16.280  0.4940  0.0092 -0.0351
13356TIP3    H161559   1.255   1.991  16.266  0.8773 -0.1861  0.0315
13356TIP3    H261560   1.324   2.075  16.371  1.5047 -0.2301 -0.3455
13357TIP3   OH261561   0.375   1.891   5.503 -0.4645 -0.5958 -0.3068
13357TIP3    H161562   0.437   1.959   5.477 -0.6454 -0.2827  0.0763
13357TIP3    H261563   0.404   1.813   5.457 -0.0259 -0.3498 -0.4445
13358TIP3   OH261564   0.949   0.468  14.845  0.7929 -0.3752 -0.2203
13358TIP3    H161565   0.974   0.554  14.811  1.0556 -0.3802 -0.0413
13358TIP3    H261566   0.971   0.408  14.773 -0.7670 -0.1303 -0.9168
13359TIP3   OH261567   1.904   2.148  13.830  0.0091 -0.5479 -0.1827
13359TIP3    H161568   1.852   2.184  13.901  0.1308 -0.3973 -0.1691
13359TIP3    H261569   1.946   2.224  13.790  0.5375 -0.7117  0.0609
13360TIP3   OH261570   5.412   6.341   4.085  0.6957  0.4934 -0.2904
13360TIP3    H161571   5.338   6.354   4.145  2.3192 -1.0023  2.1508
13360TIP3    H261572   5.459   6.424   4.087  1.5022  0.0170  1.6633
13361TIP3   OH261573   3.409   4.382   1.124  0.3214 -0.5876  0.5905
13361TIP3    H161574   3.439   4.385   1.033  0.4353 -2.1102  0.5667
13361TIP3    H261575   3.323   4.424   1.122 -0.0552 -1.3820 -0.3809
13362TIP3   OH261576   5.212   0.146  12.257 -0.6869  0.4225 -0.1802
13362TIP3    H161577   5.204   0.108  12.170 -1.1862 -2.0595  0.9199
13362TIP3    H261578   5.291   0.106  12.293 -0.7532  1.0740  0.6912
13363TIP3   OH261579   2.489   4.990  17.045  0.0608 -0.2784 -0.0005
13363TIP3    H161580   2.483   5.084  17.064  0.2525 -0.0684 -0.9647
13363TIP3    H261581   2.404   4.955  17.072 -0.2568  0.2851 -0.2558
13364TIP3   OH261582   0.089   0.087   4.309  0.0873  0.3513  0.1411
13364TIP3    H161583   0.121   0.080   4.219 -0.4718 -0.3290 -0.0112
13364TIP3    H261584   0.109   0.177   4.335  1.0166  0.2958 -0.3653
13365TIP3   OH261585   1.574   2.923   6.278  0.6584  0.2035 -0.0478
13365TIP3    H161586   1.552   2.835   6.308 -1.2696  0.6598 -0.0738
13365TIP3    H261587   1.512   2.980   6.323  2.1778  1.6000  0.3043
13366TIP3   OH261588   1.921   2.713   5.546  0.5732  0.1656 -0.1654
13366TIP3    H161589   1.859   2.691   5.477  3.0314  0.8484 -2.6599
13366TIP3    H261590   1.916   2.809   5.553  2.0338  0.3095 -1.0504
13367TIP3   OH261591   6.423   5.409   6.122 -0.0217 -0.2841 -0.1412
13367TIP3    H161592   6.406   5.383   6.031 -1.1242 -1.7994  0.4695
13367TIP3    H261593   6.366   5.484   6.137  0.9317  0.6163 -1.0162
13368TIP3   OH261594   6.571   3.443   3.865  0.0515  0.5209  0.3961
13368TIP3    H161595   6.544   3.385   3.937  0.1550 -0.3873 -0.2942
13368TIP3    H261596   6.503   3.432   3.799  0.8609  0.0253 -0.3662
13369TIP3   OH261597   5.929   1.466  11.770 -0.3896 -0.8479  0.0698
13369TIP3    H161598   5.991   1.494  11.703 -1.6570  2.0416  0.0576
13369TIP3    H261599   5.984   1.447  11.847  0.6424  0.2277 -0.3949
13370TIP3   OH261600   4.351   3.395   9.123  0.4550  0.2309 -0.0704
13370TIP3    H161601   4.256   3.382   9.116  0.8654 -2.1932 -2.1659
13370TIP3    H261602   4.366   3.485   9.094 -1.2569  0.8738  0.9794
13371TIP3   OH261603   6.703   4.062  10.238  0.0953 -0.0594  0.1690
13371TIP3    H161604   6.732   3.971  10.236  0.8477  0.1630  0.8186
13371TIP3    H261605   6.664   4.073  10.325  0.2987  0.3295  0.2120
13372TIP3   OH261606   2.057   0.432   0.342 -0.1315  0.4020 -0.3010
13372TIP3    H161607   2.146   0.399   0.328 -1.4126 -2.3121 -2.7336
13372TIP3    H261608   2.041   0.420   0.435  0.7731 -2.6217 -0.4867
13373TIP3   OH261609   0.371   1.169   0.814  0.3720 -0.2662 -0.0360
13373TIP3    H161610   0.335   1.209   0.735  0.0294 -0.7314 -0.1156
13373TIP3    H261611   0.429   1.100   0.783 -0.2149 -0.8382  0.1221
13374TIP3   OH261612   6.339   5.175  14.302  0.7956  0.8254  0.7837
13374TIP3    H161613   6.414   5.234  14.289  1.7022  0.2514  3.1477
13374TIP3    H261614   6.265   5.233  14.317  1.3659  1.3831  1.4770
13375TIP3   OH261615   3.725   4.039   4.841  0.0267  0.0537  0.3275
13375TIP3    H161616   3.707   4.048   4.748  1.4499  1.3052  0.1544
13375TIP3    H261617   3.640   4.049   4.884 -0.5334  0.0916 -0.7843
13376TIP3   OH261618   3.985   4.636   2.709  0.3578 -0.0476  0.4491
13376TIP3    H161619   3.986   4.719   2.661 -0.1431  0.9473  2.1216
13376TIP3    H261620   4.015   4.659   2.797 -0.2457 -1.5586  1.0664
13377TIP3   OH261621   5.255   4.760   2.998 -0.2131  0.3941 -0.6526
13377TIP3    H161622   5.322   4.732   3.061  0.1050  0.3900 -0.9951
13377TIP3    H261623   5.251   4.855   3.008  0.2779  0.4579 -1.0699
13378TIP3   OH261624   6.272   5.187  13.427  0.6206 -0.0815 -0.2218
13378TIP3    H161625   6.229   5.189  13.342  0.3326  0.1838 -0.0686
13378TIP3    H261626   6.222   5.124  13.479  1.3693 -0.9728 -0.5506
13379TIP3   OH261627   5.251   0.425   4.392  0.5052 -0.2537  0.0340
13379TIP3    H161628   5.312   0.382   4.451  1.5087  0.7779 -0.2260
13379TIP3    H261629   5.176   0.449   4.447 -0.0050 -2.1596  0.2096
13380TIP3   OH261630   4.605   5.531  13.172 -0.1914 -0.2382 -0.3098
13380TIP3    H161631   4.580   5.582  13.249  1.5571 -2.0405  1.5272
13380TIP3    H261632   4.539   5.553  13.106 -1.0270  2.2779  1.2869
13381TIP3   OH261633   6.128   5.063   1.370 -0.2957 -0.2781  0.0882
13381TIP3    H161634   6.217   5.086   1.397 -0.5217 -2.1485  2.5927
13381TIP3    H261635   6.139   5.022   1.284  1.3493 -1.1095  0.6699
13382TIP3   OH261636   2.288   1.242   4.423 -0.3403  0.1831 -0.0176
13382TIP3    H161637   2.338   1.290   4.358  0.1961 -0.2751  0.0540
13382TIP3    H261638   2.296   1.150   4.397 -0.1049 -0.0041  0.7026
13383TIP3   OH261639   1.252   2.831  15.338 -0.3891  0.0565 -0.0202
13383TIP3    H161640   1.184   2.897  15.328  0.4635  1.3299  2.2918
13383TIP3    H261641   1.209   2.757  15.381 -0.2032  1.1481  2.1240
13384TIP3   OH261642   1.896   3.502   4.140 -0.0765 -0.2364  0.0163
13384TIP3    H161643   1.884   3.415   4.100 -0.2573 -0.0447 -0.3512
13384TIP3    H261644   1.887   3.563   4.067  2.7126 -0.0485 -0.2065
13385TIP3   OH261645   5.743   4.331  11.732  0.0987 -0.0858 -0.0941
13385TIP3    H161646   5.768   4.299  11.819 -1.8202  0.2360  0.6178
13385TIP3    H261647   5.806   4.400  11.712  2.2770 -2.0316 -0.2060
13386TIP3   OH261648   1.117   2.329   0.848 -0.0578 -0.3107 -0.1512
13386TIP3    H161649   1.101   2.287   0.932 -1.1332 -0.2230 -0.3032
13386TIP3    H261650   1.047   2.298   0.791  1.1672 -1.0713 -1.2890
13387TIP3   OH261651   1.839   4.431  15.399 -0.0107 -0.2761 -0.0197
13387TIP3    H161652   1.835   4.335  15.396  0.4049 -0.2689 -1.0079
13387TIP3    H261653   1.782   4.459  15.327  0.9849  0.1950 -0.6268
13388TIP3   OH261654   0.665   6.779  15.009 -0.2489 -0.2427 -0.0816
13388TIP3    H161655   0.596   6.814  15.065  0.2529  2.6367 -1.1926
13388TIP3    H261656   0.620   6.754  14.929 -0.1368  0.8861 -0.5026
13389TIP3   OH261657   6.083   6.669   0.305  0.1857  0.4113 -0.0551
13389TIP3    H161658   6.066   6.723   0.382  1.7631  1.5578 -0.4942
13389TIP3    H261659   6.002   6.674   0.254 -0.2574  1.0277  0.6943
13390TIP3   OH261660   0.274   3.878   4.570  0.4890  0.3967 -0.4197
13390TIP3    H161661   0.281   3.898   4.476  0.5296  1.4393 -0.1994
13390TIP3    H261662   0.275   3.782   4.574 -0.3895  0.3256 -1.5611
13391TIP3   OH261663   5.912   0.825  15.697  0.2062  0.2350  0.2925
13391TIP3    H161664   5.858   0.766  15.748  1.5754 -0.7219  0.6678
13391TIP3    H261665   5.925   0.901  15.754  1.3093 -0.6122  1.2088
13392TIP3   OH261666   0.369   0.191  13.718 -0.7789 -0.3980 -0.2494
13392TIP3    H161667   0.348   0.230  13.803  2.6303 -1.2968  1.0835
13392TIP3    H261668   0.351   0.097  13.729 -3.0155 -0.1438 -1.4605
13393TIP3   OH261669   0.488   5.297   4.354 -0.5458  0.6658 -0.3073
13393TIP3    H161670   0.476   5.203   4.368 -1.7851  0.8929  0.2136
13393TIP3    H261671   0.581   5.311   4.367 -0.0831 -0.7300 -1.8341
13394TIP3   OH261672   6.195   2.455  16.868  0.2954  0.1206  0.2026
13394TIP3    H161673   6.212   2.376  16.920  2.0349  1.0851  1.1266
13394TIP3    H261674   6.271   2.463  16.810 -0.4493  0.4541 -0.7355
13395TIP3   OH261675   5.938   6.359   4.746 -0.2773 -0.0328 -0.5563
13395TIP3    H161676   5.937   6.264   4.736  0.0951  0.0899 -1.9642
13395TIP3    H261677   5.900   6.375   4.832 -0.6891 -1.4378 -0.4626
13396TIP3   OH261678   2.924   1.881  12.028 -0.2880  0.2619 -0.4291
13396TIP3    H161679   2.867   1.919  12.095  0.0964  1.4360 -0.7560
13396TIP3    H261680   2.868   1.819  11.981 -0.7297 -0.1083  0.5722
13397TIP3   OH261681   3.752   2.845   1.806 -0.0094  0.1585 -0.4105
13397TIP3    H161682   3.742   2.938   1.822 -0.1686  0.0580  0.0722
13397TIP3    H261683   3.668   2.806   1.830  0.4130 -0.2470  0.4562
13398TIP3   OH261684   6.339   1.755  13.964  0.4423  0.0756  0.4793
13398TIP3    H161685   6.379   1.825  14.016  0.2959  1.0404 -0.7110
13398TIP3    H261686   6.253   1.742  14.003  0.6120  0.2833  0.9322
13399TIP3   OH261687   1.642   3.500  12.368  0.4744 -0.5568 -0.4873
13399TIP3    H161688   1.643   3.577  12.424  0.6012 -1.0072  0.1406
13399TIP3    H261689   1.606   3.531  12.285 -1.5468 -0.3095  0.4546
13400TIP3   OH261690   6.720   0.274   5.635  0.4650 -0.0738  0.1700
13400TIP3    H161691   6.740   0.365   5.616  0.2041 -0.2879 -1.2285
13400TIP3    H261692   6.698   0.236   5.549  0.4815 -1.4184  0.7460
13401TIP3   OH261693   4.547   1.298   3.188 -0.1565  0.7045  0.2469
13401TIP3    H161694   4.577   1.224   3.136  0.2658  1.3545 -0.4450
13401TIP3    H261695   4.455   1.279   3.207 -0.2421  0.3477 -0.5322
13402TIP3   OH261696   5.729   6.656  13.314  0.0630 -0.0126  0.6893
13402TIP3    H161697   5.686   6.661  13.228  0.2352 -2.0001  0.4633
13402TIP3    H261698   5.734   6.747  13.343  0.5886  0.7710 -1.6973
13403TIP3   OH261699   6.585   6.492   1.922 -0.0183 -0.2369  0.5555
13403TIP3    H161700   6.543   6.423   1.870 -1.3238  0.9005  0.0751
13403TIP3    H261701   6.593   6.566   1.861  0.6504  0.2946  1.2890
13404TIP3   OH261702   6.423   1.085   2.948 -0.1478 -0.0069  0.5242
13404TIP3    H161703   6.347   1.106   2.895  0.2458 -0.1620 -0.1028
13404TIP3    H261704   6.432   1.160   3.007 -0.4819  0.2486  0.2525
13405TIP3   OH261705   6.443   1.691   4.289  0.5030 -0.6730  0.0540
13405TIP3    H161706   6.527   1.649   4.307  0.4180 -0.0464  2.0342
13405TIP3    H261707   6.386   1.661   4.360 -0.5883 -0.1050 -0.5747
13406TIP3   OH261708   4.705   3.421  14.243  0.4928 -0.1945 -0.5257
13406TIP3    H161709   4.683   3.506  14.282  1.4077 -0.2930  0.1988
13406TIP3    H261710   4.648   3.415  14.166 -0.6044  0.4427  0.2233
13407TIP3   OH261711   5.702   5.493  13.831  0.3325 -0.2817  0.0517
13407TIP3    H161712   5.660   5.578  13.828  0.9411  0.0417  0.5048
13407TIP3    H261713   5.759   5.497  13.908 -0.1063 -1.3156  0.4424
13408TIP3   OH261714   0.923   1.558   5.605 -0.1477 -0.2271  0.1932
13408TIP3    H161715   0.962   1.476   5.575 -1.2810 -0.5244 -0.4652
13408TIP3    H261716   0.837   1.561   5.564 -1.0922  0.1210  2.1448
13409TIP3   OH261717   6.535   4.175  14.617 -0.2448 -0.3281 -0.3660
13409TIP3    H161718   6.470   4.149  14.553 -0.8606 -1.6151  0.7544
13409TIP3    H261719   6.500   4.145  14.701  1.6272 -0.7805  0.2956
13410TIP3   OH261720   0.982   1.527  13.919 -0.5638  0.0324 -0.1487
13410TIP3    H161721   1.007   1.482  13.999 -1.3005 -0.0944  0.0148
13410TIP3    H261722   1.032   1.609  13.920 -0.3803 -0.0864  0.3053
13411TIP3   OH261723   5.102   2.526   6.149 -0.3639  0.0761 -0.2525
13411TIP3    H161724   5.086   2.509   6.241  0.5438 -1.4188 -0.3560
13411TIP3    H261725   5.018   2.506   6.106 -0.9681  1.3761  0.3150
13412TIP3   OH261726   6.464   6.222  12.430  0.4793 -0.0886 -0.1028
13412TIP3    H161727   6.515   6.210  12.349  1.9060 -0.3427  0.8033
13412TIP3    H261728   6.385   6.268  12.402  1.8167  1.5374 -1.3805
13413TIP3   OH261729   4.519   6.075  17.199  0.1657 -0.6623  0.4034
13413TIP3    H161730   4.471   6.031  17.129  1.8661 -1.5411 -0.2414
13413TIP3    H261731   4.588   6.125  17.154 -0.7066  1.3448  1.2404
13414TIP3   OH261732   0.046   5.797   2.479 -0.5273 -0.1147  0.1740
13414TIP3    H161733  -0.008   5.763   2.551 -0.1798 -0.2994  0.3478
13414TIP3    H261734  -0.015   5.849   2.426 -0.8760 -0.3227  0.3703
13415TIP3   OH261735   6.528   3.435  15.430 -0.2391  0.0204  0.8814
13415TIP3    H161736   6.500   3.508  15.374  0.2619  0.5403  1.3108
13415TIP3    H261737   6.618   3.457  15.455 -0.2021 -0.5832  1.2762
13416TIP3   OH261738   5.955   2.529   1.884 -0.4391 -0.6814 -0.4022
13416TIP3    H161739   5.974   2.485   1.967  1.0357  0.1353 -0.2867
13416TIP3    H261740   5.896   2.470   1.838 -1.1342 -1.2330  1.1539
13417TIP3   OH261741   5.507   6.249  16.641  0.0649 -0.4480  0.6472
13417TIP3    H161742   5.550   6.307  16.580 -4.8058  2.2340 -0.4941
13417TIP3    H261743   5.511   6.162  16.600 -0.9130  0.8566 -2.2720
13418TIP3   OH261744   0.834   6.527   3.752  0.0102  0.5500  0.1296
13418TIP3    H161745   0.908   6.515   3.693 -0.4197 -3.0730  0.2166
13418TIP3    H261746   0.757   6.527   3.695 -0.3403 -2.0554  0.5708
13419TIP3   OH261747   5.067   0.035  12.025  0.3701  0.1647  0.0498
13419TIP3    H161748   5.035   0.091  11.955 -0.0044  0.0889  0.1598
13419TIP3    H261749   4.999  -0.032  12.035  0.8702 -0.3832 -0.1712
13420TIP3   OH261750   5.608   0.700  11.030  0.6508  0.0917 -0.0114
13420TIP3    H161751   5.687   0.685  11.082 -0.2551  0.7471  1.6046
13420TIP3    H261752   5.640   0.712  10.941  2.4237  0.8084  0.6981
13421TIP3   OH261753   1.861   6.666  13.293  0.2015 -0.3988 -0.2848
13421TIP3    H161754   1.817   6.750  13.285 -0.3022 -0.7097 -0.8515
13421TIP3    H261755   1.882   6.658  13.386  0.9706  0.7076 -0.3579
13422TIP3   OH261756   2.192   6.251   1.325 -0.2895  0.5662  0.0310
13422TIP3    H161757   2.283   6.282   1.320  0.8698 -2.7201 -0.0595
13422TIP3    H261758   2.184   6.189   1.253 -1.6118 -1.5964  1.9859
13423TIP3   OH261759   4.365   2.945  12.566  0.2642  0.2761 -0.3874
13423TIP3    H161760   4.278   2.964  12.530 -0.2826  0.4213  0.9804
13423TIP3    H261761   4.369   2.995  12.647  0.8357 -1.3219  0.6018
13424TIP3   OH261762   5.614   0.386  11.317  0.0814 -0.2195  0.0171
13424TIP3    H161763   5.540   0.421  11.266  0.6714  1.4448  0.2977
13424TIP3    H261764   5.592   0.293  11.329 -1.9212  0.2309  0.0102
13425TIP3   OH261765   2.806   2.073   3.739 -0.5620  0.0424 -0.9820
13425TIP3    H161766   2.853   2.068   3.656  1.1004  0.0406 -0.0554
13425TIP3    H261767   2.844   2.150   3.783 -2.3731  0.8607 -0.7903
13426TIP3   OH261768   5.252   0.868  13.514 -0.6028  0.5538 -0.0076
13426TIP3    H161769   5.298   0.858  13.597 -0.2700  0.0344 -0.2563
13426TIP3    H261770   5.321   0.877  13.448 -0.8605  0.1593 -0.3354
13427TIP3   OH261771   5.343   0.940  17.015  0.4436 -0.3684 -0.4650
13427TIP3    H161772   5.275   0.872  17.012 -0.5007  0.6504 -2.9499
13427TIP3    H261773   5.360   0.951  17.108 -1.2199 -2.2099  0.1111
13428TIP3   OH261774   0.609   1.749  11.542 -0.7371 -0.4028 -0.2296
13428TIP3    H161775   0.622   1.700  11.624  2.9373  0.0885 -0.4257
13428TIP3    H261776   0.619   1.683  11.473 -1.6063 -0.3966 -0.3731
13429TIP3   OH261777   5.565   1.556  13.553  0.5253  0.1346  0.3919
13429TIP3    H161778   5.503   1.484  13.559 -0.3696  0.6352 -2.3200
13429TIP3    H261779   5.543   1.600  13.472  1.8632  2.7525  1.3947
13430TIP3   OH261780   1.598   3.645  15.145  0.2750 -0.3299  0.8871
13430TIP3    H161781   1.674   3.657  15.202 -0.4434  0.7232  1.6464
13430TIP3    H261782   1.569   3.555  15.163  1.3202 -0.7275  0.6089
13431TIP3   OH261783   2.068   1.754   5.831 -0.3227 -0.2054  0.4563
13431TIP3    H161784   2.072   1.787   5.920  0.4204 -1.0999  0.7598
13431TIP3    H261785   2.158   1.761   5.798 -1.0420  2.3979 -1.0638
13432TIP3   OH261786   6.751   4.765  12.006 -0.6461 -0.0846 -0.2669
13432TIP3    H161787   6.793   4.692  11.962  0.9713 -0.1276  1.2804
13432TIP3    H261788   6.683   4.725  12.060 -0.5989 -0.3225 -0.3838
13433TIP3   OH261789   5.497   4.988   5.269 -0.6547 -0.2318 -0.0331
13433TIP3    H161790   5.442   4.933   5.325 -0.2463 -0.2937  0.3038
13433TIP3    H261791   5.497   5.073   5.313  0.6450 -0.6058  0.6946
13434TIP3   OH261792   4.450   1.824   4.775  0.1509  0.4260 -0.0570
13434TIP3    H161793   4.457   1.826   4.680 -2.2709  0.7627 -0.2579
13434TIP3    H261794   4.527   1.873   4.806  0.9877  0.2454 -1.8171
13435TIP3   OH261795   5.908   1.801  13.338  0.0246  0.6890  0.4525
13435TIP3    H161796   5.861   1.872  13.382  0.0295  0.8691  0.1621
13435TIP3    H261797   5.839   1.746  13.300  0.0453  0.9014  0.1081
13436TIP3   OH261798   5.267   0.357   6.148  0.2545  0.0587  0.3177
13436TIP3    H161799   5.321   0.434   6.135  0.7159 -0.3059  0.0563
13436TIP3    H261800   5.315   0.304   6.212  0.8022 -0.8211 -0.7941
13437TIP3   OH261801   4.543   2.247  17.062  0.3515  0.0335  0.6807
13437TIP3    H161802   4.563   2.242  17.155 -0.0812  0.5808  0.8095
13437TIP3    H261803   4.577   2.333  17.035  0.6752 -0.2147  0.2872
13438TIP3   OH261804   5.044   0.411  11.647 -0.0411 -0.0709  0.1884
13438TIP3    H161805   5.107   0.353  11.604  0.0710 -0.6486  1.1214
13438TIP3    H261806   5.091   0.493  11.660  0.1899 -0.1692 -0.0374
13439TIP3   OH261807   3.219   2.960  14.524 -0.2364  0.7617 -0.3009
13439TIP3    H161808   3.159   2.913  14.467 -0.3099 -0.2546  0.5912
13439TIP3    H261809   3.246   2.895  14.589  2.6393  0.8965 -1.2765
13440TIP3   OH261810   2.578   1.721   2.055 -0.1532  0.3963 -0.0545
13440TIP3    H161811   2.586   1.649   2.118  0.1884  0.0068 -0.5415
13440TIP3    H261812   2.658   1.772   2.068 -0.8237  1.2048  0.9309
13441TIP3   OH261813   1.886   4.179   1.424  0.2920 -0.1999 -0.3757
13441TIP3    H161814   1.859   4.258   1.378  1.9208  0.4299 -0.3013
13441TIP3    H261815   1.958   4.208   1.481  0.5141 -1.6182  0.0837
13442TIP3   OH261816   4.151   2.551   4.229 -0.2655 -0.2624 -0.2586
13442TIP3    H161817   4.201   2.502   4.294 -0.6723  0.6899  0.7908
13442TIP3    H261818   4.202   2.542   4.148  1.8571  1.0059  0.8602
13443TIP3   OH261819   2.041   0.595   2.755 -0.1291 -0.7540 -0.5347
13443TIP3    H161820   1.978   0.525   2.773 -0.6668 -0.2293 -0.3802
13443TIP3    H261821   2.038   0.605   2.660 -0.9923 -0.0637 -0.4348
13444TIP3   OH261822   0.127   5.131  16.120 -0.1153 -0.3473  0.2909
13444TIP3    H161823   0.166   5.181  16.049  1.0800 -0.5174  0.8217
13444TIP3    H261824   0.050   5.183  16.146 -0.2737 -0.0345 -0.7786
13445TIP3   OH261825   1.570   4.072  13.018  0.6965  0.0369  0.3093
13445TIP3    H161826   1.507   4.068  13.090  0.9837  0.9778  0.6226
13445TIP3    H261827   1.522   4.038  12.943 -0.7520  2.2822  0.1516
13446TIP3   OH261828   0.947   5.475   5.293  0.1387  0.2414  0.5061
13446TIP3    H161829   0.960   5.493   5.200  0.6277 -0.9421  0.3391
13446TIP3    H261830   0.852   5.474   5.305  0.0735  1.4140  0.2377
13447TIP3   OH261831   3.020   4.305   0.705 -0.1383  0.2118 -0.5205
13447TIP3    H161832   3.065   4.237   0.654  0.2802  0.3444 -0.3361
13447TIP3    H261833   2.938   4.264   0.732 -0.3745  0.1597 -1.3273
13448TIP3   OH261834   6.202   6.620   2.213  0.2463 -0.1636 -0.2957
13448TIP3    H161835   6.275   6.663   2.257  0.0133 -0.8115  0.7508
13448TIP3    H261836   6.130   6.683   2.218  0.5867  0.2834 -0.9087
13449TIP3   OH261837   1.173   6.662   5.315  0.2915 -0.4149 -0.1420
13449TIP3    H161838   1.130   6.691   5.235 -0.1346  0.3106  0.3426
13449TIP3    H261839   1.136   6.717   5.384  3.8349  2.0352 -0.0454
13450TIP3   OH261840   3.517   1.771  15.097  0.4168  0.4886  0.2326
13450TIP3    H161841   3.430   1.810  15.095 -0.0039 -0.4473  0.1585
13450TIP3    H261842   3.550   1.790  15.185 -0.2287  0.0498  0.5733
13451TIP3   OH261843   2.886   0.559   6.224 -0.2150  0.2891 -0.1472
13451TIP3    H161844   2.903   0.583   6.133 -0.6425  0.5970 -0.1471
13451TIP3    H261845   2.821   0.623   6.254  0.8730  0.9669  0.7648
13452TIP3   OH261846   6.169   0.008   1.928 -0.7318  0.4187 -0.0604
13452TIP3    H161847   6.100  -0.011   1.991  0.8414  0.5561  1.7584
13452TIP3    H261848   6.244  -0.043   1.959  0.4803  1.5691 -1.0412
13453TIP3   OH261849   2.381   4.582   4.736  0.6970 -0.3399 -1.2155
13453TIP3    H161850   2.473   4.554   4.734  0.4264 -1.1968 -2.6375
13453TIP3    H261851   2.385   4.677   4.746  1.6615 -0.6611  2.2159
13454TIP3   OH261852   6.605   5.843   2.210  0.3316  0.3422  0.0476
13454TIP3    H161853   6.696   5.847   2.180  0.2677 -0.3620 -0.2358
13454TIP3    H261854   6.553   5.850   2.130  0.1329  0.4402  0.1847
13455TIP3   OH261855   4.516   0.179  14.690 -0.2241  0.2021 -0.0577
13455TIP3    H161856   4.535   0.221  14.606 -1.7826  1.0558 -0.0092
13455TIP3    H261857   4.530   0.248  14.754 -1.4600  0.2821  0.1458
13456TIP3   OH261858   4.773   4.865   5.037 -0.3396 -0.2112 -0.4441
13456TIP3    H161859   4.725   4.907   5.108  0.6962  0.4747 -0.1337
13456TIP3    H261860   4.732   4.898   4.957 -0.4151  0.3227 -0.1849
13457TIP3   OH261861   0.398   2.525   0.731 -0.4295  0.1913  0.2400
13457TIP3    H161862   0.485   2.563   0.745 -0.7565  1.0954 -0.1246
13457TIP3    H261863   0.338   2.598   0.748 -1.0055  0.2774 -2.0683
13458TIP3   OH261864   2.173   3.963  13.272 -0.1750 -0.2663 -0.2125
13458TIP3    H161865   2.084   3.944  13.301 -0.6951  0.3538 -1.3546
13458TIP3    H261866   2.187   3.905  13.197 -0.1426  0.6626 -0.9268
13459TIP3   OH261867   5.856   6.559   4.339  0.0461 -0.0639 -0.0880
13459TIP3    H161868   5.803   6.498   4.390  0.9637 -1.8266 -1.2050
13459TIP3    H261869   5.947   6.533   4.356  0.4276  0.6821 -0.9249
13460TIP3   OH261870   1.310   2.900  16.210 -0.4008 -0.2267 -0.1968
13460TIP3    H161871   1.249   2.851  16.266 -1.3045  2.3679  1.1971
13460TIP3    H261872   1.257   2.929  16.137 -0.5822  1.0862  0.4490
13461TIP3   OH261873   4.516   6.630  13.598  0.0314  0.3584 -0.5179
13461TIP3    H161874   4.545   6.582  13.521 -0.9919 -0.5874 -0.3127
13461TIP3    H261875   4.430   6.595  13.617  1.0708 -0.7991  2.2324
13462TIP3   OH261876   4.829   0.946   5.995  0.1165  0.0917 -0.2462
13462TIP3    H161877   4.876   0.953   5.912  0.8402  1.4371  0.2754
13462TIP3    H261878   4.898   0.937   6.060 -0.3173  2.4134  0.5597
13463TIP3   OH261879   0.147   5.288   1.157  0.0362 -0.2383  0.0767
13463TIP3    H161880   0.139   5.359   1.093 -0.2636 -0.1646  0.1950
13463TIP3    H261881   0.092   5.218   1.122  0.4037 -0.4483 -0.0858
13464TIP3   OH261882   2.787   2.563   0.016 -0.3809  0.5225 -0.4438
13464TIP3    H161883   2.708   2.617   0.029 -0.3160  0.7132 -0.8425
13464TIP3    H261884   2.834   2.571   0.099 -1.5443 -0.8645  0.3627
13465TIP3   OH261885   2.925   4.206  16.213 -0.5922 -0.0040 -0.1381
13465TIP3    H161886   3.002   4.263  16.206  0.9190 -1.9130  0.6703
13465TIP3    H261887   2.856   4.264  16.245  0.7107  1.5553 -0.0704
13466TIP3   OH261888   2.554   3.569   1.866 -0.2244 -0.0920  0.5345
13466TIP3    H161889   2.638   3.527   1.888 -0.4650 -1.1416 -0.5439
13466TIP3    H261890   2.558   3.653   1.912  1.6779  0.1377  0.0074
13467TIP3   OH261891   6.501   2.744   0.942 -0.1426  0.0534  0.8032
13467TIP3    H161892   6.432   2.764   0.879  0.6461  0.1946 -0.0332
13467TIP3    H261893   6.457   2.744   1.027 -1.1743  0.0929  0.2761
13468TIP3   OH261894   5.130   6.447   2.224  0.4432 -0.4394  0.4154
13468TIP3    H161895   5.221   6.436   2.254  0.7675  0.6383 -0.1440
13468TIP3    H261896   5.135   6.440   2.129 -0.0408 -0.2526  0.3762
13469TIP3   OH261897   5.217   6.606   2.761  0.5537  0.7257  0.6259
13469TIP3    H161898   5.195   6.606   2.854  2.9151 -1.2512  1.2402
13469TIP3    H261899   5.133   6.600   2.716 -0.5445  0.5740  2.6560
13470TIP3   OH261900   3.616   3.899   0.428 -0.2689 -0.4575  0.6235
13470TIP3    H161901   3.533   3.882   0.384  0.7840  0.1091 -1.6576
13470TIP3    H261902   3.621   3.995   0.432  1.6018 -0.3957 -1.9657
13471TIP3   OH261903   0.180   6.630  11.129 -0.4394  0.0336  0.1037
13471TIP3    H161904   0.245   6.700  11.125 -0.2547 -0.1070  0.5598
13471TIP3    H261905   0.230   6.553  11.154 -0.9785  0.2075  1.8057
13472TIP3   OH261906   4.101   0.402  11.235 -0.2151 -0.1470 -0.0372
13472TIP3    H161907   4.168   0.348  11.278  0.9185  0.9465 -0.3864
13472TIP3    H261908   4.112   0.385  11.142 -1.3056 -0.9632 -0.0191
13473TIP3   OH261909   4.028   5.847   3.159 -0.3240 -0.0090 -1.0228
13473TIP3    H161910   4.058   5.786   3.227 -3.1309  0.2773  0.5492
13473TIP3    H261911   4.084   5.923   3.170 -0.2546 -0.2531  0.5110
13474TIP3   OH261912   4.567   4.583   2.370 -0.1863 -0.1307 -0.5889
13474TIP3    H161913   4.496   4.531   2.405 -0.9284  1.8645  0.9868
13474TIP3    H261914   4.646   4.547   2.410 -0.8981  1.2415  2.1209
13475TIP3   OH261915   1.199   4.236  17.012  0.4810  1.2101  0.3544
13475TIP3    H161916   1.153   4.182  16.948  0.0199  1.7027  0.2667
13475TIP3    H261917   1.209   4.179  17.088  1.5619  0.4273 -0.3631
13476TIP3   OH261918   1.119   0.153   3.315 -0.1099  0.0672 -0.3148
13476TIP3    H161919   1.196   0.158   3.258 -1.0051 -0.0617 -1.5525
13476TIP3    H261920   1.100   0.244   3.338  0.9953  0.0325  0.8174
13477TIP3   OH261921   3.981   2.741  14.859  0.0911  0.2743 -0.7845
13477TIP3    H161922   4.029   2.756  14.941 -1.5764 -1.4603  0.5674
13477TIP3    H261923   3.929   2.662  14.876 -2.6015  1.6196 -2.4757
13478TIP3   OH261924   4.946   5.677  16.443  0.1899 -0.3502  0.4164
13478TIP3    H161925   4.958   5.751  16.384  0.3430  0.9303  2.0184
13478TIP3    H261926   5.007   5.611  16.411  0.6113  0.4993 -0.5687
13479TIP3   OH261927   0.869   1.746  14.135  0.2505 -0.5809 -0.2405
13479TIP3    H161928   0.811   1.797  14.192 -0.6028 -2.1506  0.3090
13479TIP3    H261929   0.817   1.730  14.057  0.4417 -0.8007 -0.3219
13480TIP3   OH261930   2.901   2.084  14.341 -0.1602 -0.1431  0.1637
13480TIP3    H161931   2.924   1.992  14.354 -2.0334 -0.5018  1.0317
13480TIP3    H261932   2.969   2.132  14.387  0.8012 -1.0967 -0.2375
13481TIP3   OH261933   3.643   4.862   1.371  0.4654 -0.0457  0.1155
13481TIP3    H161934   3.617   4.897   1.285 -1.6312 -0.5287  0.5163
13481TIP3    H261935   3.651   4.768   1.357 -3.9607 -0.7105  1.3198
13482TIP3   OH261936   4.570   0.905  11.257  0.3844  0.6675 -0.0051
13482TIP3    H161937   4.482   0.941  11.262  0.5357  0.8525  1.4112
13482TIP3    H261938   4.607   0.942  11.176 -0.7996  0.6286 -0.5726
13483TIP3   OH261939   4.180   0.387   3.086  0.0037  0.4634 -0.7922
13483TIP3    H161940   4.164   0.471   3.044 -0.2275  1.6370  1.5443
13483TIP3    H261941   4.264   0.358   3.052  1.3577  2.9444  0.3552
13484TIP3   OH261942   3.495   3.867  11.984  0.2993 -0.1378  0.1899
13484TIP3    H161943   3.403   3.842  11.980 -0.3955  2.2051  0.5972
13484TIP3    H261944   3.498   3.936  12.051  2.4651 -0.6629  0.6871
13485TIP3   OH261945   6.036   1.797  14.314 -0.3137 -0.0728 -0.0219
13485TIP3    H161946   6.101   1.866  14.323  0.4199 -0.8412  0.7691
13485TIP3    H261947   5.958   1.830  14.360 -0.6483  1.0480 -1.3886
13486TIP3   OH261948   1.612   1.343   1.581  0.7190 -0.2490  0.0374
13486TIP3    H161949   1.531   1.306   1.618  0.8203  0.2963  0.8238
13486TIP3    H261950   1.599   1.338   1.486 -0.3696  0.0944  0.1508
13487TIP3   OH261951   5.224   3.731  14.039 -0.3337  0.4550 -0.2630
13487TIP3    H161952   5.180   3.734  14.124 -0.9843  1.6679 -0.6392
13487TIP3    H261953   5.178   3.795  13.985  0.4138  0.0772 -1.3761
13488TIP3   OH261954   1.426   1.431  13.806  0.0457  0.1349 -0.0866
13488TIP3    H161955   1.516   1.459  13.788 -0.2968  1.1919 -0.1455
13488TIP3    H261956   1.427   1.406  13.899  0.4306  0.0085 -0.1241
13489TIP3   OH261957   2.671   2.107   4.441  0.1718  0.3268 -0.1602
13489TIP3    H161958   2.685   2.081   4.350  0.9072  1.6484 -0.4353
13489TIP3    H261959   2.669   2.203   4.439 -0.2538  0.3601  1.1549
13490TIP3   OH261960   4.400   0.851  12.084 -0.2703  0.2146  0.2096
13490TIP3    H161961   4.475   0.800  12.113 -0.7495  0.2405  1.5449
13490TIP3    H261962   4.377   0.815  11.999  1.6234  0.6013 -0.4922
13491TIP3   OH261963   3.868   3.047   3.143  0.0998  0.1511 -0.0865
13491TIP3    H161964   3.890   3.127   3.190 -2.0956  1.9956 -2.0138
13491TIP3    H261965   3.783   3.066   3.103 -0.0419 -2.8299 -1.3331
13492TIP3   OH261966   3.572   1.898   3.894 -0.5252  0.0657 -0.1607
13492TIP3    H161967   3.615   1.965   3.840  1.3722 -2.6427 -2.2026
13492TIP3    H261968   3.524   1.845   3.831 -1.4701 -0.8688  1.3327
13493TIP3   OH261969   6.654   4.063   6.473  0.1184 -0.1602 -0.2817
13493TIP3    H161970   6.690   3.997   6.414  1.3047  0.5710 -0.4113
13493TIP3    H261971   6.627   4.134   6.415 -0.4871 -0.2371 -0.0907
13494TIP3   OH261972   3.040   4.193   2.082 -0.5443  0.0610 -0.0858
13494TIP3    H161973   3.064   4.102   2.098 -0.9646  0.1287  0.9830
13494TIP3    H261974   3.082   4.241   2.152 -2.0996  0.4294  0.6135
13495TIP3   OH261975   0.882   5.844  16.568  0.0902 -0.4915  0.1663
13495TIP3    H161976   0.832   5.787  16.627  0.8940  0.0669  1.4279
13495TIP3    H261977   0.872   5.804  16.482 -2.6186 -0.3151  0.3572
13496TIP3   OH261978   5.289   6.605  11.126 -0.1376  0.0159 -0.7037
13496TIP3    H161979   5.225   6.631  11.060 -0.5595  1.6155  0.3139
13496TIP3    H261980   5.310   6.686  11.173  1.3567 -0.8034  0.0824
13497TIP3   OH261981   6.438   0.452  12.388  0.4787 -0.3802  0.1092
13497TIP3    H161982   6.343   0.464  12.387  0.5712  0.2408 -0.9758
13497TIP3    H261983   6.469   0.513  12.455  0.3975  1.6244 -1.6228
13498TIP3   OH261984   5.220   2.913   4.779 -0.1271 -0.6246 -0.0647
13498TIP3    H161985   5.162   2.980   4.744  0.4836 -1.2489 -2.3958
13498TIP3    H261986   5.180   2.830   4.752 -0.0287 -1.1486  1.3875
13499TIP3   OH261987   5.177   6.216  16.881  0.3575 -0.0308 -0.8080
13499TIP3    H161988   5.139   6.151  16.822 -0.8405 -0.6232  0.5888
13499TIP3    H261989   5.126   6.295  16.866 -0.3826 -0.3690 -0.1028
13500TIP3   OH261990   0.831   4.549  16.232  0.0944 -0.2707 -0.1648
13500TIP3    H161991   0.922   4.551  16.260 -0.1577 -2.3698  0.8575
13500TIP3    H261992   0.789   4.486  16.289 -1.9113  0.2930 -0.9564
13501TIP3   OH261993   4.664   3.243   1.241  0.3597 -0.0445 -0.0103
13501TIP3    H161994   4.700   3.198   1.164  1.1288 -1.0593  0.9270
13501TIP3    H261995   4.733   3.303   1.268  0.5730 -0.5578  0.6001
13502TIP3   OH261996   0.618   5.026  11.395  0.0798 -0.6351  0.0087
13502TIP3    H161997   0.667   5.027  11.313 -1.1656 -3.8678 -0.8273
13502TIP3    H261998   0.675   4.979  11.456 -0.3267 -0.9765  0.1260
13503TIP3   OH261999   5.700   2.674   4.342 -0.0387  0.3054  0.0330
13503TIP3    H162000   5.710   2.734   4.416  2.7778 -0.4388  0.3103
13503TIP3    H262001   5.646   2.603   4.376  3.3471 -1.3281  2.2739
13504TIP3   OH262002   6.231   4.623  16.412  0.0832 -0.0286  0.6119
13504TIP3    H162003   6.230   4.656  16.322 -0.8054 -0.4376  0.4596
13504TIP3    H262004   6.303   4.561  16.415  0.7774  0.7731  0.4710
13505TIP3   OH262005   4.090   4.481   4.869  0.0327 -0.7141  0.2568
13505TIP3    H162006   4.167   4.444   4.827 -0.3961 -1.3627  0.0324
13505TIP3    H262007   4.094   4.449   4.959 -1.2535 -2.7648 -0.3787
13506TIP3   OH262008   4.535   0.846   2.543 -0.2047 -0.2143  0.1029
13506TIP3    H162009   4.453   0.891   2.560 -0.3573  0.1303 -1.4770
13506TIP3    H262010   4.562   0.876   2.456  2.9828  1.7936  1.7120
13507TIP3   OH262011   1.813   3.970  14.317 -0.2093  0.0270  0.1047
13507TIP3    H162012   1.894   4.018  14.335  0.6695 -1.6441  0.6545
13507TIP3    H262013   1.778   3.948  14.404 -1.0191  0.3140 -0.1369
13508TIP3   OH262014   6.365   3.076   5.896  0.3536  0.5015  0.0111
13508TIP3    H162015   6.362   2.980   5.886  1.7432  0.4999 -0.5054
13508TIP3    H262016   6.316   3.093   5.976  1.4346 -0.8144  0.9911
13509TIP3   OH262017   0.970   1.817   0.110  0.1834  1.3047 -0.0970
13509TIP3    H162018   1.048   1.843   0.159 -0.0627  2.3455 -0.2460
13509TIP3    H262019   0.999   1.813   0.019  0.9113 -1.6995  0.2426
13510TIP3   OH262020   2.355   3.950  15.130 -0.5055  0.1721  0.5988
13510TIP3    H162021   2.441   3.981  15.159 -1.3803  2.2631  1.0504
13510TIP3    H262022   2.354   3.964  15.036 -0.0928 -0.5255  0.4882
13511TIP3   OH262023   3.359   0.101   4.285  0.4165 -0.0019 -0.0095
13511TIP3    H162024   3.323   0.086   4.373  1.1806 -1.6652  0.0601
13511TIP3    H262025   3.380   0.013   4.254 -1.1065  0.4572 -2.4249
13512TIP3   OH262026   6.289   4.423  10.302 -0.6083 -0.3221 -0.1630
13512TIP3    H162027   6.348   4.429  10.377 -0.4882 -1.8452 -0.1216
13512TIP3    H262028   6.346   4.402  10.228 -0.7553  0.9655 -0.6598
13513TIP3   OH262029   0.960   4.470   4.815 -0.3521 -0.2444  0.3679
13513TIP3    H162030   0.898   4.453   4.886  0.2254  0.3907  1.0378
13513TIP3    H262031   0.910   4.516   4.749 -0.2981  1.4396  1.4672
13514TIP3   OH262032   2.456   1.746  16.484  0.0496 -0.2357  0.3004
13514TIP3    H162033   2.385   1.710  16.432 -0.9771 -0.9214  2.1030
13514TIP3    H262034   2.481   1.674  16.543  0.3727  0.8696  1.5313
13515TIP3   OH262035   5.048   0.170  17.133  0.1774  0.4342 -1.1890
13515TIP3    H162036   5.082   0.243  17.184 -0.3132  0.2034 -0.5295
13515TIP3    H262037   5.053   0.095  17.192  1.6562 -0.2931 -2.1922
13516TIP3   OH262038   0.614   0.405   3.388 -0.1819 -0.1374 -0.4679
13516TIP3    H162039   0.564   0.331   3.354  1.2805 -0.9300 -0.9444
13516TIP3    H262040   0.547   0.470   3.411 -1.3782 -0.6141 -2.3873
13517TIP3   OH262041   3.220   1.527   4.605  0.2207 -0.7471  0.1864
13517TIP3    H162042   3.203   1.513   4.512  0.3779  0.9703 -0.1017
13517TIP3    H262043   3.219   1.438   4.643 -4.1149 -1.2184 -0.6877
13518TIP3   OH262044   4.338   1.397   0.309 -0.7024 -0.2054  0.5644
13518TIP3    H162045   4.304   1.359   0.390 -1.3928 -0.7081  0.0466
13518TIP3    H262046   4.399   1.331   0.276 -0.9348 -0.2986  0.3226
13519TIP3   OH262047   4.610   4.166  16.938  0.0429  0.0983  0.5593
13519TIP3    H162048   4.556   4.239  16.911  0.7647  1.1534  1.9397
13519TIP3    H262049   4.659   4.198  17.014  0.8751 -1.5763  0.7592
13520TIP3   OH262050   0.527   6.605  10.988 -0.0163 -0.2695 -0.3121
13520TIP3    H162051   0.518   6.589  11.082 -0.8173 -2.1380 -0.6882
13520TIP3    H262052   0.589   6.678  10.982 -1.7028  1.3809  1.7185
13521TIP3   OH262053   1.378   6.042   4.106 -0.4931  0.4099 -0.2959
13521TIP3    H162054   1.396   5.958   4.063 -0.7156  0.5977 -0.7611
13521TIP3    H262055   1.342   6.097   4.037  3.9608  2.4517 -1.1917
13522TIP3   OH262056   2.756   1.996  12.284  0.2567  0.5009  0.2936
13522TIP3    H162057   2.696   1.951  12.344 -0.0533 -2.0960 -1.8531
13522TIP3    H262058   2.843   1.975  12.318  0.0634 -0.3217  0.2989
13523TIP3   OH262059   0.116   4.633   5.781 -0.1557  0.2834 -0.3792
13523TIP3    H162060   0.027   4.609   5.753  0.0464  0.5073 -1.2270
13523TIP3    H262061   0.135   4.574   5.854 -0.1733 -1.2369 -1.5703
13524TIP3   OH262062   3.226   4.814  14.414 -0.6700 -0.0966  0.2729
13524TIP3    H162063   3.286   4.888  14.420  1.0899 -1.5431  1.1013
13524TIP3    H262064   3.272   4.742  14.458 -2.6587 -1.4759  0.1754
13525TIP3   OH262065   0.240   1.684   5.810 -0.2448 -0.5814 -0.3605
13525TIP3    H162066   0.263   1.765   5.854 -0.7387  1.1718 -3.2412
13525TIP3    H262067   0.323   1.637   5.801 -0.0849 -0.8046  2.0476
13526TIP3   OH262068   4.795   5.480  11.215  0.3578 -0.1898  0.1684
13526TIP3    H162069   4.778   5.471  11.121  1.7777 -2.7843  0.1051
13526TIP3    H262070   4.778   5.393  11.250 -0.4362  0.8320  2.3844
13527TIP3   OH262071   6.350   2.286  13.654 -0.9849  0.7668  0.2476
13527TIP3    H162072   6.433   2.241  13.643 -0.8048  1.1672 -0.0479
13527TIP3    H262073   6.284   2.223  13.625 -0.8084  0.3615  0.7104
13528TIP3   OH262074   1.349   5.772  15.628 -0.3863  0.0393 -0.3770
13528TIP3    H162075   1.259   5.745  15.645 -0.6641  1.4018  0.3671
13528TIP3    H262076   1.347   5.805  15.538 -0.4675 -0.6234 -0.6187
13529TIP3   OH262077   4.244   5.207  16.652 -0.1519 -0.4979  0.8492
13529TIP3    H162078   4.237   5.205  16.748 -1.7542 -0.8098  0.7395
13529TIP3    H262079   4.174   5.267  16.625  1.3077  0.8244 -0.0468
13530TIP3   OH262080   1.594   4.413  16.473 -0.4264  0.1638  0.7712
13530TIP3    H162081   1.653   4.377  16.407 -1.4157 -1.2642  0.6333
13530TIP3    H262082   1.626   4.379  16.556 -0.9990 -0.5664  0.7033
13531TIP3   OH262083   1.225   5.924   5.942 -0.8925  0.0664 -0.2816
13531TIP3    H162084   1.142   5.903   5.898 -0.3671 -0.1828 -1.1716
13531TIP3    H262085   1.219   5.882   6.027 -0.7972 -1.7356 -1.1591
13532TIP3   OH262086   4.757   1.280  12.877  0.3622  0.0655 -0.2046
13532TIP3    H162087   4.831   1.247  12.826 -0.0989 -1.6302  0.1778
13532TIP3    H262088   4.794   1.302  12.962  0.2661 -1.8274  0.3594
13533TIP3   OH262089   4.622   4.996   3.443  0.0137 -0.3411  0.3971
13533TIP3    H162090   4.692   4.931   3.453 -0.2511 -0.6580  0.1990
13533TIP3    H262091   4.633   5.030   3.354  0.0887 -0.1862  0.4648
13534TIP3   OH262092   6.499   4.371  10.506 -0.4187 -0.1377  0.4666
13534TIP3    H162093   6.542   4.348  10.589 -0.2338  1.1492  0.7376
13534TIP3    H262094   6.531   4.459  10.486  1.7796 -1.5510 -2.4845
13535TIP3   OH262095   2.622   6.139  16.257 -0.0453 -0.1475  0.0436
13535TIP3    H162096   2.667   6.177  16.182  1.3396  1.2840  1.5537
13535TIP3    H262097   2.561   6.207  16.285  0.2917 -0.1955  0.9210
13536TIP3   OH262098   5.372   3.102  14.217 -0.2353  0.2601 -0.3511
13536TIP3    H162099   5.450   3.158  14.222  0.5780 -0.8766 -0.2880
13536TIP3    H262100   5.312   3.151  14.161 -0.1248  1.9257  0.9427
13537TIP3   OH262101   4.264   2.126  14.744  0.6921  0.2157 -0.8372
13537TIP3    H162102   4.284   2.174  14.664  1.0882  0.3945 -0.6317
13537TIP3    H262103   4.333   2.152  14.806 -0.0028  0.5974 -0.2201
13538TIP3   OH262104   5.616   4.639  11.758  0.2061  0.2019  0.3558
13538TIP3    H162105   5.563   4.674  11.686  0.1743 -0.4660  0.0497
13538TIP3    H262106   5.682   4.585  11.714  0.4880  0.1846  0.8003
13539TIP3   OH262107   2.684   6.587  14.339  0.1503  0.6651  0.0242
13539TIP3    H162108   2.600   6.629  14.320 -0.1469  0.5853  1.1330
13539TIP3    H262109   2.731   6.650  14.394  0.0768 -0.0567  0.9267
13540TIP3   OH262110   1.476   2.156   0.519 -0.5585 -0.4374 -0.3079
13540TIP3    H162111   1.385   2.185   0.529  0.2980  2.6207 -0.9341
13540TIP3    H262112   1.504   2.193   0.435  2.0349  0.8034  1.0462
13541TIP3   OH262113   1.666   3.797  17.220 -0.1156  0.0570 -0.0443
13541TIP3    H162114   1.650   3.704  17.203 -0.8015  0.1517  0.0506
13541TIP3    H262115   1.748   3.816  17.175  0.9952 -1.0321  1.4334
13542TIP3   OH262116   6.363   0.360   6.071 -0.0036 -0.0203 -0.4064
13542TIP3    H162117   6.417   0.294   6.116 -0.7417 -0.8075 -0.6685
13542TIP3    H262118   6.425   0.409   6.018  1.1024  1.7371  2.4001
13543TIP3   OH262119   0.057   1.786  13.726 -0.1307  0.3990  0.6229
13543TIP3    H162120   0.009   1.704  13.738  0.3358  0.0717  0.2546
13543TIP3    H262121   0.009   1.849  13.780 -0.8328  0.0218  0.4549
13544TIP3   OH262122   1.350   5.653   3.681 -0.1527 -0.3272  0.3761
13544TIP3    H162123   1.298   5.603   3.619 -0.8836  0.6131  0.2181
13544TIP3    H262124   1.349   5.600   3.761  0.7350 -1.5054 -0.3645
13545TIP3   OH262125   1.242   5.711  17.287 -0.3208  0.6007  0.3135
13545TIP3    H162126   1.235   5.659  17.207  0.5973  0.7364  0.1376
13545TIP3    H262127   1.311   5.669  17.338  0.1079  1.3723  0.3787
13546TIP3   OH262128   4.584   1.711  12.047  0.1293  0.4126  0.5080
13546TIP3    H162129   4.585   1.733  11.954  2.4968 -0.4943  0.3028
13546TIP3    H262130   4.525   1.636  12.053  1.3250 -0.6222 -0.5316
13547TIP3   OH262131   0.732   5.692   2.099  0.1927  0.1544 -0.1626
13547TIP3    H162132   0.683   5.609   2.100  1.3581 -0.5567 -0.4851
13547TIP3    H262133   0.721   5.725   2.010  0.5388 -0.1613 -0.3256
13548TIP3   OH262134   0.471   1.362  14.688 -0.1244 -0.5296  0.0095
13548TIP3    H162135   0.417   1.324  14.757  0.6204 -0.2453  0.7628
13548TIP3    H262136   0.538   1.296  14.671 -0.3681 -0.6419 -0.5180
13549TIP3   OH262137   0.576   5.090   0.152  0.6396  0.1750 -0.1495
13549TIP3    H162138   0.554   5.182   0.166 -1.0054 -0.2417  0.0821
13549TIP3    H262139   0.600   5.085   0.060  0.4197  0.7589 -0.2410
13550TIP3   OH262140   2.116   5.256  12.233 -0.3006 -0.0379  0.1201
13550TIP3    H162141   2.136   5.270  12.325  0.4792  1.2104 -0.2305
13550TIP3    H262142   2.163   5.326  12.187 -0.0915 -1.0797 -1.2815
13551TIP3   OH262143   1.461   3.874   5.083  0.2030 -0.3252  0.7704
13551TIP3    H162144   1.405   3.917   5.149 -1.6220 -1.5303  0.0469
13551TIP3    H262145   1.428   3.907   4.999  2.6994  1.4185  0.4306
13552TIP3   OH262146   3.575   3.642   5.859 -0.3237  0.6239 -0.3528
13552TIP3    H162147   3.548   3.632   5.950 -2.3091  0.9558 -0.8747
13552TIP3    H262148   3.525   3.576   5.811  0.5888  0.5526 -1.2354
13553TIP3   OH262149   3.961   4.587   0.570 -0.5656 -0.3216 -0.1057
13553TIP3    H162150   4.035   4.629   0.614 -0.7444  1.2032 -1.2072
13553TIP3    H262151   3.972   4.609   0.478 -1.5923 -1.3188 -0.4766
13554TIP3   OH262152   4.708   2.624  13.010 -0.5158  0.5449 -0.1370
13554TIP3    H162153   4.741   2.539  12.979  1.1461  0.7702  0.9411
13554TIP3    H262154   4.700   2.677  12.931 -0.6493 -0.3043 -0.7029
13555TIP3   OH262155   2.279   3.783  10.985  0.0044 -0.1843 -0.2914
13555TIP3    H162156   2.360   3.827  11.006 -0.4331  0.0047  1.0159
13555TIP3    H262157   2.304   3.692  10.971  0.1725 -0.5364  2.0865
13556TIP3   OH262158   2.750   0.401   0.824  0.2827 -0.0515  0.0332
13556TIP3    H162159   2.686   0.423   0.756  1.3841  0.5365 -0.8584
13556TIP3    H262160   2.698   0.378   0.901 -0.9859  0.1620 -0.7463
13557TIP3   OH262161   0.682   2.658  13.475  0.1271 -0.0635 -0.5465
13557TIP3    H162162   0.690   2.648  13.380 -0.5389  2.0772 -0.8571
13557TIP3    H262163   0.604   2.608  13.498  0.0573 -0.2580 -1.1864
13558TIP3   OH262164   0.826   4.419   1.347  0.9235  0.1340  0.1550
13558TIP3    H162165   0.890   4.372   1.401 -0.4321 -0.7737  1.0005
13558TIP3    H262166   0.869   4.429   1.262  2.1469 -0.5530  0.6803
13559TIP3   OH262167   2.034   2.258   0.430  0.5338  0.2241 -0.3020
13559TIP3    H162168   2.054   2.300   0.514  2.5643 -2.7758  0.8009
13559TIP3    H262169   1.973   2.188   0.452  3.0859 -2.2630 -0.8261
13560TIP3   OH262170   5.108   4.684  14.628  0.1822 -0.6270 -0.0325
13560TIP3    H162171   5.031   4.694  14.684  1.4291 -1.4800  1.8814
13560TIP3    H262172   5.076   4.702  14.540 -2.2205 -1.0150  0.7288
13561TIP3   OH262173   4.183   5.739   1.113 -0.4060 -0.6036 -0.1148
13561TIP3    H162174   4.208   5.795   1.186  0.3129  1.3634 -1.8277
13561TIP3    H262175   4.087   5.743   1.112 -0.4196 -0.6442  0.7122
13562TIP3   OH262176   2.482   0.577   3.607 -0.2042 -0.6634  0.1005
13562TIP3    H162177   2.541   0.584   3.682  0.7327 -1.9188 -0.5003
13562TIP3    H262178   2.413   0.518   3.637  0.3379 -1.4164 -0.1274
13563TIP3   OH262179   0.150   0.364   6.162  0.0677 -0.3396 -0.2109
13563TIP3    H162180   0.161   0.280   6.118  1.1357 -1.0199  1.3155
13563TIP3    H262181   0.107   0.342   6.245  2.1683  0.3575  1.0956
13564TIP3   OH262182   5.973   1.888  13.017  0.6119 -0.8271  0.1342
13564TIP3    H162183   5.921   1.836  13.078  0.2950  0.7875  1.2738
13564TIP3    H262184   6.063   1.880  13.048  0.2681  1.1725  1.7147
13565TIP3   OH262185   4.671   4.136  11.907  0.4941 -0.2774 -0.3680
13565TIP3    H162186   4.677   4.075  11.980 -0.7615  0.5608  0.4628
13565TIP3    H262187   4.745   4.196  11.920 -0.3182  0.4981  0.8352
13566TIP3   OH262188   5.529   3.105   3.177  0.4534 -0.0402 -0.4527
13566TIP3    H162189   5.528   3.042   3.105 -1.2205  1.2420 -1.5795
13566TIP3    H262190   5.459   3.076   3.235 -0.6723  1.0755 -1.2419
13567TIP3   OH262191   1.713   0.601   5.348  0.1981 -0.3587  0.6028
13567TIP3    H162192   1.674   0.604   5.435 -0.2117  0.7224  0.3966
13567TIP3    H262193   1.638   0.604   5.288  0.5520  1.4483  0.2046
13568TIP3   OH262194   2.452   5.972   4.220  0.2941  0.3516 -0.0291
13568TIP3    H162195   2.409   6.051   4.189  0.6900 -0.2219 -2.0971
13568TIP3    H262196   2.423   5.903   4.161  1.7334 -0.6121  0.3397
13569TIP3   OH262197   2.978   5.184  14.927  0.2767 -0.1424 -0.0016
13569TIP3    H162198   2.887   5.176  14.899  0.5978 -0.7833 -0.8657
13569TIP3    H262199   3.008   5.266  14.888 -0.5385  1.1680  2.0206
13570TIP3   OH262200   6.268   3.488  13.531  0.3223  0.0937  0.6309
13570TIP3    H162201   6.210   3.513  13.460  0.5810 -0.5309  0.1921
13570TIP3    H262202   6.209   3.457  13.600  0.1449 -1.0515 -0.0138
13571TIP3   OH262203   2.781   2.835  13.751 -0.0575 -0.2074  0.0064
13571TIP3    H162204   2.820   2.812  13.666  1.5643 -0.7341  0.8869
13571TIP3    H262205   2.721   2.762  13.770 -0.0608 -0.3297 -0.4560
13572TIP3   OH262206   1.774   4.354   5.514 -0.0023  0.4086 -0.4453
13572TIP3    H162207   1.818   4.421   5.566  0.8304 -0.3719 -0.1339
13572TIP3    H262208   1.771   4.277   5.571 -0.2429 -0.0594 -1.0804
13573TIP3   OH262209   3.793   0.613  14.270  0.6473  0.6931 -0.5454
13573TIP3    H162210   3.788   0.573  14.357 -0.4078  1.1049 -0.4107
13573TIP3    H262211   3.864   0.677  14.277  0.5212  0.7716  0.0302
13574TIP3   OH262212   0.695   2.124   4.923  0.5421 -0.1686 -0.2715
13574TIP3    H162213   0.689   2.201   4.980 -0.5957 -1.3595  1.2650
13574TIP3    H262214   0.719   2.053   4.982 -1.5736 -1.6081 -1.1203
13575TIP3   OH262215   2.545   6.237   0.833  0.6431  0.2830 -0.4050
13575TIP3    H162216   2.606   6.212   0.764 -0.2673 -1.5882 -0.5553
13575TIP3    H262217   2.480   6.291   0.789  0.2995 -0.5584 -0.9399
13576TIP3   OH262218   0.755   2.717  12.910  0.1407  0.2377 -0.6666
13576TIP3    H162219   0.732   2.799  12.867  3.8849  1.5122 -0.3674
13576TIP3    H262220   0.751   2.651  12.840  1.5610  1.4716 -1.9241
13577TIP3   OH262221   1.773   4.907   3.803  0.3883  0.2262  0.2251
13577TIP3    H162222   1.754   4.898   3.896 -4.4005 -1.1349 -0.7536
13577TIP3    H262223   1.818   4.991   3.795  0.5928  0.4985  3.6622
13578TIP3   OH262224   5.473   1.190  11.398 -0.3127 -0.4490 -0.2558
13578TIP3    H162225   5.487   1.246  11.474 -0.3853 -1.3930  0.4565
13578TIP3    H262226   5.496   1.102  11.428 -0.4121 -0.8394 -1.3009
13579TIP3   OH262227   3.087   0.511  14.261  0.5445 -0.9780  0.0689
13579TIP3    H162228   3.082   0.540  14.352  2.7392  1.0232 -0.4096
13579TIP3    H262229   3.178   0.485  14.249  1.0337  1.6342 -2.3493
13580TIP3   OH262230   5.891   6.193  16.990  0.5423 -0.6213  0.0110
13580TIP3    H162231   5.867   6.108  16.953  0.5105  0.1316 -1.7900
13580TIP3    H262232   5.869   6.256  16.921 -1.0841  1.0460  1.9843
13581TIP3   OH262233   4.119   1.153   1.888  0.2244 -0.2972 -0.3300
13581TIP3    H162234   4.110   1.248   1.882  1.6787 -0.0795  0.7073
13581TIP3    H262235   4.155   1.128   1.802  0.2354  0.1383 -0.4571
13582TIP3   OH262236   5.908   0.039  16.321  0.1118 -0.4038 -0.4926
13582TIP3    H162237   5.895   0.133  16.334  0.3885 -0.1110 -2.2436
13582TIP3    H262238   5.861  -0.002  16.394 -0.1543  1.0783  0.1925
13583TIP3   OH262239   0.480   4.439  13.820  0.1381  0.0742 -0.8010
13583TIP3    H162240   0.397   4.419  13.777  1.0021 -2.1815 -1.4972
13583TIP3    H262241   0.494   4.367  13.881  0.8866  1.2038  0.4146
13584TIP3   OH262242   0.138   6.073   4.850  0.0956 -0.0675  0.2907
13584TIP3    H162243   0.081   6.130   4.902 -0.4679 -1.2415  1.0028
13584TIP3    H262244   0.078   6.029   4.789  0.6817  0.9261 -1.0347
13585TIP3   OH262245   1.037   2.955   4.843 -0.7080  0.0296  0.2075
13585TIP3    H162246   1.036   3.042   4.803 -2.0924  0.4283  1.1049
13585TIP3    H262247   1.130   2.938   4.859 -0.4546  1.5155  0.4198
13586TIP3   OH262248   3.158   1.304   4.396 -0.7595  0.0555  0.3142
13586TIP3    H162249   3.101   1.243   4.442 -1.6005  0.0388 -0.7142
13586TIP3    H262250   3.102   1.341   4.327  0.1821  0.8167 -0.0531
13587TIP3   OH262251   5.223   0.166   0.164  0.2048 -0.3547 -0.1207
13587TIP3    H162252   5.190   0.231   0.227 -0.5388 -0.2853 -0.5792
13587TIP3    H262253   5.282   0.111   0.215  0.4343  0.3658  0.3932
13588TIP3   OH262254   1.085   5.719   3.878 -0.1845  0.8638  0.1856
13588TIP3    H162255   1.104   5.773   3.955 -1.6081 -0.0703  1.2275
13588TIP3    H262256   1.060   5.634   3.915 -1.7848  0.6736 -1.2577
13589TIP3   OH262257   6.579   3.626  11.354 -0.1745  0.0780 -0.2682
13589TIP3    H162258   6.586   3.539  11.314 -1.9443  0.1739 -0.8085
13589TIP3    H262259   6.507   3.617  11.417 -0.9062  1.3841 -0.9171
13590TIP3   OH262260   1.419   3.954  16.868 -0.7715  0.2805  0.5690
13590TIP3    H162261   1.429   3.971  16.961  2.5021 -0.7556  0.4920
13590TIP3    H262262   1.438   4.038  16.826  2.6604 -0.3497  0.7032
13591TIP3   OH262263   2.468   6.777  13.120  0.0084  0.5470  0.6729
13591TIP3    H162264   2.536   6.835  13.156 -1.4098  1.3926  2.0675
13591TIP3    H262265   2.423   6.831  13.055 -0.7009  0.7259  1.2978
13592TIP3   OH262266   4.010   5.737  11.078 -0.1726  0.2268 -0.2457
13592TIP3    H162267   4.100   5.748  11.109 -0.7046 -0.9126  1.8906
13592TIP3    H262268   3.976   5.825  11.071  0.7919  0.6253 -0.0217
13593TIP3   OH262269   4.389   2.692  16.522  0.7364 -0.2801  0.1184
13593TIP3    H162270   4.451   2.621  16.542 -0.2803 -1.5529 -1.1221
13593TIP3    H262271   4.339   2.703  16.602  2.2635  0.4763  1.0018
13594TIP3   OH262272   3.314   2.746   1.662 -0.1924 -0.0962  0.9346
13594TIP3    H162273   3.275   2.828   1.692  1.6996  0.8305  0.9325
13594TIP3    H262274   3.360   2.769   1.581  2.5123 -0.5560  2.2775
13595TIP3   OH262275   2.068   6.780  14.743  0.7130 -0.6921  0.3866
13595TIP3    H162276   2.035   6.699  14.781  2.7653 -3.2664 -3.0317
13595TIP3    H262277   2.161   6.782  14.766  0.2612  1.7902  2.1829
13596TIP3   OH262278   5.230   4.115   2.444 -0.3235  0.0591 -0.0244
13596TIP3    H162279   5.294   4.047   2.423 -0.4514 -0.1656  0.3191
13596TIP3    H262280   5.158   4.101   2.382 -0.0527  0.2994 -0.3965
13597TIP3   OH262281   6.328   6.112   0.130  0.2797  0.1699 -0.1939
13597TIP3    H162282   6.348   6.155   0.047  0.9135  2.5700  1.1494
13597TIP3    H262283   6.237   6.085   0.122  0.3297  0.4200 -1.6637
13598TIP3   OH262284   2.970   2.365   1.310 -0.2652 -0.5189  0.8388
13598TIP3    H162285   3.020   2.284   1.317  0.3435 -0.4627 -2.0627
13598TIP3    H262286   2.903   2.346   1.244  0.5467  1.6062 -0.6650
13599TIP3   OH262287   5.534   6.556  14.396  0.2531 -0.1846  0.0737
13599TIP3    H162288   5.535   6.496  14.470 -1.0800  0.7543  0.8827
13599TIP3    H262289   5.441   6.561  14.371  0.7653 -1.1381 -2.2087
13600TIP3   OH262290   5.376   3.951  14.389  0.0248  0.1075  0.1317
13600TIP3    H162291   5.366   4.026  14.330  0.3009  0.6858  0.7978
13600TIP3    H262292   5.370   3.990  14.477 -1.3079 -0.8677  0.4779
13601TIP3   OH262293   5.606   2.784   2.658 -0.2874 -0.4391  0.2764
13601TIP3    H162294   5.684   2.831   2.629 -1.2003  0.7138 -0.3620
13601TIP3    H262295   5.558   2.847   2.711 -0.4785 -1.3482  1.2053
13602TIP3   OH262296   4.020   6.309  16.694  0.0365 -0.2078 -0.4636
13602TIP3    H162297   3.971   6.334  16.616 -1.0447 -1.1998 -0.1152
13602TIP3    H262298   4.095   6.258  16.661 -0.1430 -0.2003 -0.8815
13603TIP3   OH262299   5.988   5.800   2.529  0.7977 -0.7137  0.0342
13603TIP3    H162300   5.915   5.757   2.573  0.3430  1.0144  1.0267
13603TIP3    H262301   6.048   5.729   2.507 -0.3549 -1.9487  0.7868
13604TIP3   OH262302   3.534   5.333   4.199  0.5424  0.5732 -0.1626
13604TIP3    H162303   3.530   5.254   4.145 -0.3380  0.5338 -0.0468
13604TIP3    H262304   3.545   5.404   4.136  0.7532  0.4078 -0.3103
13605TIP3   OH262305   6.509   5.258   1.632  0.3812  0.1405 -0.0496
13605TIP3    H162306   6.483   5.350   1.630  2.2363  0.6853 -0.8536
13605TIP3    H262307   6.493   5.230   1.722 -1.2214  0.9248 -0.0680
13606TIP3   OH262308   2.075   4.013   2.177 -0.6627 -0.0891  0.2269
13606TIP3    H162309   2.076   4.058   2.092  0.7871 -1.9104 -0.7545
13606TIP3    H262310   1.985   4.022   2.208 -1.7863 -1.3140 -2.5342
13607TIP3   OH262311   5.955   6.769   2.108 -0.8262 -0.0196 -0.4154
13607TIP3    H162312   5.922   6.752   2.197 -0.5559 -0.0651 -0.3241
13607TIP3    H262313   5.877   6.794   2.058 -1.0306 -0.3124 -0.2435
13608TIP3   OH262314   0.306   0.997  15.610 -0.3087 -0.4951 -0.3040
13608TIP3    H162315   0.261   0.916  15.632 -0.4970 -0.2440  0.2531
13608TIP3    H262316   0.384   0.997  15.665 -0.1705 -0.4253 -0.4980
13609TIP3   OH262317   2.979   0.774   5.000 -0.2282  0.3838  0.0233
13609TIP3    H162318   2.992   0.845   4.937 -2.0997  0.9491  0.2297
13609TIP3    H262319   2.917   0.715   4.957  0.7451 -0.7348  0.1577
13610TIP3   OH262320   4.063   5.748   1.612 -0.4212  0.5307 -0.3648
13610TIP3    H162321   4.082   5.657   1.636  0.2488  0.4456 -1.2221
13610TIP3    H262322   3.978   5.743   1.568 -0.5024  0.3598 -0.1936
13611TIP3   OH262323   6.669   3.480  14.355 -0.1824  0.1864 -0.6225
13611TIP3    H162324   6.645   3.396  14.395  1.3254 -0.9881 -2.1267
13611TIP3    H262325   6.724   3.522  14.421  1.1247 -1.1253 -0.8437
13612TIP3   OH262326   4.385   6.660  10.808 -0.7495  0.1028 -0.6475
13612TIP3    H162327   4.397   6.751  10.783  0.1060  0.0270 -0.5485
13612TIP3    H262328   4.393   6.660  10.904 -0.5031 -0.1010 -0.6655
13613TIP3   OH262329   3.708   4.063  12.917 -0.5817 -0.8770 -0.2572
13613TIP3    H162330   3.686   4.027  13.002 -2.6884 -0.4678 -0.6122
13613TIP3    H262331   3.745   3.990  12.868  1.1956 -0.9734  1.1833
13614TIP3   OH262332   5.129   4.671   1.377 -0.3204 -0.1292  0.1839
13614TIP3    H162333   5.219   4.701   1.364 -0.2837 -0.3741 -0.1250
13614TIP3    H262334   5.075   4.738   1.334 -0.2407 -0.4749 -0.4587
13615TIP3   OH262335   6.046   4.400   0.752  0.1155  0.3063  0.4187
13615TIP3    H162336   6.093   4.483   0.742 -0.0836  0.2447 -1.1747
13615TIP3    H262337   5.972   4.407   0.691  0.1425 -1.0708  0.2174
13616TIP3   OH262338   0.888   1.231  16.419 -0.0940  0.0163  0.4312
13616TIP3    H162339   0.966   1.208  16.369 -0.9596 -1.2319 -0.3579
13616TIP3    H262340   0.861   1.150  16.461  0.2225  0.9070  2.3807
13617TIP3   OH262341   3.336   6.098  11.368 -0.3258  0.0066  0.1459
13617TIP3    H162342   3.351   6.054  11.452 -1.0934  0.3494  0.4689
13617TIP3    H262343   3.243   6.123  11.371 -0.5253 -0.5673 -1.0750
13618TIP3   OH262344   5.239   1.183   4.835 -0.3150 -0.3611 -0.3367
13618TIP3    H162345   5.206   1.233   4.760 -0.3905  0.7814  0.4648
13618TIP3    H262346   5.252   1.095   4.800 -0.6601  0.0866 -1.6196
13619TIP3   OH262347   1.084   5.121   5.731 -0.2677  0.0742 -0.0997
13619TIP3    H162348   1.156   5.169   5.772  0.0069 -0.9213  0.6017
13619TIP3    H262349   1.058   5.057   5.796  2.0215 -3.4585 -2.4490
13620TIP3   OH262350   1.496   2.342   2.576  0.0028  0.3092 -0.1135
13620TIP3    H162351   1.476   2.412   2.638  1.0259  0.3862  0.1263
13620TIP3    H262352   1.412   2.298   2.562 -0.6168  1.4701 -0.1303
13621TIP3   OH262353   4.303   6.259  14.209  0.7860 -0.3230 -0.0053
13621TIP3    H162354   4.293   6.168  14.182  1.7762 -0.5934  0.5107
13621TIP3    H262355   4.274   6.261  14.300  0.2799 -0.0151 -0.1707
13622TIP3   OH262356   1.928   5.602  13.020 -0.0466  0.5453  0.1693
13622TIP3    H162357   1.904   5.511  13.036  1.3896  0.0988 -0.1290
13622TIP3    H262358   1.847   5.644  12.993 -1.0558 -0.2666  1.8642
13623TIP3   OH262359   3.067   4.886   4.581 -0.2838 -0.4055 -0.3258
13623TIP3    H162360   3.074   4.845   4.495 -3.9012 -0.5381 -0.6270
13623TIP3    H262361   3.110   4.826   4.641  1.4455 -0.7612 -1.8974
13624TIP3   OH262362   1.470   0.805   0.862 -0.1057 -0.3467 -0.2036
13624TIP3    H162363   1.518   0.880   0.827 -0.2522 -0.5828 -0.9208
13624TIP3    H262364   1.378   0.830   0.853 -0.1622 -0.7502 -0.7619
13625TIP3   OH262365   3.457   3.809  14.073 -0.0350  0.5544 -0.5990
13625TIP3    H162366   3.474   3.856  13.991 -0.2338 -0.9927 -1.5397
13625TIP3    H262367   3.540   3.812  14.120 -0.3409  2.7986 -0.1365
13626TIP3   OH262368   5.292   5.157   1.133 -0.0145  0.3130  0.4815
13626TIP3    H162369   5.353   5.123   1.198 -0.7306 -3.6382 -0.7477
13626TIP3    H262370   5.339   5.148   1.050 -0.4741  1.8672  0.0363
13627TIP3   OH262371   3.687   2.884   0.360  0.2137 -0.0262  0.0833
13627TIP3    H162372   3.710   2.868   0.268 -2.1889 -0.1338 -0.5166
13627TIP3    H262373   3.694   2.798   0.401  0.3166 -0.1610 -0.2087
13628TIP3   OH262374   4.385   1.498   2.931  0.0868 -0.0592  0.2909
13628TIP3    H162375   4.449   1.437   2.894 -2.7190 -0.2093 -4.6982
13628TIP3    H262376   4.311   1.442   2.955  0.3108  0.5667  2.5080
13629TIP3   OH262377   3.058   3.547   5.125 -0.1539 -0.6173 -0.0679
13629TIP3    H162378   3.066   3.640   5.102  0.8924 -0.4730  0.8181
13629TIP3    H262379   2.981   3.516   5.077  0.7263  0.2011 -2.0446
13630TIP3   OH262380   4.851   1.456   5.802 -0.0267  0.1037  0.0848
13630TIP3    H162381   4.756   1.448   5.808 -0.0604 -0.9963 -1.8377
13630TIP3    H262382   4.882   1.369   5.777  1.4819  0.5154  0.4251
13631TIP3   OH262383   5.585   0.933   1.823 -0.1539  0.0789 -0.1488
13631TIP3    H162384   5.495   0.965   1.810 -1.2378 -2.1717  1.4617
13631TIP3    H262385   5.601   0.944   1.916  1.9855  2.2402 -0.7514
13632TIP3   OH262386   6.028   4.214  15.560 -0.5028 -0.2694  0.2357
13632TIP3    H162387   5.944   4.211  15.514  1.0417 -0.0909 -2.6871
13632TIP3    H262388   6.079   4.279  15.512  1.9567 -1.7302  0.8031
13633TIP3   OH262389   0.460   1.148   3.502  0.0293  0.1001  0.2933
13633TIP3    H162390   0.408   1.068   3.511  1.3370 -0.6754  1.0631
13633TIP3    H262391   0.507   1.156   3.585  1.9945  0.1770 -0.7930
13634TIP3   OH262392   2.569   6.810   1.698 -0.1624  0.0885  0.2122
13634TIP3    H162393   2.520   6.812   1.616 -0.8124 -2.1290  0.5126
13634TIP3    H262394   2.502   6.795   1.765  0.6783 -0.8003  0.8535
13635TIP3   OH262395   1.304   1.055   2.922  0.0289 -0.3782  0.3567
13635TIP3    H162396   1.234   1.020   2.977  0.8297 -1.7089  0.5628
13635TIP3    H262397   1.311   0.993   2.850  0.2105  0.3812 -0.2883
13636TIP3   OH262398   4.449   2.658  11.556  0.1292  0.8644  0.1979
13636TIP3    H162399   4.474   2.667  11.648 -0.5198 -0.8451  0.5500
13636TIP3    H262400   4.423   2.567  11.547 -2.5343  1.6990 -0.9994
13637TIP3   OH262401   5.547   1.040   0.237  0.2217 -0.0955 -0.1594
13637TIP3    H162402   5.517   0.952   0.212 -1.3764  0.0516  1.1212
13637TIP3    H262403   5.637   1.028   0.266  0.5514 -1.0335 -1.5476
13638TIP3   OH262404   6.350   0.146  12.315 -0.2220 -0.2715  0.2243
13638TIP3    H162405   6.303   0.206  12.257  0.5865  0.8097  0.6740
13638TIP3    H262406   6.326   0.175  12.403  0.4712 -0.3539  0.4444
13639TIP3   OH262407   3.973   3.299  15.285  0.6616 -0.7026  0.3936
13639TIP3    H162408   4.057   3.288  15.240  1.4674 -0.5235  1.8417
13639TIP3    H262409   3.996   3.324  15.374 -0.9224  3.9707 -0.3256
13640TIP3   OH262410   4.706   2.602   1.918 -0.4016  0.4517 -0.1427
13640TIP3    H162411   4.801   2.590   1.924 -0.4142  0.4660  0.0959
13640TIP3    H262412   4.679   2.543   1.848 -0.2145  0.4615 -0.2241
13641TIP3   OH262413   4.243   6.812   0.908 -0.2507 -0.0500 -0.2480
13641TIP3    H162414   4.308   6.867   0.865 -0.5775  0.5950  0.0761
13641TIP3    H262415   4.236   6.847   0.996 -0.1842 -0.8575  0.0858
13642TIP3   OH262416   3.640   2.324  14.845 -0.3852  0.7041  0.2316
13642TIP3    H162417   3.642   2.372  14.762 -1.7267  0.5754  0.1244
13642TIP3    H262418   3.693   2.378  14.904  0.7149  0.7138 -0.7442
13643TIP3   OH262419   1.475   5.069  11.877  0.1754 -0.2697 -0.2967
13643TIP3    H162420   1.435   4.991  11.915 -1.4529  0.4591 -0.4724
13643TIP3    H262421   1.410   5.138  11.891 -0.0176  0.2341 -3.4715
13644TIP3   OH262422   5.921   5.493   4.880  0.3689 -0.4671 -0.5344
13644TIP3    H162423   5.889   5.583   4.886 -1.6474 -1.1662 -0.5431
13644TIP3    H262424   5.844   5.441   4.859  1.4499 -2.2523 -0.2036
13645TIP3   OH262425   0.262   5.328  15.226  0.0194 -0.1410  0.6490
13645TIP3    H162426   0.281   5.400  15.285  0.9367  0.4817 -0.3855
13645TIP3    H262427   0.217   5.368  15.152 -1.3304 -0.9483  1.0081
13646TIP3   OH262428   6.696   6.008  11.917 -0.1287  0.1930 -0.0391
13646TIP3    H162429   6.731   5.939  11.862 -2.7663 -2.6046  1.6620
13646TIP3    H262430   6.635   5.964  11.977 -1.2966  3.8423  1.6520
13647TIP3   OH262431   3.527   0.254   5.375  0.3040 -0.3197 -0.0503
13647TIP3    H162432   3.521   0.196   5.451  0.8735 -0.8670 -0.4121
13647TIP3    H262433   3.513   0.196   5.300  0.4611  0.0861 -0.3927
13648TIP3   OH262434   6.099   2.320  10.999  0.1990 -0.2985 -0.2401
13648TIP3    H162435   6.064   2.301  10.912  0.8211  1.2416 -0.8472
13648TIP3    H262436   6.138   2.407  10.990  0.1969 -0.0974  1.6029
13649TIP3   OH262437   3.501   3.811  13.539  0.6217  0.1844  0.0414
13649TIP3    H162438   3.434   3.875  13.517  0.9368  1.2122  1.9756
13649TIP3    H262439   3.452   3.731  13.560 -0.0877  1.2804  2.6375
13650TIP3   OH262440   1.508   5.418   3.498 -0.0266 -0.3065  0.2107
13650TIP3    H162441   1.524   5.392   3.407  0.4141 -0.5886  0.3663
13650TIP3    H262442   1.434   5.364   3.526 -0.4623  0.1081 -0.1212
13651TIP3   OH262443   2.626   0.968  15.450 -0.0007 -0.2260 -0.2444
13651TIP3    H162444   2.659   0.993  15.536 -2.3010  1.2523  0.2555
13651TIP3    H262445   2.530   0.970  15.459 -0.2855  0.5065 -2.9647
13652TIP3   OH262446   5.907   6.423   0.831  1.2144  0.7112 -0.1115
13652TIP3    H162447   5.990   6.467   0.850  1.2247  0.8705 -0.5411
13652TIP3    H262448   5.893   6.437   0.738  1.0975  0.0146 -0.2016
13653TIP3   OH262449   2.356   4.201   1.751 -0.1470  0.3652  0.4703
13653TIP3    H162450   2.328   4.186   1.660  0.8661 -0.9597  0.3589
13653TIP3    H262451   2.404   4.283   1.748  0.3963  0.0275 -0.3313
13654TIP3   OH262452   1.080   1.129  13.028 -0.5640 -0.8239  0.2795
13654TIP3    H162453   1.098   1.122  12.934 -0.8792  0.5881  0.1031
13654TIP3    H262454   1.124   1.053  13.066 -0.7712 -1.6330 -1.0567
13655TIP3   OH262455   1.012   3.959   1.667 -0.3356  0.2236 -0.0999
13655TIP3    H162456   1.056   3.915   1.594 -2.3055 -0.3423 -0.9771
13655TIP3    H262457   0.994   3.889   1.729 -2.1770  0.0257 -0.8446
13656TIP3   OH262458   4.100   1.803  15.837 -0.3814  0.3412 -0.9304
13656TIP3    H162459   4.105   1.707  15.835 -0.6789  0.3324 -1.2551
13656TIP3    H262460   4.046   1.826  15.761  2.2584  0.9534 -2.6559
13657TIP3   OH262461   2.496   6.618   2.235  0.5563 -0.5887 -0.1239
13657TIP3    H162462   2.478   6.698   2.186 -1.8172 -0.1208  1.4364
13657TIP3    H262463   2.576   6.638   2.283 -0.9596  1.5632  1.6336
13658TIP3   OH262464   2.654   2.367   5.980  0.2098 -0.4951 -0.9446
13658TIP3    H162465   2.608   2.359   5.896  0.1031 -1.0695 -0.8317
13658TIP3    H262466   2.713   2.291   5.983  0.4560 -0.2959 -0.6476
13659TIP3   OH262467   2.675   4.768   1.438  0.3070 -0.6532  0.1343
13659TIP3    H162468   2.695   4.679   1.407  1.6206 -0.2966 -0.0524
13659TIP3    H262469   2.638   4.812   1.361 -1.8990 -1.5230  0.6697
13660TIP3   OH262470   4.988   5.448   5.046  0.4120 -0.3762 -0.1652
13660TIP3    H162471   4.910   5.488   5.082  0.1699 -1.1182  0.1446
13660TIP3    H262472   5.054   5.457   5.115 -0.0887 -1.9170  0.5521
13661TIP3   OH262473   3.737   6.317  15.713 -0.4460  0.2687  0.0112
13661TIP3    H162474   3.683   6.349  15.640 -1.2407 -0.3167  0.3509
13661TIP3    H262475   3.695   6.352  15.791  0.4656  0.9747  0.1920
13662TIP3   OH262476   4.983   1.494  13.507  0.3880  0.3480 -0.4216
13662TIP3    H162477   5.049   1.454  13.450 -0.4001 -0.2733 -0.9032
13662TIP3    H262478   4.921   1.535  13.447 -1.2852 -1.6091 -0.0834
13663TIP3   OH262479   1.730   6.776   5.158 -0.3478  0.0329  0.0563
13663TIP3    H162480   1.788   6.815   5.092  1.0028 -1.3113  0.4393
13663TIP3    H262481   1.680   6.850   5.192  0.4695  1.0712 -0.9512
13664TIP3   OH262482   6.289   5.953  12.413 -0.2702  0.1868 -0.2924
13664TIP3    H162483   6.327   6.040  12.423 -0.4976  0.2494  0.0311
13664TIP3    H262484   6.349   5.907  12.355  0.3808  0.2356  0.3353
13665TIP3   OH262485   2.530   4.000   5.057 -0.3145  0.0721  0.5009
13665TIP3    H162486   2.458   3.986   4.996 -0.2380 -1.2178  0.7010
13665TIP3    H262487   2.541   4.096   5.060 -0.0368  0.1196 -1.7916
13666TIP3   OH262488   2.082   4.003   0.844  0.1321 -0.5821  0.3094
13666TIP3    H162489   1.996   4.045   0.835  0.3143 -0.2231  0.2459
13666TIP3    H262490   2.132   4.034   0.769  0.4189 -0.5463  0.5140
13667TIP3   OH262491   0.630   6.788   5.730  0.4312 -0.3602 -0.3627
13667TIP3    H162492   0.695   6.756   5.792 -0.1331 -1.2962 -0.2432
13667TIP3    H262493   0.563   6.720   5.728 -1.5909  1.4934  1.1129
13668TIP3   OH262494   5.988   0.846   4.148 -0.3658 -0.4828  0.3036
13668TIP3    H162495   6.072   0.867   4.189 -0.5254 -1.0320  0.9359
13668TIP3    H262496   5.948   0.931   4.128 -0.4098 -0.1973  1.5604
13669TIP3   OH262497   1.007   5.940  14.125 -0.1583  0.3099 -0.1565
13669TIP3    H162498   0.961   5.868  14.081  0.3317  0.0931 -0.3166
13669TIP3    H262499   0.943   5.974  14.188 -0.1294 -0.7834  0.4892
13670TIP3   OH262500   3.705   1.897   6.609  0.0144  0.0983  0.1597
13670TIP3    H162501   3.655   1.899   6.527  4.4828 -0.1535 -2.7541
13670TIP3    H262502   3.717   1.990   6.631  1.2350  0.2408 -1.0731
13671TIP3   OH262503   3.369   6.396   4.079 -0.3806 -0.1866 -0.1136
13671TIP3    H162504   3.292   6.451   4.062 -0.5746  0.0906  1.5651
13671TIP3    H262505   3.336   6.323   4.132  0.5118 -0.0223  0.6968
13672TIP3   OH262506   2.427   2.709   1.159  0.3229 -0.5420  0.3100
13672TIP3    H162507   2.502   2.650   1.149 -0.6930 -1.2934 -3.5901
13672TIP3    H262508   2.357   2.653   1.192  0.3652 -0.7501  0.0514
13673TIP3   OH262509   2.187   4.512   0.609  0.4495 -0.2397  0.0346
13673TIP3    H162510   2.273   4.469   0.603 -0.1720 -1.5259  0.1122
13673TIP3    H262511   2.202   4.587   0.666  1.9652  0.6929 -1.5311
13674TIP3   OH262512   4.479   0.142   0.285 -0.4616  0.7008 -0.7091
13674TIP3    H162513   4.502   0.115   0.196  0.1168  0.9241 -0.6340
13674TIP3    H262514   4.505   0.234   0.290  3.6053 -0.4257  1.0232
13675TIP3   OH262515   5.810   2.073  16.916  0.5282  0.0023 -0.3328
13675TIP3    H162516   5.774   2.101  16.832  1.8409 -0.4525 -1.0655
13675TIP3    H262517   5.758   1.996  16.940 -0.3804  0.6174 -0.3314
13676TIP3   OH262518   6.228   6.021   2.476  0.0940 -0.3934 -0.4272
13676TIP3    H162519   6.233   6.032   2.381  1.2592 -0.6655 -0.4034
13676TIP3    H262520   6.136   6.001   2.493 -0.4752  1.3296 -1.3202
13677TIP3   OH262521   3.565   2.484   4.460  0.0161  0.2906  0.3100
13677TIP3    H162522   3.612   2.420   4.513 -0.1298 -0.1503 -0.0931
13677TIP3    H262523   3.620   2.495   4.382 -0.5834 -0.2851 -0.2005
13678TIP3   OH262524   1.863   4.853   3.382 -0.0541  0.0803  0.0977
13678TIP3    H162525   1.771   4.881   3.388  0.6983  2.2454  2.3571
13678TIP3    H262526   1.876   4.799   3.460  0.6951  0.0671 -0.0378
13679TIP3   OH262527   5.405   4.435   4.820 -0.3969  0.1458  0.2762
13679TIP3    H162528   5.314   4.458   4.842  0.2149  3.1601 -0.2708
13679TIP3    H262529   5.452   4.444   4.903 -0.2551  0.3172  0.1760
13680TIP3   OH262530   0.127   0.740   1.683 -0.6060 -0.3776 -0.4612
13680TIP3    H162531   0.121   0.742   1.778 -0.1713 -0.6834 -0.4276
13680TIP3    H262532   0.057   0.799   1.653  0.7374  1.5396  0.1110
13681TIP3   OH262533   6.787   3.970   2.589 -0.7474 -0.0202 -0.9014
13681TIP3    H162534   6.810   3.895   2.644  1.1109 -0.8385 -2.7501
13681TIP3    H262535   6.865   3.986   2.536 -2.5005  0.7293 -3.3230
13682TIP3   OH262536   0.105   0.809   1.306 -0.5072 -0.5409  0.0507
13682TIP3    H162537   0.151   0.870   1.249 -1.5039  1.1773  1.0385
13682TIP3    H262538   0.167   0.791   1.377 -0.2259 -0.6395 -0.2208
13683TIP3   OH262539   2.960   5.214   0.628 -0.2582 -0.6530 -1.1282
13683TIP3    H162540   2.917   5.217   0.543  0.5735  0.5063 -1.5227
13683TIP3    H262541   3.033   5.153   0.616 -0.7300 -1.2581 -0.9558
13684TIP3   OH262542   6.446   5.515  11.021 -0.3802 -0.0832 -0.2673
13684TIP3    H162543   6.453   5.606  10.995  1.1444 -0.5901 -1.7158
13684TIP3    H262544   6.513   5.470  10.970 -1.7692 -2.1791 -0.3338
13685TIP3   OH262545   5.732   1.253   1.887  0.4410  0.1070 -0.1584
13685TIP3    H162546   5.729   1.313   1.961  1.4750 -0.4396  0.3229
13685TIP3    H262547   5.820   1.216   1.888 -0.1542 -1.3563 -0.5117
13686TIP3   OH262548   4.781   2.786   0.918 -0.1605  0.1892  0.2359
13686TIP3    H162549   4.737   2.779   0.833 -0.4848 -0.0109  0.4198
13686TIP3    H262550   4.815   2.698   0.935  0.4706  0.3856  0.0095
13687TIP3   OH262551   3.172   4.654   2.417  0.3291 -0.3591 -0.1444
13687TIP3    H162552   3.191   4.719   2.485 -1.2798 -0.2573  0.2363
13687TIP3    H262553   3.254   4.606   2.406  0.4347 -0.8495  2.4056
13688TIP3   OH262554   1.516   3.116   4.132 -0.1612 -1.1046 -0.2836
13688TIP3    H162555   1.512   3.057   4.056 -1.1266  0.5592 -1.5713
13688TIP3    H262556   1.426   3.120   4.164 -0.4905  1.0802 -1.3640
13689TIP3   OH262557   2.204   0.290  13.320  0.2485  0.5357 -0.4117
13689TIP3    H162558   2.206   0.352  13.393  0.1587 -0.9699  0.8870
13689TIP3    H262559   2.262   0.219  13.347 -0.6768 -0.5880 -1.3054
13690TIP3   OH262560   5.241   4.406  17.020  0.1338 -0.3209  0.4975
13690TIP3    H162561   5.171   4.421  17.084  1.7425  3.6409  1.4659
13690TIP3    H262562   5.318   4.447  17.058  2.1175 -1.3328 -2.2554
13691TIP3   OH262563   5.694   5.707  14.814  0.7122  0.0124 -0.1681
13691TIP3    H162564   5.675   5.644  14.882  0.3144 -0.5345 -0.7756
13691TIP3    H262565   5.609   5.748  14.795  0.9318  0.5917  0.0894
13692TIP3   OH262566   0.689   1.834   0.133  0.5720 -0.7309 -0.0290
13692TIP3    H162567   0.691   1.825   0.037  1.3120  0.1854 -0.1047
13692TIP3    H262568   0.781   1.843   0.158  0.6292 -3.7415  1.0657
13693TIP3   OH262569   3.536   1.746   5.739 -0.0947 -0.8995 -0.1787
13693TIP3    H162570   3.478   1.815   5.772  1.1305 -0.3510  0.8660
13693TIP3    H262571   3.476   1.678   5.706 -1.3316 -0.3904  0.9536
13694TIP3   OH262572   6.515   1.963   2.901 -0.2486 -0.4425  0.6017
13694TIP3    H162573   6.531   1.878   2.941  2.0258 -1.4070 -2.1372
13694TIP3    H262574   6.460   1.944   2.824  1.8628  0.1940 -1.1327
13695TIP3   OH262575   2.689   4.368  15.877  0.4949  0.3827  0.3243
13695TIP3    H162576   2.609   4.394  15.832  0.4503 -1.8894 -0.9988
13695TIP3    H262577   2.734   4.451  15.894 -0.7299  1.5078 -1.5792
13696TIP3   OH262578   4.251   5.776  15.462 -0.3561  0.1976  0.2464
13696TIP3    H162579   4.212   5.864  15.456 -1.5645 -0.3531 -0.0222
13696TIP3    H262580   4.186   5.724  15.508  0.4354 -0.5264  0.5489
13697TIP3   OH262581   5.412   5.373   4.614 -0.5862  0.1899  0.3151
13697TIP3    H162582   5.438   5.330   4.695  1.1962 -0.3435 -0.4892
13697TIP3    H262583   5.437   5.465   4.626 -0.2690  0.0991  0.3483
13698TIP3   OH262584   1.520   2.536   0.852 -0.4048  0.2396 -0.3842
13698TIP3    H162585   1.424   2.526   0.852 -0.2998 -0.8522 -1.0145
13698TIP3    H262586   1.547   2.513   0.763  0.7387 -2.9284  0.6844
13699TIP3   OH262587   6.359   5.752  12.180 -0.1086 -0.3108 -1.0332
13699TIP3    H162588   6.392   5.725  12.266 -0.5472 -0.5226 -0.9296
13699TIP3    H262589   6.401   5.693  12.118  0.5216  0.1009 -1.0059
13700TIP3   OH262590   0.155   1.293  11.689  0.1547 -0.6736  0.4242
13700TIP3    H162591   0.195   1.235  11.754 -1.9696 -0.8155  1.6371
13700TIP3    H262592   0.218   1.365  11.678  1.7190 -1.9722  0.6649
13701TIP3   OH262593   0.187   2.467  11.957  0.2250 -0.5692 -0.7382
13701TIP3    H162594   0.227   2.482  11.872 -0.5849 -1.0570 -1.2117
13701TIP3    H262595   0.142   2.383  11.948  3.0205 -2.3592  1.2376
13702TIP3   OH262596   2.772   0.821   1.483 -0.0341 -0.2114 -0.3831
13702TIP3    H162597   2.818   0.857   1.560  0.4199  1.9251 -1.6154
13702TIP3    H262598   2.703   0.767   1.520 -0.7920  1.9905  1.5977
13703TIP3   OH262599   1.535   2.403   6.473  0.3328  0.1971 -0.1174
13703TIP3    H162600   1.564   2.406   6.564 -0.4703 -1.6697  0.2087
13703TIP3    H262601   1.580   2.327   6.436  0.7195  0.9888 -1.3238
13704TIP3   OH262602   5.829   1.154  10.907 -0.0329 -0.4422 -1.1107
13704TIP3    H162603   5.889   1.099  10.857  0.2866 -0.6886 -0.4611
13704TIP3    H262604   5.851   1.137  10.999 -1.3315 -0.8286 -0.8482
13705TIP3   OH262605   3.666   5.294   2.034 -0.0292 -0.3555  0.5617
13705TIP3    H162606   3.705   5.240   2.103  3.0961 -0.5799 -1.2788
13705TIP3    H262607   3.636   5.231   1.969  0.2027 -0.0213  0.1301
13706TIP3   OH262608   2.071   3.492  15.779 -0.4672 -0.1553  0.2060
13706TIP3    H162609   2.104   3.470  15.692  0.2059  1.9489 -0.1249
13706TIP3    H262610   2.047   3.585  15.773 -1.1576 -0.1816  2.0379
13707TIP3   OH262611   5.246   2.099  12.892  0.0389  0.1840 -0.5651
13707TIP3    H162612   5.220   2.047  12.968  0.3915 -1.9142 -1.8543
13707TIP3    H262613   5.209   2.052  12.817 -0.4825  2.3380 -1.6976
13708TIP3   OH262614   6.559   6.760   2.785  0.5824  0.5655  0.2310
13708TIP3    H162615   6.567   6.669   2.754  0.8780  0.6872 -0.0444
13708TIP3    H262616   6.465   6.776   2.784  0.5993  0.6212 -0.7609
13709TIP3   OH262617   1.959   3.311  11.773  0.7799  0.7676 -0.6221
13709TIP3    H162618   1.928   3.325  11.863 -1.8358  2.7137 -1.7510
13709TIP3    H262619   1.933   3.221  11.754 -2.8167  1.7729 -0.8987
13710TIP3   OH262620   3.493   2.168   4.341  0.4546 -0.4033 -0.1194
13710TIP3    H162621   3.398   2.160   4.339  0.4796 -0.7598  0.0537
13710TIP3    H262622   3.512   2.243   4.285  0.1202 -0.7235 -0.6677
13711TIP3   OH262623   2.930   2.634  13.913 -0.6050 -0.2990 -0.3806
13711TIP3    H162624   2.992   2.626  13.841 -0.5511  1.4512 -0.5563
13711TIP3    H262625   2.844   2.624  13.872 -0.5962  1.1333 -0.7911
13712TIP3   OH262626   3.322   6.683  16.537  0.3508  0.1151 -0.2901
13712TIP3    H162627   3.312   6.705  16.444  0.4078 -1.4519 -0.6752
13712TIP3    H262628   3.362   6.596  16.537  0.1689  0.0199  1.2101
13713TIP3   OH262629   2.696   5.684   3.727 -0.0734  0.9957  0.0048
13713TIP3    H162630   2.771   5.740   3.747  1.2664 -0.5429 -0.5232
13713TIP3    H262631   2.685   5.691   3.632 -0.6538  1.2750  0.0904
13714TIP3   OH262632   2.932   3.252  11.543 -0.1294  0.1881  1.0064
13714TIP3    H162633   3.000   3.257  11.476  0.4055 -0.4834  1.5029
13714TIP3    H262634   2.861   3.306  11.508 -0.6607 -1.7688 -1.0301
13715TIP3   OH262635   0.775   0.005  12.142 -0.5947  0.5145  0.2048
13715TIP3    H162636   0.759  -0.004  12.236  0.6795  2.0360  0.5998
13715TIP3    H262637   0.784   0.100  12.128  0.0257  0.2533 -1.3020
13716TIP3   OH262638   0.897   6.760   6.159 -0.1089  0.2760 -0.2517
13716TIP3    H162639   0.846   6.802   6.228  1.9153  0.2392  1.3261
13716TIP3    H262640   0.952   6.696   6.205  0.5856 -0.4353 -2.0146
13717TIP3   OH262641   0.720   1.810  17.141  0.3660 -0.1763 -0.5215
13717TIP3    H162642   0.810   1.777  17.132  0.4392 -0.3822  0.8586
13717TIP3    H262643   0.665   1.733  17.130  0.4427 -0.3702  0.3867
13718TIP3   OH262644   1.475   4.900  11.504 -0.2464 -0.0750 -0.8442
13718TIP3    H162645   1.558   4.941  11.531 -0.6970 -0.4789  1.2165
13718TIP3    H262646   1.414   4.973  11.496 -0.2032  0.0081 -0.4151
13719TIP3   OH262647   1.176   5.935   3.698 -0.2205  0.5988 -0.4433
13719TIP3    H162648   1.177   5.848   3.739  0.4761  0.7858 -0.0659
13719TIP3    H262649   1.097   5.934   3.643 -0.4956 -0.0886 -0.0463
13720TIP3   OH262650   3.839   3.411   4.407 -0.1997 -0.6384 -0.2328
13720TIP3    H162651   3.889   3.329   4.404  2.4944  0.9733 -1.7553
13720TIP3    H262652   3.906   3.480   4.408 -2.3849  1.5637  1.4309
13721TIP3   OH262653   1.053   3.138  17.111  0.0965 -0.3401  0.0139
13721TIP3    H162654   1.036   3.211  17.052  1.5460  0.9800  1.1723
13721TIP3    H262655   0.976   3.133  17.167  0.3919  0.9394  0.5500
13722TIP3   OH262656   1.576   1.587  14.134  0.0795 -0.2665  0.2118
13722TIP3    H162657   1.594   1.657  14.071 -0.1194 -0.0959  0.3418
13722TIP3    H262658   1.550   1.633  14.214 -2.8708 -0.5103 -0.5501
13723TIP3   OH262659   6.024   0.791  13.156  0.4715 -0.5065 -0.0307
13723TIP3    H162660   5.929   0.789  13.163  0.4589  0.7602  0.3177
13723TIP3    H262661   6.041   0.779  13.062 -0.0445 -0.4027 -0.1413
13724TIP3   OH262662   3.506   2.339  12.835 -0.2861 -0.5230  0.3332
13724TIP3    H162663   3.413   2.321  12.829 -0.6894  1.2952  0.7523
13724TIP3    H262664   3.514   2.399  12.909  1.0397  0.3577 -0.4966
13725TIP3   OH262665   5.408   1.772   3.536  0.2343  0.5306 -0.3848
13725TIP3    H162666   5.484   1.723   3.569  1.0500  0.8377 -1.7726
13725TIP3    H262667   5.340   1.756   3.601  0.2354 -3.0622 -1.1732
13726TIP3   OH262668   1.615   1.992   3.426  0.4599  0.3513 -0.2712
13726TIP3    H162669   1.683   2.055   3.451  0.7628 -0.6784  1.6300
13726TIP3    H262670   1.549   2.000   3.495  0.6810 -1.6504  0.1974
13727TIP3   OH262671   6.816   0.005   2.511  0.5082 -0.0354 -0.1203
13727TIP3    H162672   6.804  -0.058   2.439 -0.5029  0.0297 -0.0256
13727TIP3    H262673   6.910   0.010   2.524  0.8654  1.6507 -2.9742
13728TIP3   OH262674   5.521   1.984   1.265  0.1377 -0.8397 -0.0385
13728TIP3    H162675   5.597   1.951   1.312  1.3422  2.0662  0.1547
13728TIP3    H262676   5.557   2.029   1.189 -1.2994  1.2887  0.4981
13729TIP3   OH262677   4.625   1.239  12.463  0.3115  0.3197 -0.1178
13729TIP3    H162678   4.691   1.235  12.393  0.1315  0.2099 -0.2796
13729TIP3    H262679   4.643   1.162  12.517 -0.6088 -0.4982 -0.9795
13730TIP3   OH262680   2.856   0.723  11.381 -0.1327  0.3165  0.8311
13730TIP3    H162681   2.871   0.643  11.329  0.3081  1.4739 -0.8832
13730TIP3    H262682   2.762   0.739  11.373 -0.3493 -0.3989  1.7700
13731TIP3   OH262683   4.512   6.679   2.835  0.4327  0.1815  0.1370
13731TIP3    H162684   4.560   6.698   2.916  0.3592  1.3402 -0.0899
13731TIP3    H262685   4.579   6.677   2.767  0.1272  2.0755 -0.2230
13732TIP3   OH262686   6.619   4.279   5.821 -0.2601 -0.1445 -0.1731
13732TIP3    H162687   6.530   4.247   5.805 -0.3743  0.2373 -0.3135
13732TIP3    H262688   6.642   4.244   5.907 -0.5041 -0.3333 -0.1839
13733TIP3   OH262689   0.001   4.805   2.097 -0.8999 -0.3404  0.4771
13733TIP3    H162690  -0.045   4.772   2.174 -0.1500  0.2045  1.1714
13733TIP3    H262691  -0.059   4.869   2.058  0.3909  2.5062  3.0093
13734TIP3   OH262692   5.021   3.957   1.869  0.0637 -0.0958  0.1438
13734TIP3    H162693   4.951   4.020   1.887 -0.8876 -1.5468  1.6065
13734TIP3    H262694   5.062   3.942   1.954  1.8404  0.3245 -0.6018
13735TIP3   OH262695   4.839   3.927  16.368 -0.4381 -0.6647 -0.4389
13735TIP3    H162696   4.873   3.840  16.391  0.0695 -0.1197  0.8753
13735TIP3    H262697   4.748   3.910  16.342 -0.8461 -1.3777  1.3952
13736TIP3   OH262698   1.053   3.507  12.129  0.3164  0.2712  0.5095
13736TIP3    H162699   0.979   3.529  12.185 -1.6862  1.3469 -2.4433
13736TIP3    H262700   1.113   3.582  12.137 -2.0323  2.5392 -2.1055
13737TIP3   OH262701   6.314   5.272  10.899  0.4992  0.3244 -0.0039
13737TIP3    H162702   6.390   5.309  10.854 -0.3256  1.6093 -0.3734
13737TIP3    H262703   6.280   5.206  10.838 -0.6123  2.0584 -1.3402
13738TIP3   OH262704   3.470   6.388  11.422  0.2168 -0.4732  0.2080
13738TIP3    H162705   3.376   6.392  11.406  0.4956 -2.9740 -2.4376
13738TIP3    H262706   3.507   6.353  11.341  3.3400 -0.4655  1.5480
13739TIP3   OH262707   3.828   6.219   4.264  0.8556 -0.2209 -0.5791
13739TIP3    H162708   3.859   6.308   4.249 -0.6288  0.0557 -2.2248
13739TIP3    H262709   3.896   6.178   4.317  1.2451  2.0859  0.7399
13740TIP3   OH262710   4.912   6.585   3.517 -0.2593  0.2039 -0.3987
13740TIP3    H162711   4.972   6.608   3.588  0.9332  0.7425 -1.5472
13740TIP3    H262712   4.935   6.495   3.495 -0.3845  0.1566 -0.3312
13741TIP3   OH262713   2.452   4.489  16.318  0.1818  0.4771  0.7010
13741TIP3    H162714   2.522   4.431  16.347 -0.7868 -0.7024  0.7399
13741TIP3    H262715   2.436   4.464  16.227  0.9807  1.9288  0.1491
13742TIP3   OH262716   0.936   2.406  13.009 -0.2322 -0.5662 -0.2733
13742TIP3    H162717   1.023   2.369  13.023 -0.4780 -0.7228  0.9311
13742TIP3    H262718   0.935   2.432  12.917  1.3731  0.1653 -0.1055
13743TIP3   OH262719   0.510   2.432  11.522 -0.1883  0.6731 -0.0149
13743TIP3    H162720   0.459   2.352  11.527  1.3400 -0.2588  0.9166
13743TIP3    H262721   0.448   2.498  11.491 -1.9776 -0.4106  1.1626
13744TIP3   OH262722   5.503   5.689  12.605 -0.2761  0.1183  1.4303
13744TIP3    H162723   5.520   5.682  12.699  1.1567 -0.5610  1.1432
13744TIP3    H262724   5.581   5.651  12.564 -1.7307 -1.3730 -0.0282
13745TIP3   OH262725   3.700   3.070   2.286 -0.7476 -0.0235  0.4567
13745TIP3    H162726   3.750   2.989   2.281 -0.7766  0.0202 -0.7426
13745TIP3    H262727   3.715   3.113   2.201 -0.2787  1.4900  1.2793
13746TIP3   OH262728   0.944   4.761   5.758  0.7739  0.1581 -0.1412
13746TIP3    H162729   0.913   4.672   5.744 -0.1033  0.6034 -1.1082
13746TIP3    H262730   1.040   4.754   5.753  0.7409 -0.8451  0.5573
13747TIP3   OH262731   5.710   3.988   1.643 -0.6267 -0.0189  0.0931
13747TIP3    H162732   5.787   4.043   1.628 -1.3277  0.6473 -1.2050
13747TIP3    H262733   5.652   4.042   1.697  0.5541 -1.2149  2.6434
13748TIP3   OH262734   0.659   4.998  14.100 -0.0594  0.4754 -0.1763
13748TIP3    H162735   0.657   4.924  14.040  1.0219  1.3684 -1.3449
13748TIP3    H262736   0.585   5.053  14.073 -0.0882  0.4556 -0.1366
13749TIP3   OH262737   0.694   1.296   0.772  0.4634 -0.2237  0.5248
13749TIP3    H162738   0.753   1.361   0.810 -0.9631  0.9971  0.6999
13749TIP3    H262739   0.633   1.275   0.843 -3.0290  3.0298 -1.3357
13750TIP3   OH262740   4.802   2.503  16.710 -0.8920  0.0476  0.6216
13750TIP3    H162741   4.789   2.440  16.639  4.4218 -0.7929  0.1745
13750TIP3    H262742   4.821   2.585  16.665  1.5651 -0.2777  0.9986
13751TIP3   OH262743   1.943   6.544   3.515 -0.1903 -0.3976 -0.5351
13751TIP3    H162744   1.926   6.529   3.421 -0.0460 -1.0901 -0.4545
13751TIP3    H262745   1.928   6.638   3.527 -0.8645 -0.4206 -1.1170
13752TIP3   OH262746   3.048   2.691   4.816 -0.4218  0.1008  0.2404
13752TIP3    H162747   3.108   2.764   4.802 -0.7974  0.1408 -1.2593
13752TIP3    H262748   3.104   2.613   4.815 -0.2119  0.2503  0.3743
13753TIP3   OH262749   1.418   1.072  12.517 -0.7737 -0.8673 -0.2261
13753TIP3    H162750   1.347   1.071  12.452  0.2609 -0.3279 -1.3867
13753TIP3    H262751   1.406   0.991  12.567 -2.9279 -0.1892  0.3845
13754TIP3   OH262752   6.191   2.371   2.778  0.4475 -0.5594 -0.0091
13754TIP3    H162753   6.139   2.350   2.700  1.6001  0.6721 -1.1286
13754TIP3    H262754   6.133   2.423   2.833  0.5789  1.1069 -1.4115
13755TIP3   OH262755   3.922   4.584   4.533 -0.3433  0.3834  0.2081
13755TIP3    H162756   3.968   4.509   4.571 -0.4099  0.3566  0.2362
13755TIP3    H262757   3.851   4.546   4.483 -0.7815  0.4563  0.7727
13756TIP3   OH262758   2.068   0.666  12.615 -0.0641 -0.2463  0.1431
13756TIP3    H162759   2.000   0.607  12.585  0.7740 -2.2936  2.1362
13756TIP3    H262760   2.125   0.679  12.539 -1.3114 -0.4525 -0.8309
13757TIP3   OH262761   6.534   5.456  14.465  0.3968 -0.7259 -0.5164
13757TIP3    H162762   6.523   5.549  14.445 -4.4872 -1.2358 -0.6440
13757TIP3    H262763   6.523   5.450  14.559 -2.3387 -1.4661 -0.8386
13758TIP3   OH262764   6.339   4.077  10.224 -1.1480 -0.4231 -0.3619
13758TIP3    H162765   6.277   4.016  10.265 -1.4021 -1.2564 -1.9630
13758TIP3    H262766   6.318   4.073  10.131 -0.6765  1.5759 -0.5660
13759TIP3   OH262767   2.944   4.483   4.903  0.5766  0.0378 -0.5381
13759TIP3    H162768   3.016   4.428   4.932 -0.7377 -0.9602  0.8939
13759TIP3    H262769   2.982   4.570   4.893  1.7828 -0.3072  1.0262
13760TIP3   OH262770   0.645   6.157   4.907  0.1768 -0.3413  0.2853
13760TIP3    H162771   0.662   6.245   4.874 -0.7916  0.0128  0.7273
13760TIP3    H262772   0.552   6.141   4.887  0.6145 -1.6876 -0.7863
13761TIP3   OH262773   2.973   1.911  13.681 -0.0565  0.0264 -0.9420
13761TIP3    H162774   3.043   1.853  13.652 -1.0892 -2.1814  0.7902
13761TIP3    H262775   2.998   1.937  13.770 -0.4308  0.8395 -1.0753
13762TIP3   OH262776   5.711   5.006  16.784  0.2316 -0.1809  0.8649
13762TIP3    H162777   5.787   4.949  16.796  0.4760 -0.0829 -0.1906
13762TIP3    H262778   5.638   4.946  16.768  0.4276 -0.2148  0.0805
13763TIP3   OH262779   2.055   2.493   1.455 -0.0746  0.9210 -0.1642
13763TIP3    H162780   2.108   2.465   1.380 -2.4815 -3.6929 -0.3407
13763TIP3    H262781   2.104   2.461   1.531 -1.2797 -1.0603 -0.1996
13764TIP3   OH262782   0.030   5.919  13.787  0.0566  0.3312  0.8232
13764TIP3    H162783   0.091   5.903  13.716 -0.5109  0.1631  0.3695
13764TIP3    H262784   0.080   5.970  13.851  0.3041  1.2767 -0.1001
13765TIP3   OH262785   5.657   4.274   0.851  0.7587 -0.4237  0.2249
13765TIP3    H162786   5.646   4.328   0.773  0.3061 -0.5203  0.2211
13765TIP3    H262787   5.685   4.189   0.818 -0.4751 -0.7848  0.0897
13766TIP3   OH262788   0.438   1.229   5.926 -0.4486  0.0255 -0.2844
13766TIP3    H162789   0.531   1.243   5.946 -0.2686 -0.3466 -0.8264
13766TIP3    H262790   0.431   1.135   5.912 -0.2205  0.4194 -3.4896
13767TIP3   OH262791   3.345   3.393   0.704 -0.1807  0.0581 -0.4734
13767TIP3    H162792   3.429   3.376   0.747 -0.8795  1.5390  1.5925
13767TIP3    H262793   3.368   3.441   0.625  0.9481  0.2073 -0.0681
13768TIP3   OH262794   5.947   1.856   5.631 -0.1852 -0.2936 -0.4336
13768TIP3    H162795   5.912   1.778   5.675  0.3229 -0.8011 -0.9169
13768TIP3    H262796   5.875   1.885   5.574 -1.0757  0.7448  1.1870
13769TIP3   OH262797   2.198   0.704  12.846 -0.0334  0.2722  0.5564
13769TIP3    H162798   2.258   0.765  12.803  0.3817 -0.8973 -0.5841
13769TIP3    H262799   2.138   0.677  12.776 -0.3259 -0.4745  1.0880
13770TIP3   OH262800   3.057   6.787   2.593 -0.0465  0.2768  0.2205
13770TIP3    H162801   3.081   6.872   2.556  2.1926 -0.3382  0.1980
13770TIP3    H262802   3.077   6.724   2.524  2.1901 -0.6567  1.6385
13771TIP3   OH262803   2.981   4.579   1.339 -0.0694  0.3931 -0.2895
13771TIP3    H162804   2.901   4.611   1.296  1.1327  3.2467 -0.4645
13771TIP3    H262805   3.000   4.643   1.407  1.3437 -0.9914  0.6645
13772TIP3   OH262806   4.947   1.398  11.743  0.0607 -0.2013 -0.4804
13772TIP3    H162807   4.877   1.442  11.694 -0.7028 -1.1090 -0.2315
13772TIP3    H262808   4.973   1.324  11.687  2.4144  1.4340 -1.6038
13773TIP3   OH262809   1.219   1.641  11.551  0.5579  0.1904 -0.1071
13773TIP3    H162810   1.246   1.677  11.466  1.5414 -0.2152  0.0225
13773TIP3    H262811   1.298   1.647  11.605  0.5154 -1.4660  0.1502
13774TIP3   OH262812   5.727   4.336   2.609  0.0749  0.8339 -0.0594
13774TIP3    H162813   5.638   4.300   2.608 -0.1719  1.4388 -0.0079
13774TIP3    H262814   5.715   4.428   2.632  0.6754  1.0347 -0.5495
13775TIP3   OH262815   5.277   2.468  17.022 -0.3172 -0.6436 -0.1775
13775TIP3    H162816   5.210   2.466  17.090 -0.3421  1.3009 -0.1092
13775TIP3    H262817   5.357   2.442  17.066 -0.7644 -1.6995  0.0373
13776TIP3   OH262818   4.464   0.156   2.568 -0.2822  0.2410 -0.1267
13776TIP3    H162819   4.499   0.157   2.657  0.2780 -2.3867 -0.2740
13776TIP3    H262820   4.519   0.092   2.522 -1.1281  0.9293 -2.1282
13777TIP3   OH262821   0.019   3.758  17.172 -0.7623  0.3398  0.1067
13777TIP3    H162822   0.061   3.693  17.114 -0.4931  0.8856 -0.3176
13777TIP3    H262823  -0.074   3.753  17.150 -0.5701  1.0844 -0.9318
13778TIP3   OH262824   0.657   1.079   4.605  0.1362  0.3073 -0.2540
13778TIP3    H162825   0.744   1.112   4.630  0.5188  0.6373 -1.9584
13778TIP3    H262826   0.664   0.984   4.613 -0.0990  0.4428  1.9304
13779TIP3   OH262827   2.404   5.248  12.089 -0.0989  1.0333  0.3551
13779TIP3    H162828   2.481   5.269  12.036 -0.8487  1.3688 -0.6146
13779TIP3    H262829   2.336   5.308  12.058 -0.5814  1.1856  1.6452
13780TIP3   OH262830   5.395   4.309  13.846 -0.0886 -0.1376 -0.9209
13780TIP3    H162831   5.316   4.330  13.896 -0.8405 -0.7121 -1.8573
13780TIP3    H262832   5.440   4.393  13.834 -0.5279  0.1789 -0.3456
13781TIP3   OH262833   0.901   5.507  15.138 -0.3624  0.3892  0.1498
13781TIP3    H162834   0.933   5.590  15.174  0.3107 -0.4071  1.4241
13781TIP3    H262835   0.931   5.441  15.200 -3.9526 -0.4867  1.0510
13782TIP3   OH262836   3.723   5.794   0.705  0.3529 -0.0888 -0.3935
13782TIP3    H162837   3.816   5.820   0.704  0.6511 -1.0745  0.8693
13782TIP3    H262838   3.720   5.714   0.651 -0.2249  1.3694 -2.5979
13783TIP3   OH262839   0.715   2.262  13.987  0.1496  0.3182  0.1133
13783TIP3    H162840   0.698   2.185  13.933  2.4673  0.4265 -0.8837
13783TIP3    H262841   0.730   2.228  14.075 -1.4058 -0.0884  0.2333
13784TIP3   OH262842   6.208   0.662  17.114 -0.1980  0.2970 -0.8398
13784TIP3    H162843   6.250   0.642  17.030 -1.2850 -0.3421 -1.2420
13784TIP3    H262844   6.257   0.611  17.178 -0.0156 -0.0293 -1.2314
13785TIP3   OH262845   5.724   6.711  11.940  0.3774 -0.1523  0.8737
13785TIP3    H162846   5.815   6.739  11.952  0.3337  0.4849 -0.2409
13785TIP3    H262847   5.672   6.781  11.981  0.2543  1.6720 -2.2295
13786TIP3   OH262848   2.616   1.579   3.343  0.6301 -0.4346  0.8761
13786TIP3    H162849   2.526   1.598   3.315  0.3816  0.2221  2.0989
13786TIP3    H262850   2.640   1.500   3.294  0.0521  0.4450 -0.8449
13787TIP3   OH262851   4.153   3.332  13.195 -0.3104  0.3006 -0.3076
13787TIP3    H162852   4.080   3.361  13.250 -0.2367 -2.2218  1.1839
13787TIP3    H262853   4.180   3.411  13.148 -2.2523  1.8687  1.1080
13788TIP3   OH262854   1.385   2.619  17.239  0.7343  0.1268 -0.7581
13788TIP3    H162855   1.400   2.526  17.218  0.7388  0.0418 -0.3820
13788TIP3    H262856   1.309   2.618  17.296  0.8607  0.3396 -0.5872
13789TIP3   OH262857   6.594   0.343  14.654 -0.5950  0.0912 -0.4297
13789TIP3    H162858   6.631   0.319  14.569  0.2271 -1.3911  0.3193
13789TIP3    H262859   6.512   0.387  14.633 -0.6310 -0.6710 -1.9806
13790TIP3   OH262860   3.655   3.096   1.863 -0.1380 -0.0802  0.3385
13790TIP3    H162861   3.701   3.150   1.927 -1.2477  0.7934  0.4214
13790TIP3    H262862   3.568   3.083   1.900 -0.9708  0.8720 -1.1938
13791TIP3   OH262863   0.696   4.853   0.259  0.1866 -0.3545 -0.6135
13791TIP3    H162864   0.772   4.856   0.201 -0.4777  1.2875 -1.4005
13791TIP3    H262865   0.629   4.904   0.215 -0.3975  0.7804  1.5207
13792TIP3   OH262866   6.025   6.591  14.638 -0.5777  0.5854  0.0404
13792TIP3    H162867   6.118   6.571  14.641 -0.6688 -0.2653 -2.2329
13792TIP3    H262868   5.981   6.514  14.674 -0.3650  1.7540  2.9728
13793TIP3   OH262869   1.450   4.082  15.716 -0.2748 -0.2296 -0.2237
13793TIP3    H162870   1.491   4.153  15.667 -1.2798 -0.2459 -1.1036
13793TIP3    H262871   1.480   4.002  15.673  1.6641 -0.4169  1.3842
13794TIP3   OH262872   4.933   3.353  11.043  0.3355  0.2239 -0.2354
13794TIP3    H162873   4.853   3.334  11.092  0.3909  1.0553  0.1861
13794TIP3    H262874   4.957   3.269  11.003 -0.3279 -0.2045  0.2504
13795TIP3   OH262875   5.857   4.069   1.216 -0.6879 -0.0835 -0.0030
13795TIP3    H162876   5.782   4.030   1.172 -0.8682 -1.1303  1.2078
13795TIP3    H262877   5.895   3.998   1.267  1.3850  0.3271 -0.9235
13796TIP3   OH262878   0.563   0.747  14.351 -0.1467 -0.2636 -0.2354
13796TIP3    H162879   0.588   0.763  14.260  0.4261 -1.6922 -0.3347
13796TIP3    H262880   0.552   0.835  14.388 -1.3168  0.3242 -1.9209
13797TIP3   OH262881   0.705   3.612   2.491  0.0385 -0.3703  0.8355
13797TIP3    H162882   0.630   3.668   2.509 -0.0684  0.1570 -1.0570
13797TIP3    H262883   0.672   3.523   2.500 -0.6019 -0.1389  0.8134
13798TIP3   OH262884   5.358   1.741   1.267  0.1867 -0.1647 -0.7086
13798TIP3    H162885   5.387   1.830   1.247 -0.1175  0.3865  1.2267
13798TIP3    H262886   5.406   1.718   1.346 -1.0498 -1.0605 -0.2118
13799TIP3   OH262887   6.274   2.459   5.189 -0.3165 -0.0549  0.0571
13799TIP3    H162888   6.243   2.379   5.232 -0.7589 -1.3068 -2.5208
13799TIP3    H262889   6.200   2.520   5.198 -1.3039 -1.0764 -0.9198
13800TIP3   OH262890   2.072   5.850   5.015  0.2669  0.3489  0.1366
13800TIP3    H162891   2.156   5.827   4.975  0.0197 -1.7530  0.7606
13800TIP3    H262892   2.024   5.895   4.945  2.1354  2.1704 -0.0229
13801TIP3   OH262893   6.538   0.368  13.745  0.2377 -0.3092  0.8643
13801TIP3    H162894   6.519   0.458  13.721 -0.3465 -0.3943  0.9938
13801TIP3    H262895   6.623   0.372  13.789  1.1011 -0.0991 -0.8028
13802TIP3   OH262896   3.072   1.120   4.954 -0.1318 -0.2849 -0.0394
13802TIP3    H162897   3.060   1.128   5.049 -1.6198 -2.2552 -0.0258
13802TIP3    H262898   3.165   1.100   4.944 -0.2268 -1.4105  1.1174
13803TIP3   OH262899   2.627   4.085   6.628 -0.2475  0.7204 -0.1987
13803TIP3    H162900   2.675   4.035   6.561 -2.0653  1.1280 -1.8703
13803TIP3    H262901   2.646   4.040   6.710  4.1330  1.7079 -0.5294
13804TIP3   OH262902   6.316   4.613  11.920  0.4488  0.3321  0.0508
13804TIP3    H162903   6.345   4.668  11.992 -0.3975  0.0647  0.6017
13804TIP3    H262904   6.367   4.642  11.845  2.3913 -0.3496  1.0716
13805TIP3   OH262905   0.146   4.615  12.495  0.5622  0.1145  0.0767
13805TIP3    H162906   0.160   4.521  12.488 -3.1038 -0.4211 -1.0198
13805TIP3    H262907   0.160   4.649  12.407 -0.2724  0.2415 -0.0152
13806TIP3   OH262908   3.531   5.908  17.195 -0.0144  0.0083  0.7219
13806TIP3    H162909   3.527   5.865  17.110 -0.7623  0.4721  0.5209
13806TIP3    H262910   3.616   5.882  17.231  0.5822  0.3400 -0.4478
13807TIP3   OH262911   5.487   4.479   1.334 -0.3465  0.1165  0.6801
13807TIP3    H162912   5.443   4.564   1.330 -0.5977 -0.0607 -0.4197
13807TIP3    H262913   5.573   4.495   1.295 -0.5779 -0.2395  0.0065
13808TIP3   OH262914   5.597   1.016   3.730 -0.8311  0.4774  0.3146
13808TIP3    H162915   5.585   0.924   3.753 -1.0035 -0.1344 -2.1034
13808TIP3    H262916   5.654   1.051   3.798  0.6543 -1.8609  0.3076
13809TIP3   OH262917   5.726   5.739   3.821 -0.0939  0.2852  0.2476
13809TIP3    H162918   5.732   5.679   3.747  0.1769  1.5568 -0.7733
13809TIP3    H262919   5.670   5.694   3.884  0.0039 -0.9820 -0.5578
13810TIP3   OH262920   2.269   5.526  14.864 -0.2382  0.2068  0.7279
13810TIP3    H162921   2.352   5.572  14.876  0.3751 -0.4265 -0.9015
13810TIP3    H262922   2.274   5.451  14.923  0.4031  0.1052  0.5453
13811TIP3   OH262923   2.265   5.069   5.066 -0.1546  0.2282  0.2439
13811TIP3    H162924   2.337   5.007   5.055 -0.4352 -0.4951  2.3571
13811TIP3    H262925   2.276   5.104   5.154 -2.3114  0.2324  0.5310
13812TIP3   OH262926   2.983   4.724   3.891  0.5333 -0.6365  0.0490
13812TIP3    H162927   2.917   4.764   3.833  2.8843  2.4346 -0.6320
13812TIP3    H262928   3.039   4.673   3.832  2.0966  1.3516 -0.2065
13813TIP3   OH262929   1.082   2.767   3.445 -0.4374 -0.2737  0.1267
13813TIP3    H162930   0.998   2.780   3.401 -1.0667 -1.0162  1.0870
13813TIP3    H262931   1.107   2.677   3.425  0.5810  0.2323 -0.9028
13814TIP3   OH262932   0.984   5.069  11.347 -0.1570  0.3263  0.1426
13814TIP3    H162933   1.070   5.029  11.363  0.4987  1.6125 -0.0658
13814TIP3    H262934   0.954   5.030  11.265 -0.0617 -0.6021  0.5456
13815TIP3   OH262935   5.106   0.889   2.410  0.0106 -0.2118  0.0705
13815TIP3    H162936   5.194   0.920   2.386 -0.1966  0.3958  0.0689
13815TIP3    H262937   5.113   0.868   2.503 -0.2242  1.3066  0.4582
13816TIP3   OH262938   1.124   5.260   2.029 -0.4884 -0.1558 -0.0087
13816TIP3    H162939   1.038   5.300   2.018  0.5513  2.7625  2.0427
13816TIP3    H262940   1.155   5.246   1.939 -2.1595  0.8168 -0.7584
13817TIP3   OH262941   2.581   3.285   5.150  0.3994  0.0592  0.0136
13817TIP3    H162942   2.486   3.284   5.158  0.5521 -0.0229  2.1223
13817TIP3    H262943   2.602   3.210   5.095 -0.8796  1.3512 -2.3168
13818TIP3   OH262944   5.690   2.905  15.401  0.1237  0.1639 -0.5889
13818TIP3    H162945   5.771   2.903  15.452 -0.4491  1.3425  0.3937
13818TIP3    H262946   5.699   2.982  15.345  0.0312 -0.1654 -1.0550
13819TIP3   OH262947   0.775   0.073  16.596  0.0270  0.0430 -0.2230
13819TIP3    H162948   0.685   0.103  16.599  0.1710  0.9177 -2.8902
13819TIP3    H262949   0.770  -0.022  16.608 -1.3349 -0.0134 -1.1895
13820TIP3   OH262950   3.062   6.491  14.684 -0.2137  0.3062 -0.6143
13820TIP3    H162951   3.020   6.436  14.618 -1.0436  1.0786 -0.7437
13820TIP3    H262952   3.156   6.483  14.666 -0.3701 -0.4466 -1.1145
13821TIP3   OH262953   1.256   4.165  14.930  0.2751 -0.6208  0.5166
13821TIP3    H162954   1.224   4.157  14.840  0.1618 -1.6246  0.6312
13821TIP3    H262955   1.282   4.256  14.939  0.2681 -0.5112 -0.5347
13822TIP3   OH262956   1.079   1.859   4.504  0.7043  0.3352 -0.7720
13822TIP3    H162957   0.996   1.811   4.508  0.2921  1.1805  1.7409
13822TIP3    H262958   1.102   1.859   4.411 -0.6094 -2.4638 -1.1569
13823TIP3   OH262959   6.571   2.780  13.909 -0.0108  0.2820 -0.2707
13823TIP3    H162960   6.654   2.752  13.870  1.2204  0.6637  2.0081
13823TIP3    H262961   6.547   2.859  13.859  0.4162 -0.4496 -1.6603
13824TIP3   OH262962   3.772   1.706  14.504 -0.2260  0.4823 -0.2609
13824TIP3    H162963   3.791   1.767  14.433 -0.7778  1.6720  0.6153
13824TIP3    H262964   3.777   1.758  14.584  1.6684 -1.1197  0.7204
13825TIP3   OH262965   1.112   3.240   1.012 -0.3477 -0.3533 -0.1166
13825TIP3    H162966   1.117   3.216   0.919  2.5691  1.6559 -0.5646
13825TIP3    H262967   1.196   3.212   1.049 -0.8465  0.2664  1.5464
13826TIP3   OH262968   2.636   6.556  15.939  0.0653  0.3718  0.8640
13826TIP3    H162969   2.667   6.570  15.850 -0.2134 -0.5846  0.6018
13826TIP3    H262970   2.599   6.640  15.965 -0.5178  0.4555 -0.1954
13827TIP3   OH262971   4.636   0.857   5.580  0.9570  0.6691 -0.0851
13827TIP3    H162972   4.721   0.814   5.591  0.4171 -0.8461 -1.7098
13827TIP3    H262973   4.655   0.933   5.524  1.3945  0.8628  0.3226
13828TIP3   OH262974   5.896   3.569   0.032 -0.3215 -0.2233  0.1445
13828TIP3    H162975   5.822   3.510   0.020 -1.9742  1.9333 -0.5132
13828TIP3    H262976   5.959   3.544  -0.036 -2.0915  0.4091 -1.7646
13829TIP3   OH262977   6.589   1.476   3.961 -0.5775 -0.1909 -0.5449
13829TIP3    H162978   6.523   1.462   4.029 -0.5082 -1.2136 -0.6756
13829TIP3    H262979   6.539   1.508   3.886 -0.9697 -1.1187 -0.6990
13830TIP3   OH262980   6.473   1.026  12.877  0.5308 -0.0841  0.4030
13830TIP3    H162981   6.409   0.973  12.830  0.7876 -0.9973  1.0648
13830TIP3    H262982   6.466   0.996  12.968  1.2418  0.4666  0.6430
13831TIP3   OH262983   4.776   4.268  13.844  0.6209 -0.0373 -0.1094
13831TIP3    H162984   4.745   4.197  13.788 -1.1353  1.2248 -0.7636
13831TIP3    H262985   4.830   4.322  13.786  0.8935 -0.1181  0.0663
13832TIP3   OH262986   0.975   6.312   5.472  0.2663 -0.2995 -0.1279
13832TIP3    H162987   0.918   6.306   5.395  1.3362  0.5231 -1.0084
13832TIP3    H262988   1.060   6.278   5.442  0.2535 -1.5177  1.1683
13833TIP3   OH262989   5.435   3.558   4.545  0.3143  0.0053 -0.3558
13833TIP3    H162990   5.469   3.613   4.615 -4.6174  0.8914  1.5721
13833TIP3    H262991   5.357   3.604   4.513 -0.0994 -2.5660 -3.3916
13834TIP3   OH262992   5.838   0.028  16.973  0.9026  0.3338  0.2629
13834TIP3    H162993   5.916   0.083  16.961  0.9061 -0.0033 -1.4730
13834TIP3    H262994   5.801   0.056  17.057  0.9572  2.9494 -0.5344
13835TIP3   OH262995   4.090   0.903  13.242 -0.0888  0.0872 -0.1869
13835TIP3    H162996   4.125   0.937  13.325  0.9465  0.9885 -0.9844
13835TIP3    H262997   4.167   0.874  13.193 -0.7067 -0.5403 -0.7938
13836TIP3   OH262998   6.446   2.549   4.024  0.3708 -0.0530  0.3631
13836TIP3    H162999   6.456   2.459   3.994  1.2548 -0.1840  1.0388
13836TIP3    H263000   6.364   2.579   3.983 -1.2556 -1.9454  2.1150
13837TIP3   OH263001   4.270   2.207   3.425 -0.8981 -0.0849 -0.3488
13837TIP3    H163002   4.337   2.244   3.482 -2.5557  0.5029  1.2597
13837TIP3    H263003   4.319   2.173   3.349  1.3582 -0.9182  1.4160
13838TIP3   OH263004   6.326   5.659  17.080 -0.2864 -0.0263  0.1186
13838TIP3    H163005   6.308   5.661  16.986 -2.6356  0.9633  0.5560
13838TIP3    H263006   6.294   5.574  17.109 -2.4396  0.8883  0.5251
13839TIP3   OH263007   0.502   6.295   3.684 -0.0842 -0.0769  0.7847
13839TIP3    H163008   0.432   6.357   3.706  0.3351  0.2732  1.1421
13839TIP3    H263009   0.562   6.344   3.628 -1.3686 -1.0999 -1.5663
13840TIP3   OH263010   2.391   1.361   2.918  0.0583  0.2601 -0.3756
13840TIP3    H163011   2.375   1.315   3.000  0.3545  0.9215  0.0565
13840TIP3    H263012   2.317   1.421   2.910  0.4556  0.7735 -0.1848
13841TIP3   OH263013   6.479   6.491  12.776  0.2445 -0.5248 -0.0370
13841TIP3    H163014   6.453   6.537  12.856 -0.7910 -0.0511 -0.6362
13841TIP3    H263015   6.514   6.560  12.719  1.1012 -0.8790  0.0576
13842TIP3   OH263016   2.785   3.639   5.730  0.4012 -0.5621 -0.1508
13842TIP3    H163017   2.813   3.731   5.728 -0.2429 -0.3082  1.4042
13842TIP3    H263018   2.698   3.639   5.691  0.5074 -0.5448 -0.3849
13843TIP3   OH263019   1.448   3.193   5.247  0.0720 -0.2542 -0.5432
13843TIP3    H163020   1.535   3.155   5.236  1.1856  2.2656 -0.7323
13843TIP3    H263021   1.419   3.214   5.158 -0.1901  0.0717 -0.3845
13844TIP3   OH263022   5.996   3.454  17.094 -0.4656  0.3006  0.4141
13844TIP3    H163023   6.001   3.360  17.082  0.7502  0.5193 -0.8594
13844TIP3    H263024   5.945   3.485  17.019 -0.5206  0.7007  0.6152
13845TIP3   OH263025   6.554   5.647  15.442 -0.0826 -0.4546 -0.2238
13845TIP3    H163026   6.549   5.740  15.466  0.0061 -0.2263 -1.0438
13845TIP3    H263027   6.639   5.618  15.473  0.3992  0.0643 -1.0380
13846TIP3   OH263028   5.514   5.665  12.284  0.0746  0.2530 -0.1551
13846TIP3    H163029   5.460   5.609  12.228 -2.8913  2.4228  0.4164
13846TIP3    H263030   5.604   5.646  12.257 -1.0334 -2.3460 -2.2234
13847TIP3   OH263031   6.108   0.699   5.402  0.4149 -0.5593 -0.3706
13847TIP3    H163032   6.058   0.761   5.349  0.8393 -0.6710 -0.9103
13847TIP3    H263033   6.066   0.701   5.488  0.2590  0.2839 -0.4562
13848TIP3   OH263034   4.638   5.429   6.548 -0.4963 -1.1436 -0.7337
13848TIP3    H163035   4.598   5.457   6.630  0.2121  0.2295 -0.8444
13848TIP3    H263036   4.650   5.335   6.558  3.0250 -0.5215  2.2730
13849TIP3   OH263037   4.297   2.201  13.199 -0.8454 -0.1531  0.1945
13849TIP3    H163038   4.245   2.263  13.249 -0.7659 -0.4217  0.6173
13849TIP3    H263039   4.332   2.141  13.265 -2.9327 -2.1377 -0.4544
13850TIP3   OH263040   3.776   6.767   4.465 -0.0137 -0.1295  0.2144
13850TIP3    H163041   3.862   6.787   4.503 -1.2431  1.3789  2.2928
13850TIP3    H263042   3.780   6.804   4.377  1.3761  0.1790  0.3909
13851TIP3   OH263043   5.413   2.264  11.191 -0.1229  0.1564 -0.1153
13851TIP3    H163044   5.456   2.191  11.147 -0.7982 -1.0617  1.1762
13851TIP3    H263045   5.368   2.312  11.122  0.9866 -0.1834 -1.0833
13852TIP3   OH263046   4.399   2.797   1.056  0.5238  0.9696 -0.1083
13852TIP3    H163047   4.388   2.796   1.152  0.5992  1.0975 -0.0987
13852TIP3    H263048   4.461   2.726   1.039 -0.1216  0.4074 -0.1385
13853TIP3   OH263049   0.624   1.860   3.854  0.9051  0.2411  0.4269
13853TIP3    H163050   0.597   1.777   3.893 -0.8659  1.6768  2.3960
13853TIP3    H263051   0.632   1.842   3.761  0.1385 -2.0213  0.7761
13854TIP3   OH263052   2.404   6.804   0.923 -0.3153 -0.0536  0.0746
13854TIP3    H163053   2.319   6.789   0.882 -0.5943  0.3401  0.5075
13854TIP3    H263054   2.446   6.718   0.926  0.4233  0.1526 -2.6341
13855TIP3   OH263055   2.934   2.715   6.045  0.3684 -0.7083  0.1617
13855TIP3    H163056   2.889   2.797   6.024 -0.6712 -1.2374  0.2695
13855TIP3    H263057   2.981   2.691   5.965  1.9116  0.7642  0.5978
13856TIP3   OH263058   5.518   5.333   1.403 -0.5225  0.0979 -0.6461
13856TIP3    H163059   5.423   5.329   1.409 -0.4101  1.6734  3.3003
13856TIP3    H263060   5.537   5.424   1.379  0.0330  0.5283  1.3123
13857TIP3   OH263061   6.042   4.331  11.400 -0.1246  0.5525  0.8920
13857TIP3    H163062   6.067   4.293  11.316  0.8853  0.7960  1.0791
13857TIP3    H263063   5.978   4.269  11.436 -1.2978  0.9223 -0.4770
13858TIP3   OH263064   2.266   5.984  13.576  0.5932  0.1121  0.2051
13858TIP3    H163065   2.264   5.940  13.661 -0.0942  0.2663  0.2706
13858TIP3    H263066   2.244   5.916  13.513  0.9864  0.0259  0.1565
13859TIP3   OH263067   0.445   6.620   1.086 -0.6214  0.3981  0.4604
13859TIP3    H163068   0.360   6.577   1.091 -0.0412 -0.9515 -0.8126
13859TIP3    H263069   0.492   6.572   1.018  1.6393  0.3025  2.0344
13860TIP3   OH263070   5.433   5.210  15.582  0.3128  0.3461  0.0480
13860TIP3    H163071   5.362   5.237  15.640 -1.2056  0.3101 -1.7766
13860TIP3    H263072   5.479   5.292  15.561  0.0732  0.5371  0.2661
13861TIP3   OH263073   2.960   1.116  11.241 -0.4817 -0.0419 -0.2259
13861TIP3    H163074   3.023   1.053  11.276  0.0990  1.0816  0.7820
13861TIP3    H263075   3.014   1.188  11.208 -1.2435  1.1259  1.0351
13862TIP3   OH263076   2.260   5.705  12.099 -0.2213 -0.4516 -0.0463
13862TIP3    H163077   2.260   5.801  12.103 -0.8723 -0.4307 -0.5614
13862TIP3    H263078   2.234   5.677  12.187 -0.9125 -0.1425 -0.1487
13863TIP3   OH263079   5.867   2.439   5.001 -0.1867  0.4322  0.0754
13863TIP3    H163080   5.814   2.450   5.080  0.3681  0.0096  0.5064
13863TIP3    H263081   5.901   2.527   4.984  0.7096  0.2857  1.0338
13864TIP3   OH263082   4.999   1.658  10.630 -0.0177 -0.2010  0.2471
13864TIP3    H163083   5.081   1.627  10.592  0.0226  1.2096 -0.8800
13864TIP3    H263084   4.934   1.644  10.561 -0.1527  1.3735  0.0387
13865TIP3   OH263085   5.899   5.194  17.061 -0.2409 -0.2480  0.3422
13865TIP3    H163086   5.941   5.261  17.007 -1.9395 -1.1128 -2.1413
13865TIP3    H263087   5.947   5.113  17.042  0.7251 -0.1216  2.0588
13866TIP3   OH263088   3.751   0.337   4.078 -0.0937 -0.0996  0.8821
13866TIP3    H163089   3.810   0.412   4.086 -1.2442  0.8746  0.5287
13866TIP3    H263090   3.734   0.311   4.169  0.1643  0.2061  1.0200
13867TIP3   OH263091   3.708   6.692   3.571 -0.2282  0.3463  0.3011
13867TIP3    H163092   3.677   6.739   3.648  3.1871  3.1272  0.1259
13867TIP3    H263093   3.638   6.702   3.506 -2.1370 -0.0452  2.2535
13868TIP3   OH263094   3.136   3.526  15.556  0.5864  0.0170 -0.2015
13868TIP3    H163095   3.172   3.441  15.580  0.2416 -0.1839 -0.3917
13868TIP3    H263096   3.066   3.506  15.494  0.4874  0.4364 -0.2293
13869TIP3   OH263097   0.955   5.011  12.996 -0.1065 -0.1919  0.1198
13869TIP3    H163098   0.865   5.038  12.979  0.1005  0.7974  0.4981
13869TIP3    H263099   0.960   4.921  12.966 -1.6736 -0.8011  1.6066
13870TIP3   OH263100   6.204   1.789   1.971  0.2449  0.4479 -0.0485
13870TIP3    H163101   6.296   1.771   1.950 -0.1679  0.6138 -2.1149
13870TIP3    H263102   6.183   1.868   1.920 -1.5228 -0.5796 -0.9786
13871TIP3   OH263103   5.326   0.399   5.248  0.2553  0.0959 -0.2007
13871TIP3    H163104   5.303   0.363   5.334  0.7152  0.1404 -0.0594
13871TIP3    H263105   5.323   0.323   5.189  0.7234 -0.0832  0.0028
13872TIP3   OH263106   1.510   5.600  14.481 -0.0685  0.1784  0.2729
13872TIP3    H163107   1.490   5.601  14.387 -0.0181  0.2141  0.2617
13872TIP3    H263108   1.436   5.645  14.521 -0.7332 -0.9820  0.3733
13873TIP3   OH263109   6.651   1.992   1.068 -0.6147 -0.4666 -0.2986
13873TIP3    H163110   6.610   1.906   1.056 -0.9859 -0.3745  0.2721
13873TIP3    H263111   6.647   2.007   1.163  1.0718 -0.6136 -0.1860
13874TIP3   OH263112   2.590   0.136  15.228 -0.5079 -0.0118 -0.0697
13874TIP3    H163113   2.527   0.115  15.296 -0.5828 -0.4477 -0.2775
13874TIP3    H263114   2.541   0.130  15.146  0.0852 -1.5000 -0.3254
13875TIP3   OH263115   1.464   2.497  10.866 -0.5578  0.0635 -0.3140
13875TIP3    H163116   1.374   2.505  10.835 -0.5767 -0.6694 -0.4513
13875TIP3    H263117   1.477   2.403  10.880  0.6563 -0.0021 -1.7243
13876TIP3   OH263118   2.310   3.711   3.086 -0.3269 -0.4605  0.0104
13876TIP3    H163119   2.290   3.759   3.166  0.5511 -0.2356  0.0914
13876TIP3    H263120   2.327   3.779   3.021 -1.6846 -0.6258 -0.5494
13877TIP3   OH263121   2.089   5.803  15.475 -0.0763  0.6612  0.4430
13877TIP3    H163122   2.012   5.855  15.499 -0.4780  0.6571 -0.8333
13877TIP3    H263123   2.053   5.727  15.430  0.7599  1.3710 -1.4337
13878TIP3   OH263124   6.636   4.862  13.901  0.3214  0.5668 -0.5787
13878TIP3    H163125   6.727   4.840  13.920 -0.9720 -1.8497  3.5843
13878TIP3    H263126   6.586   4.786  13.933 -3.2604  2.5582 -1.1888
13879TIP3   OH263127   6.664   5.339  13.969 -0.0435  0.2411  0.7736
13879TIP3    H163128   6.618   5.380  14.043 -1.3783 -0.4172  0.3084
13879TIP3    H263129   6.664   5.246  13.990  2.0400  0.3307  1.2909
13880TIP3   OH263130   6.093   3.157   2.408  0.2045 -0.1342 -0.0831
13880TIP3    H163131   6.114   3.065   2.393  1.3488  0.1324 -0.1973
13880TIP3    H263132   6.052   3.159   2.494 -1.1417 -0.9353 -0.6938
13881TIP3   OH263133   4.963   5.778   0.697 -0.2232 -0.5103  0.2098
13881TIP3    H163134   4.973   5.708   0.762 -0.4826 -1.8085 -1.1173
13881TIP3    H263135   5.051   5.816   0.690 -0.2358 -0.2109  1.4621
13882TIP3   OH263136   0.161   1.772  15.584  0.1054 -0.5453 -0.1104
13882TIP3    H163137   0.217   1.697  15.605  2.4627  1.4153  0.7034
13882TIP3    H263138   0.133   1.756  15.493  1.6503 -1.7449 -0.3962
13883TIP3   OH263139   0.665   2.654  14.558  0.2658 -0.2039 -0.2079
13883TIP3    H163140   0.710   2.706  14.491 -0.5187 -0.8563 -1.2449
13883TIP3    H263141   0.657   2.714  14.633  0.7044  0.6879 -0.8663
13884TIP3   OH263142   2.124   4.788   1.990  0.6900  0.1118 -0.0809
13884TIP3    H163143   2.149   4.877   1.964  0.1291  0.0799 -0.7326
13884TIP3    H263144   2.177   4.771   2.068  1.2138  0.8061 -0.2743
13885TIP3   OH263145   1.474   6.094  13.758 -0.5832 -0.1782  0.7204
13885TIP3    H163146   1.470   6.024  13.824  0.4918 -1.8712 -0.9658
13885TIP3    H263147   1.566   6.121  13.757 -1.6551  4.1729  4.2398
13886TIP3   OH263148   0.176   5.747  11.460 -0.0866  0.5161 -0.2787
13886TIP3    H163149   0.185   5.787  11.374  0.6592  0.9457 -0.0016
13886TIP3    H263150   0.110   5.678  11.447 -0.2399  0.8104 -1.1051
13887TIP3   OH263151   1.023   4.039  16.535  0.2243  0.7182  0.1521
13887TIP3    H163152   1.100   3.999  16.577  0.2038  1.4012  0.8522
13887TIP3    H263153   1.060   4.098  16.469  0.2302 -1.7565 -2.1365
13888TIP3   OH263154   6.707   0.939   0.743 -0.2972  0.0648  0.1510
13888TIP3    H163155   6.648   1.009   0.714 -2.1062 -0.8600  1.4992
13888TIP3    H263156   6.714   0.880   0.668 -2.6514 -0.8119  0.5867
13889TIP3   OH263157   2.835   5.342  13.777 -0.0241 -0.2590  0.2949
13889TIP3    H163158   2.888   5.387  13.711 -0.0153 -1.4755 -0.5382
13889TIP3    H263159   2.746   5.375  13.763  0.1708  0.3281  0.4198
13890TIP3   OH263160   4.343   2.084  15.143  0.1232 -0.0122  0.2530
13890TIP3    H163161   4.415   2.145  15.125 -0.0451 -0.0765 -0.6792
13890TIP3    H263162   4.272   2.113  15.085  0.2054 -1.3768 -0.5716
13891TIP3   OH263163   6.451   5.999   0.626  0.5078 -0.4808 -0.5673
13891TIP3    H163164   6.472   6.070   0.565  0.9835  1.3155  1.6300
13891TIP3    H263165   6.535   5.979   0.668 -0.1243 -0.5749  0.6520
13892TIP3   OH263166   5.622   3.527   2.589  0.1908 -0.3464 -1.0216
13892TIP3    H163167   5.596   3.440   2.618 -0.9559  0.2943 -0.0328
13892TIP3    H263168   5.687   3.555   2.654 -3.0340  1.4482  1.6393
13893TIP3   OH263169   4.897   5.640  13.397 -0.2701 -0.2925  0.2557
13893TIP3    H163170   4.953   5.642  13.320 -0.4438 -2.1002  0.0657
13893TIP3    H263171   4.948   5.594  13.463 -0.7293 -0.1215  0.7374
13894TIP3   OH263172   1.161   6.362   5.013 -0.1318 -0.4596 -0.0884
13894TIP3    H163173   1.132   6.403   4.932 -1.2677 -0.6457  0.2175
13894TIP3    H263174   1.169   6.269   4.992 -1.1717 -0.6233  0.2071
13895TIP3   OH263175   6.129   4.206   5.548  0.0563  0.3807 -0.1098
13895TIP3    H163176   6.165   4.261   5.478 -1.9708  2.0028  0.1079
13895TIP3    H263177   6.034   4.210   5.536 -0.2473 -0.6186  1.7864
13896TIP3   OH263178   4.547   4.036  15.214 -0.6367 -0.2537 -0.0944
13896TIP3    H163179   4.615   4.102  15.199 -1.0589  0.4623  1.1209
13896TIP3    H263180   4.485   4.050  15.142  0.4643 -0.8865 -1.1910
13897TIP3   OH263181   4.233   5.291   3.279  0.3251 -0.7111 -0.2928
13897TIP3    H163182   4.296   5.288   3.207 -3.0620 -0.6971 -3.4218
13897TIP3    H263183   4.199   5.202   3.284  0.7822 -0.7961  1.6003
13898TIP3   OH263184   5.558   3.383  14.722  0.2906  0.3072  0.0684
13898TIP3    H163185   5.547   3.463  14.670  0.9748 -1.1587 -2.4218
13898TIP3    H263186   5.488   3.387  14.788  0.8871  3.3823  0.6075
13899TIP3   OH263187   2.764   3.030  11.432 -0.3502 -0.4567 -0.0396
13899TIP3    H163188   2.711   2.962  11.473  0.0489 -1.4201 -1.1263
13899TIP3    H263189   2.834   2.983  11.387  1.1266  0.7734  0.9125
13900TIP3   OH263190   5.873   3.719   2.160  0.2092  0.0057  0.1967
13900TIP3    H163191   5.934   3.791   2.141  0.4586 -0.2029  0.2132
13900TIP3    H263192   5.928   3.643   2.176 -0.0630 -0.2440 -0.0354
13901TIP3   OH263193   1.773   4.430  14.552 -0.1172  0.2419  0.3095
13901TIP3    H163194   1.711   4.478  14.497  1.5101  0.5819 -1.2719
13901TIP3    H263195   1.857   4.437  14.506  1.9846  3.0176  4.2209
13902TIP3   OH263196   3.221   6.772   5.620  0.9359  0.1133 -0.3024
13902TIP3    H163197   3.212   6.742   5.530 -0.7253  1.3167 -0.5504
13902TIP3    H263198   3.155   6.721   5.669  1.5600 -0.2504  0.1745
13903TIP3   OH263199   1.533   1.825  11.804  0.6838 -0.3634  1.1900
13903TIP3    H163200   1.463   1.764  11.827 -0.7823  0.1005 -1.8227
13903TIP3    H263201   1.589   1.775  11.745  0.7216  0.4703  0.5167
13904TIP3   OH263202   1.830   1.044  14.138  0.1604 -0.6671  0.2229
13904TIP3    H163203   1.919   1.050  14.172  0.4269 -0.1100 -0.5750
13904TIP3    H263204   1.788   1.125  14.166 -0.0229 -0.8103  0.3688
13905TIP3   OH263205   4.083   5.712   5.517 -0.6288 -0.1647 -0.1636
13905TIP3    H163206   4.130   5.790   5.486 -0.0941 -0.3582  0.1553
13905TIP3    H263207   4.152   5.652   5.544 -1.0860  0.5603  2.8062
13906TIP3   OH263208   2.697   3.686  15.746 -0.2003  0.7117  0.0348
13906TIP3    H163209   2.778   3.641  15.771  1.5210  3.0456 -1.1994
13906TIP3    H263210   2.703   3.772  15.788 -2.7615  0.4027  1.1397
13907TIP3   OH263211   0.176   0.809   6.523 -0.0020  0.5865  0.0219
13907TIP3    H163212   0.119   0.733   6.528  0.4151  0.3510  1.3409
13907TIP3    H263213   0.119   0.881   6.495 -0.7357  0.1431  0.3763
13908TIP3   OH263214   3.362   6.496   5.449  0.1013  0.3349 -0.0927
13908TIP3    H163215   3.340   6.509   5.357 -0.1628 -0.1526 -0.0991
13908TIP3    H263216   3.357   6.401   5.461  1.5103  0.2757  0.0738
13909TIP3   OH263217   4.460   1.556  13.440 -0.0288 -0.4190  0.1976
13909TIP3    H163218   4.403   1.629  13.463 -0.3732 -0.3095 -0.9712
13909TIP3    H263219   4.510   1.538  13.520  0.1305  1.1530  0.4637
13910TIP3   OH263220   4.516   2.312   3.582  0.1110  0.1135  0.0523
13910TIP3    H163221   4.499   2.259   3.660 -0.3908  0.8577  0.4529
13910TIP3    H263222   4.560   2.390   3.615 -0.3383  0.5533 -0.3847
13911TIP3   OH263223   5.351   3.594   5.575  0.4199 -0.2717 -0.8198
13911TIP3    H163224   5.411   3.532   5.615  0.8702 -0.0477 -1.1447
13911TIP3    H263225   5.324   3.651   5.647 -0.5177 -1.2468 -0.3782
13912TIP3   OH263226   0.796   0.578   0.956  0.6313  0.1359  0.1912
13912TIP3    H163227   0.724   0.606   1.012  2.0975  1.1771  1.6031
13912TIP3    H263228   0.875   0.597   1.007  1.9338 -0.4230 -1.5643
13913TIP3   OH263229   1.835   5.512   4.501 -0.8320 -0.1544  0.3510
13913TIP3    H163230   1.928   5.520   4.521 -1.2488  1.6560  1.7522
13913TIP3    H263231   1.829   5.437   4.442  1.3954 -0.8632  0.9805
13914TIP3   OH263232   4.706   3.323   3.896  0.0737  0.1424  0.1597
13914TIP3    H163233   4.753   3.402   3.870  0.1549 -0.3476 -1.2229
13914TIP3    H263234   4.754   3.290   3.972 -0.6486  2.0401  1.4944
13915TIP3   OH263235   5.642   4.604   3.841 -0.2322  0.5141  0.2070
13915TIP3    H163236   5.582   4.630   3.910  0.3641 -0.8212  1.2480
13915TIP3    H263237   5.645   4.508   3.846  1.4203  0.5188 -0.2818
13916TIP3   OH263238   2.273   2.082  11.343 -0.4968 -0.1693  0.2411
13916TIP3    H163239   2.227   2.159  11.375 -0.3773  0.2309 -0.5434
13916TIP3    H263240   2.232   2.009  11.390 -1.9744  0.1797 -0.4435
13917TIP3   OH263241   2.373   2.434   4.707 -0.1272  0.0645  0.5290
13917TIP3    H163242   2.413   2.367   4.762 -0.3194  1.8998  2.9826
13917TIP3    H263243   2.329   2.385   4.638  1.6463 -2.2109  0.9580
13918TIP3   OH263244   0.846   4.733  16.679  0.2233 -0.2489  0.1011
13918TIP3    H163245   0.883   4.806  16.629  0.5770  0.0683  0.8266
13918TIP3    H263246   0.916   4.668  16.680  0.3077 -0.1549  0.3939
13919TIP3   OH263247   1.895   5.423   6.320 -0.7048 -0.3130  0.8940
13919TIP3    H163248   1.825   5.428   6.255 -1.0206 -1.3052  1.1605
13919TIP3    H263249   1.853   5.451   6.402 -1.2939 -2.6824  1.4422
13920TIP3   OH263250   6.649   0.099  10.591  0.4628 -0.1097 -0.6728
13920TIP3    H163251   6.638   0.129  10.500 -0.5001  1.7978  0.0453
13920TIP3    H263252   6.681   0.176  10.637 -0.7577 -0.5791  0.9740
13921TIP3   OH263253   5.662   0.592  16.759  0.6602  0.0779 -0.0031
13921TIP3    H163254   5.588   0.637  16.800  1.2427  0.9854  0.0819
13921TIP3    H263255   5.656   0.502  16.790  0.1958  0.3904  0.8309
13922TIP3   OH263256   3.970   5.202  11.425 -0.4305  0.0728  0.0272
13922TIP3    H163257   4.008   5.121  11.392  0.4447 -1.0803  3.6347
13922TIP3    H263258   4.045   5.259  11.442 -0.8907  0.7820 -0.2805
13923TIP3   OH263259   1.232   6.728  15.740 -0.4927  0.0741 -0.5510
13923TIP3    H163260   1.204   6.738  15.649  0.1337  1.2897 -0.6279
13923TIP3    H263261   1.162   6.767  15.791 -0.4026  0.2660 -0.5725
13924TIP3   OH263262   2.877   0.210   5.677  0.7795  0.6973  0.0443
13924TIP3    H163263   2.927   0.219   5.596  1.2109 -0.8759  0.1072
13924TIP3    H263264   2.937   0.165   5.737 -1.1903 -2.6671 -0.3891
13925TIP3   OH263265   5.892   1.453  11.330  0.4042 -0.5282 -0.1628
13925TIP3    H163266   5.807   1.454  11.286  0.3949  1.5434 -0.1371
13925TIP3    H263267   5.920   1.545  11.331  1.0185 -0.6948  2.9727
13926TIP3   OH263268   2.524   3.941  16.383 -0.1223 -0.0110 -0.5528
13926TIP3    H163269   2.429   3.924  16.384  0.0563 -1.0975 -0.9663
13926TIP3    H263270   2.551   3.933  16.474  0.1739 -3.3823 -0.8799
13927TIP3   OH263271   5.813   4.973  15.207 -0.1676  0.0782 -0.5085
13927TIP3    H163272   5.829   5.064  15.181  0.1489  0.0629 -0.3661
13927TIP3    H263273   5.827   4.972  15.301 -0.0536 -0.1442 -0.5270
13928TIP3   OH263274   6.622   5.653  14.917 -0.4468 -0.0480 -0.2505
13928TIP3    H163275   6.709   5.658  14.955 -0.3498 -0.4772 -0.4125
13928TIP3    H263276   6.612   5.561  14.892 -0.9741 -0.0193 -0.1589
13929TIP3   OH263277   5.973   2.000   2.309  0.0708  0.2239 -0.4433
13929TIP3    H163278   6.010   2.085   2.330 -0.9071  0.1486  1.6417
13929TIP3    H263279   5.896   1.992   2.365 -0.8143 -1.3180 -1.8328
13930TIP3   OH263280   1.437   1.987   0.724 -0.0658 -0.0761 -0.0793
13930TIP3    H163281   1.437   2.037   0.643  0.3418 -0.4788 -0.3266
13930TIP3    H263282   1.351   2.004   0.762 -1.0226 -1.4671 -1.5638
13931TIP3   OH263283   2.092   6.615  15.762  0.0060  0.2145  0.0608
13931TIP3    H163284   2.092   6.697  15.811  1.2764  0.6957 -0.7184
13931TIP3    H263285   2.180   6.580  15.773 -0.6393 -1.2751  0.7209
13932TIP3   OH263286   1.856   1.373  11.758 -0.3500 -0.2012 -0.2885
13932TIP3    H163287   1.856   1.389  11.664 -2.5052  0.3326 -0.2166
13932TIP3    H263288   1.937   1.325  11.774 -0.8036 -1.8599 -2.6774
13933TIP3   OH263289   0.089   2.924   1.358  0.4598  0.1990  0.1381
13933TIP3    H163290   0.143   2.982   1.411  1.8751 -0.8634 -0.1036
13933TIP3    H263291   0.001   2.963   1.361  1.1102  1.6366  1.0023
13934TIP3   OH263292   5.950   0.333   3.774  0.0535 -0.2450 -0.3098
13934TIP3    H163293   5.931   0.252   3.727  1.6406 -1.7369  1.5728
13934TIP3    H263294   5.868   0.355   3.818  0.1509 -1.8341  0.6694
13935TIP3   OH263295   5.207   0.770   5.735 -0.3433 -0.4121  0.7437
13935TIP3    H163296   5.224   0.716   5.812  2.1059  0.7052  1.0448
13935TIP3    H263297   5.173   0.852   5.770  0.5368  0.0052  0.6495
13936TIP3   OH263298   6.715   6.725  15.641  0.3374 -0.2063  0.1712
13936TIP3    H163299   6.705   6.817  15.617 -1.0499 -0.5922 -0.8427
13936TIP3    H263300   6.789   6.695  15.589  2.9048  1.1087  2.9303
13937TIP3   OH263301   3.230   4.085  13.079  0.2636 -0.1825  0.0556
13937TIP3    H163302   3.244   4.012  13.140 -1.1050 -1.3121 -0.9407
13937TIP3    H263303   3.187   4.152  13.132 -0.8487 -1.1267  0.3876
13938TIP3   OH263304   1.751   5.738  11.343  0.7801  0.0979  0.1885
13938TIP3    H163305   1.688   5.735  11.270  1.3321  0.8119 -0.3183
13938TIP3    H263306   1.819   5.676  11.318  0.5623 -0.2585  0.4773
13939TIP3   OH263307   1.928   5.629  14.410  0.0083  0.2634  0.1315
13939TIP3    H163308   1.880   5.696  14.458 -0.7806 -0.1984  0.0011
13939TIP3    H263309   1.943   5.667  14.323  1.1745  0.9812  0.6433
13940TIP3   OH263310   0.592   6.124   5.172  0.1159  0.5327 -0.0207
13940TIP3    H163311   0.598   6.116   5.077  2.3790  0.8331  0.0821
13940TIP3    H263312   0.586   6.034   5.204 -0.9764  0.4426 -0.4418
13941TIP3   OH263313   2.458   6.105  11.770  0.6417 -0.1819 -0.2753
13941TIP3    H163314   2.506   6.023  11.759  1.2260  0.3567 -1.8382
13941TIP3    H263315   2.446   6.138  11.681  1.9781  2.3166  0.4447
13942TIP3   OH263316   4.590   0.584   0.635  0.1835 -0.1700 -0.2086
13942TIP3    H163317   4.550   0.528   0.702 -0.8936  0.6636 -0.1338
13942TIP3    H263318   4.684   0.571   0.647  0.0458  0.4734  1.9411
13943TIP3   OH263319   1.750   3.036  12.261 -0.9309  0.7249  0.3874
13943TIP3    H163320   1.829   2.985  12.277 -0.7282  1.1984  0.8896
13943TIP3    H263321   1.730   3.020  12.168 -0.7726 -0.1173  0.4912
13944TIP3   OH263322   6.169   2.818  14.744  0.0293  0.3478  0.3131
13944TIP3    H163323   6.167   2.735  14.792  0.0000  0.8835  1.2642
13944TIP3    H263324   6.192   2.883  14.810 -0.9085  1.2332 -0.2043
13945TIP3   OH263325   6.517   2.419  12.737  0.5202 -0.0470 -0.1847
13945TIP3    H163326   6.519   2.515  12.739 -0.3554 -0.0461  2.2853
13945TIP3    H263327   6.602   2.394  12.701  1.4551  1.6343  0.8050
13946TIP3   OH263328   3.800   3.028   0.561  0.2892 -0.2851 -0.1818
13946TIP3    H163329   3.771   2.951   0.512  1.0521 -1.1088  0.6600
13946TIP3    H263330   3.831   2.994   0.644 -0.0277  1.0110  0.4840
13947TIP3   OH263331   0.275   5.056   1.022 -0.0645  0.0256 -0.3412
13947TIP3    H163332   0.307   5.142   0.994  0.5941 -0.5224 -1.3198
13947TIP3    H263333   0.225   5.024   0.947  0.8612 -1.0358 -0.5121
13948TIP3   OH263334   5.760   0.454   3.987  0.4585 -0.3776 -0.0653
13948TIP3    H163335   5.777   0.383   4.049  2.4197 -0.0602 -0.2111
13948TIP3    H263336   5.718   0.523   4.039 -1.8240 -1.7415 -0.0022
13949TIP3   OH263337   3.611   0.642  13.523  0.2593 -0.1073 -0.8109
13949TIP3    H163338   3.595   0.622  13.616  0.2337 -0.9673 -1.0000
13949TIP3    H263339   3.529   0.620  13.479  0.5116 -0.3915 -1.1433
13950TIP3   OH263340   3.278   0.991  13.779 -0.0751  0.1980  0.2851
13950TIP3    H163341   3.282   0.895  13.781  0.7084  0.2510  2.0083
13950TIP3    H263342   3.302   1.018  13.868 -0.5791  1.9879 -0.1011
13951TIP3   OH263343   5.634   2.771  11.463  0.4577  0.5227  0.0993
13951TIP3    H163344   5.638   2.798  11.554  1.3747 -1.9133  0.8238
13951TIP3    H263345   5.699   2.826  11.419  0.1361  1.5863  0.9405
13952TIP3   OH263346   0.757   0.092  11.170 -0.4748 -0.3319 -0.5298
13952TIP3    H163347   0.678   0.080  11.116  1.3626  1.7051 -3.7668
13952TIP3    H263348   0.820   0.030  11.133  0.5737  0.5775 -0.2701
13953TIP3   OH263349   0.385   5.069  13.565  0.6346 -0.0593  0.3379
13953TIP3    H163350   0.311   5.009  13.557  1.2470 -0.8640  0.6912
13953TIP3    H263351   0.391   5.087  13.659  0.7621  0.1825  0.2834
13954TIP3   OH263352   2.716   2.994   3.395 -0.7170  0.8205 -0.5032
13954TIP3    H163353   2.687   3.037   3.315  1.6805  3.4383 -0.0778
13954TIP3    H263354   2.805   2.964   3.375 -1.4287 -1.7105  0.0526
13955TIP3   OH263355   6.459   5.345  16.126  0.2390  0.3231  0.4640
13955TIP3    H163356   6.546   5.322  16.092  0.4218 -0.9927  1.8041
13955TIP3    H263357   6.407   5.363  16.048  1.4057  0.0364 -0.3960
13956TIP3   OH263358   2.026   2.990   5.870  0.4972 -0.1045  0.6030
13956TIP3    H163359   1.944   2.965   5.913 -0.5682  0.7721 -0.8804
13956TIP3    H263360   2.041   3.080   5.898  0.3877  0.0938  0.0273
13957TIP3   OH263361   4.584   3.470   1.023 -0.2843  0.0059 -0.2757
13957TIP3    H163362   4.538   3.439   0.945  0.0661  0.0435 -0.5006
13957TIP3    H263363   4.541   3.426   1.096 -0.6980  0.0677 -0.4786
13958TIP3   OH263364   6.035   5.231   1.992 -0.4069  0.1872 -0.7520
13958TIP3    H163365   6.120   5.236   2.036 -1.6406  0.3820  1.7064
13958TIP3    H263366   6.051   5.180   1.913  1.4497 -2.0970  1.0449
13959TIP3   OH263367   0.721   2.996   5.676  0.1704 -0.0044  0.3285
13959TIP3    H163368   0.782   3.011   5.604 -0.0323 -1.5693 -0.1987
13959TIP3    H263369   0.763   2.929   5.730 -1.5877 -2.0522 -0.7320
13960TIP3   OH263370   1.193   6.458  15.910 -0.1435 -0.6579  0.4900
13960TIP3    H163371   1.104   6.432  15.933 -0.1617  0.2013  1.4531
13960TIP3    H263372   1.182   6.531  15.848 -0.1262  0.1711  1.4498
13961TIP3   OH263373   2.635   0.230  15.612  0.4900  0.2704 -0.2692
13961TIP3    H163374   2.571   0.281  15.561 -0.4829  1.8409  2.3723
13961TIP3    H263375   2.713   0.285  15.613  1.1578 -0.6431 -1.6585
13962TIP3   OH263376   0.372   5.989   2.863  0.2051  0.0926  0.0006
13962TIP3    H163377   0.323   5.990   2.780  0.7733  0.1116 -0.3426
13962TIP3    H263378   0.394   6.081   2.878  1.1375 -0.0463 -0.4594
13963TIP3   OH263379   2.964   6.596  15.515  0.0961 -0.2882 -0.1617
13963TIP3    H163380   2.987   6.686  15.491  1.2019 -0.0643  1.5910
13963TIP3    H263381   2.895   6.571  15.454  0.1255  1.5749 -0.9869
13964TIP3   OH263382   6.033   4.094  12.269 -0.2813  0.3886 -0.2120
13964TIP3    H163383   6.060   4.180  12.301  0.9594 -0.4800  1.1995
13964TIP3    H263384   6.097   4.071  12.202  0.9540 -0.5252  1.2471
13965TIP3   OH263385   3.785   3.149   3.844  0.0303 -0.4267 -0.6921
13965TIP3    H163386   3.784   3.210   3.918  1.2387 -0.1586 -0.8841
13965TIP3    H263387   3.878   3.128   3.832 -0.3298 -1.8691 -0.9873
13966TIP3   OH263388   4.586   1.343  15.897  0.0126 -0.1207 -0.0794
13966TIP3    H163389   4.542   1.338  15.812  0.9859 -0.7257 -0.5611
13966TIP3    H263390   4.678   1.357  15.875  0.2000  0.2181  0.8922
13967TIP3   OH263391   0.489   2.916   0.632 -0.0727 -0.0537  0.4152
13967TIP3    H163392   0.417   2.950   0.580 -0.5647  0.4177  1.4087
13967TIP3    H263393   0.547   2.874   0.568 -0.2661  1.2325 -0.6130
13968TIP3   OH263394   2.354   2.256   0.966 -0.4049 -0.1280 -0.7949
13968TIP3    H163395   2.340   2.224   1.055  2.1103  1.0865  0.0895
13968TIP3    H263396   2.276   2.228   0.918 -1.6155 -1.1672  1.6717
13969TIP3   OH263397   3.048   0.980   3.733 -0.0834  0.5914 -0.2679
13969TIP3    H163398   2.968   0.975   3.785 -0.0828  0.0535 -0.3135
13969TIP3    H263399   3.087   1.065   3.756  0.1386  0.1728  0.9533
13970TIP3   OH263400   1.760   3.288  14.579  0.0406  0.0883  0.1441
13970TIP3    H163401   1.836   3.339  14.606  1.3994 -0.7932 -1.8820
13970TIP3    H263402   1.776   3.200  14.613 -1.8909  0.7389  2.8955
13971TIP3   OH263403   1.458   2.826   5.376  0.6523 -0.0978  0.2541
13971TIP3    H163404   1.537   2.811   5.324  1.5892 -2.4199  2.2598
13971TIP3    H263405   1.485   2.887   5.444 -0.1438  1.6111 -0.9185
13972TIP3   OH263406   3.120   2.534   5.578  0.6318  0.2834 -0.2559
13972TIP3    H163407   3.075   2.613   5.546  0.7835  0.5275  0.1371
13972TIP3    H263408   3.064   2.500   5.647  1.4419  1.0402  0.7912
13973TIP3   OH263409   2.013   4.290  15.766 -0.0374  0.0582 -0.1159
13973TIP3    H163410   2.053   4.296  15.680  1.5708 -3.0196  0.3387
13973TIP3    H263411   2.072   4.337  15.824  0.2998 -0.1557 -0.2826
13974TIP3   OH263412   3.445   5.531  11.964  0.1217  0.1235 -0.2234
13974TIP3    H163413   3.363   5.580  11.960 -0.0409 -0.1304  0.0772
13974TIP3    H263414   3.508   5.592  12.003 -0.0609  0.1193  0.0741
13975TIP3   OH263415   6.552   4.476   1.621 -0.4874 -0.4631 -0.2303
13975TIP3    H163416   6.550   4.422   1.700 -1.5322 -0.6742 -0.3866
13975TIP3    H263417   6.612   4.430   1.563  3.7754  1.9908  2.0058
13976TIP3   OH263418   2.879   6.546   3.522 -0.3073 -0.6413 -0.6177
13976TIP3    H163419   2.869   6.533   3.428  0.9999  0.7087 -0.9695
13976TIP3    H263420   2.821   6.620   3.542 -1.6711 -1.8439 -0.0948
13977TIP3   OH263421   0.321   0.768   1.477 -0.3432 -0.0505  0.4739
13977TIP3    H163422   0.269   0.758   1.557  0.4805  0.2858  1.0642
13977TIP3    H263423   0.377   0.690   1.475 -0.6793 -0.2765 -0.0087
13978TIP3   OH263424   4.920   4.575  11.509 -0.6441  0.2386  0.1431
13978TIP3    H163425   4.845   4.592  11.566  0.1001 -1.8949  1.8357
13978TIP3    H263426   4.927   4.479  11.507  1.9332  0.3977 -0.1047
13979TIP3   OH263427   0.576   0.712   6.370 -0.8090 -0.0190  0.0508
13979TIP3    H163428   0.531   0.732   6.452 -1.2621 -0.4756 -0.0850
13979TIP3    H263429   0.653   0.661   6.397 -2.1149 -2.0422  0.0246
13980TIP3   OH263430   3.842   4.354  15.947 -0.5164  1.0110 -0.2906
13980TIP3    H163431   3.838   4.435  15.998 -3.7818  0.1382  0.9772
13980TIP3    H263432   3.757   4.348  15.904 -0.0030 -1.2877 -1.0889
13981TIP3   OH263433   1.039   1.071  12.761 -0.9934  0.3995 -0.3300
13981TIP3    H163434   1.028   0.984  12.723  0.5570  0.0111  0.0454
13981TIP3    H263435   1.013   1.131  12.692 -3.1527 -0.3624 -0.2112
13982TIP3   OH263436   1.492   3.865  12.336  0.0007  0.2051 -0.0276
13982TIP3    H163437   1.423   3.832  12.393 -0.6478  0.7510 -0.4944
13982TIP3    H263438   1.483   3.960  12.340 -0.2564  0.2366 -1.3033
13983TIP3   OH263439   6.337   4.600   3.283  0.3977  0.3889  0.2352
13983TIP3    H163440   6.369   4.524   3.234  1.8342 -0.0699  1.8811
13983TIP3    H263441   6.259   4.567   3.329 -0.1179  0.4436 -0.5819
13984TIP3   OH263442   2.574   3.754   4.298  0.6447 -0.1576  0.5527
13984TIP3    H163443   2.586   3.843   4.331  0.3130  0.0393  0.1469
13984TIP3    H263444   2.631   3.700   4.353  1.2522  0.3788  0.4612
13985TIP3   OH263445   3.480   2.152  16.885  0.3835 -0.0709  0.1733
13985TIP3    H163446   3.396   2.166  16.841 -0.2260 -1.0354  1.0022
13985TIP3    H263447   3.514   2.240  16.899  0.1682  0.2768 -1.4170
13986TIP3   OH263448   4.129   3.917   5.519 -0.0364 -0.6496 -0.4187
13986TIP3    H163449   4.059   3.935   5.582 -0.7923 -2.0838 -0.8266
13986TIP3    H263450   4.088   3.926   5.434  0.6834  0.0939 -0.6881
13987TIP3   OH263451   6.245   1.652   4.492  0.0406 -0.3509  0.4221
13987TIP3    H163452   6.203   1.738   4.502 -0.0512 -0.3350 -0.0726
13987TIP3    H263453   6.187   1.604   4.433  2.3144  0.7954 -2.9214
13988TIP3   OH263454   5.521   4.039  17.204  0.1587  0.6910 -0.3044
13988TIP3    H163455   5.524   3.945  17.217  0.5113  0.8217  0.6065
13988TIP3    H263456   5.557   4.053  17.117  3.5865  0.2677  0.9553
13989TIP3   OH263457   6.711   0.189   4.771 -0.1897  0.2344 -0.1499
13989TIP3    H163458   6.802   0.216   4.756  0.3703 -1.1886  0.5749
13989TIP3    H263459   6.659   0.252   4.721  1.1162  1.8690  0.5090
13990TIP3   OH263460   5.433   6.101   0.268  0.1159 -0.3739  0.5428
13990TIP3    H163461   5.518   6.145   0.268  0.6489 -1.3795 -0.2622
13990TIP3    H263462   5.395   6.122   0.354  0.8245  0.7372  0.5938
13991TIP3   OH263463   4.854   2.208   4.445  0.1950 -0.2428  0.4346
13991TIP3    H163464   4.815   2.139   4.499  1.0393  0.4954  2.0517
13991TIP3    H263465   4.782   2.271   4.431 -0.5385 -1.3663 -0.9382
13992TIP3   OH263466   2.706   1.836   4.540  0.3906  0.4661 -0.3864
13992TIP3    H163467   2.707   1.904   4.473 -2.0273 -0.0645 -1.0198
13992TIP3    H263468   2.626   1.786   4.522 -0.0817  0.0274  2.5865
13993TIP3   OH263469   5.204   3.253   5.788 -0.0597  0.0625  0.4185
13993TIP3    H163470   5.111   3.252   5.812  0.0576 -2.7227  0.8769
13993TIP3    H263471   5.250   3.248   5.871  0.5659  2.5062  0.2592
13994TIP3   OH263472   5.530   0.920   4.419 -0.0762 -0.3597 -0.3612
13994TIP3    H163473   5.601   0.982   4.400 -0.0116 -0.6353 -1.0365
13994TIP3    H263474   5.494   0.950   4.502  1.1895 -0.5352  0.2708
13995TIP3   OH263475   0.488   6.337  12.151 -0.0569  0.2609 -0.2133
13995TIP3    H163476   0.508   6.430  12.161 -0.3937  0.3748 -0.5743
13995TIP3    H263477   0.486   6.303  12.241  0.8025  0.4430 -0.1249
13996TIP3   OH263478   2.702   1.910   2.445  0.4081  0.2568  0.0924
13996TIP3    H163479   2.753   1.876   2.519 -0.6636 -2.0532 -0.1880
13996TIP3    H263480   2.755   1.887   2.368  0.8885  1.4951  0.0407
13997TIP3   OH263481   4.682   3.058   5.597 -0.4956 -0.4896  0.4837
13997TIP3    H163482   4.732   3.086   5.521  1.8268 -0.4412  1.9969
13997TIP3    H263483   4.662   2.966   5.580 -1.3927 -0.0559 -0.9023
13998TIP3   OH263484   1.441   5.977  15.409  0.3322  0.1705 -0.1612
13998TIP3    H163485   1.492   6.022  15.477  1.0457  1.3571 -1.4705
13998TIP3    H263486   1.498   5.908  15.378 -0.5791 -1.3725  1.5031
13999TIP3   OH263487   0.407   2.437   4.377  0.0664 -0.1359 -0.1815
13999TIP3    H163488   0.476   2.377   4.405  0.3642 -0.5730 -1.8059
13999TIP3    H263489   0.439   2.474   4.295  0.4695  3.2676  1.4394
14000TIP3   OH263490   1.617   1.509  14.542 -0.0876  0.4692 -0.1742
14000TIP3    H163491   1.692   1.511  14.601  0.2464  0.5139 -0.6004
14000TIP3    H263492   1.584   1.599  14.542 -1.1382  0.1045  1.2832
14001TIP3   OH263493   3.028   1.901  17.134  0.0956  0.1761  0.7125
14001TIP3    H163494   2.953   1.852  17.169 -0.7245  2.1364  1.8136
14001TIP3    H263495   3.039   1.973  17.196  1.0373  1.5758 -1.0650
14002TIP3   OH263496   4.410   6.762  15.608  0.7759  0.2394 -0.1498
14002TIP3    H163497   4.341   6.817  15.572  0.1617 -1.1001 -1.0500
14002TIP3    H263498   4.443   6.811  15.683 -0.9363  1.0368  0.1028
14003TIP3   OH263499   2.213   1.226   0.780 -0.0469 -0.3402 -0.1109
14003TIP3    H163500   2.195   1.197   0.870  0.3213 -0.5730 -0.1119
14003TIP3    H263501   2.180   1.316   0.777 -1.4493 -0.8467 -0.1904
14004TIP3   OH263502   4.878   6.649  11.040  0.3551 -0.4144 -0.4456
14004TIP3    H163503   4.928   6.584  10.991  0.8954  0.1549 -0.6423
14004TIP3    H263504   4.804   6.671  10.983 -0.9273 -2.3025  0.4192
14005TIP3   OH263505   5.539   5.098  13.281  0.1211  0.1126 -0.2347
14005TIP3    H163506   5.503   5.140  13.203  3.1136 -0.8767 -2.2505
14005TIP3    H263507   5.499   5.011  13.282 -0.1785  0.2453 -0.4605
14006TIP3   OH263508   5.033   4.405   1.462 -0.1234  0.0530  0.5058
14006TIP3    H163509   4.957   4.429   1.515 -0.6025  0.0350 -0.1685
14006TIP3    H263510   5.098   4.472   1.481 -0.3919  0.1969  0.9154
14007TIP3   OH263511   0.437   6.655  10.635  0.0902  0.3221  0.1900
14007TIP3    H163512   0.494   6.663  10.711  1.1581  0.8758 -0.6621
14007TIP3    H263513   0.448   6.737  10.588 -0.8561  0.1375 -0.3731
14008TIP3   OH263514   6.305   0.364   4.980 -0.4315 -0.5101  0.6008
14008TIP3    H163515   6.250   0.307   5.034 -0.8806 -0.2676  0.3958
14008TIP3    H263516   6.275   0.349   4.890  0.3175 -0.9125  0.4115
14009TIP3   OH263517   4.434   5.519  10.372 -0.7760 -0.4555 -0.0190
14009TIP3    H163518   4.456   5.432  10.406 -1.7226 -1.5344 -2.1196
14009TIP3    H263519   4.370   5.503  10.303  0.2301  1.7981 -1.5227
14010TIP3   OH263520   5.172   0.538  13.252  0.6888  0.4320 -0.2254
14010TIP3    H163521   5.164   0.565  13.344  0.0395  0.5209 -0.3083
14010TIP3    H263522   5.151   0.617  13.202  0.4884  0.2330 -0.4543
14011TIP3   OH263523   3.151   5.428  13.835 -0.2708 -0.1743  0.0444
14011TIP3    H163524   3.116   5.370  13.903  0.8149 -0.5272  0.3158
14011TIP3    H263525   3.167   5.511  13.880  1.2171 -0.6507  0.4373
14012TIP3   OH263526   5.929   0.650  17.162  0.1383  0.4683  0.4459
14012TIP3    H163527   6.010   0.646  17.111  0.4754  0.0818  0.9970
14012TIP3    H263528   5.912   0.743  17.172  1.2408  0.5741  1.4432
14013TIP3   OH263529   6.213   5.899   0.506 -0.6295  0.1808  0.1509
14013TIP3    H163530   6.297   5.940   0.527 -0.4135  0.5740 -1.4076
14013TIP3    H263531   6.181   5.865   0.589  1.4375 -0.6459  0.6279
14014TIP3   OH263532   6.185   0.290   5.859 -0.4855  0.2887 -0.2640
14014TIP3    H163533   6.265   0.297   5.910 -0.7847 -1.4816  0.4674
14014TIP3    H263534   6.138   0.217   5.898 -2.8939  1.8788 -0.1106
14015TIP3   OH263535   4.009   0.455  12.058  0.7671 -0.4914  0.6119
14015TIP3    H163536   3.951   0.527  12.033  1.3171 -0.1104  0.4420
14015TIP3    H263537   3.949   0.388  12.092  0.2035 -0.1873  0.2353
14016TIP3   OH263538   0.148   6.669   0.561 -0.3267  0.5616 -0.1948
14016TIP3    H163539   0.148   6.715   0.477  1.5057  0.1002 -0.4786
14016TIP3    H263540   0.211   6.718   0.614 -1.6435  0.9798  0.9965
14017TIP3   OH263541   5.107   5.449  14.000 -0.1315 -0.6893  0.0852
14017TIP3    H163542   5.061   5.453  14.084 -0.3901  1.4062 -0.1335
14017TIP3    H263543   5.172   5.519  14.005  0.8754 -1.5386 -0.8703
14018TIP3   OH263544   4.131   6.199  15.347 -0.5459 -0.5851 -0.3932
14018TIP3    H163545   4.078   6.203  15.267  1.1762  0.5302 -1.5049
14018TIP3    H263546   4.220   6.186  15.317  0.0292 -0.9901  1.4029
14019TIP3   OH263547   3.822   6.064  14.470 -0.4869 -0.0377 -0.4872
14019TIP3    H163548   3.777   6.030  14.392 -0.6263  0.1123 -0.4733
14019TIP3    H263549   3.781   6.149  14.485  1.3574  1.1222 -1.8089
14020TIP3   OH263550   3.317   2.792   2.171  0.4151 -0.4288 -0.2919
14020TIP3    H163551   3.278   2.721   2.121 -0.3537 -1.0251  1.1430
14020TIP3    H263552   3.392   2.753   2.215  1.2917  0.1766 -1.2095
14021TIP3   OH263553   5.656   2.240   0.666  0.3970  0.2982 -0.0956
14021TIP3    H163554   5.672   2.198   0.750  0.5334  1.8035  0.6566
14021TIP3    H263555   5.715   2.196   0.605  0.5729 -0.5426  0.6817
14022TIP3   OH263556   5.426   4.169  12.323  0.0955  0.4327  0.2307
14022TIP3    H163557   5.501   4.228  12.318 -0.0774  0.7500  1.4233
14022TIP3    H263558   5.439   4.119  12.404 -0.5649 -0.0797  0.0330
14023TIP3   OH263559   5.152   5.751   3.588  0.3787 -0.1363  0.1043
14023TIP3    H163560   5.238   5.720   3.559  1.1343  1.0292  1.0080
14023TIP3    H263561   5.139   5.833   3.539  0.2717  0.2370  0.7539
14024TIP3   OH263562   5.486   6.734   4.747 -0.2882  0.4298 -0.0808
14024TIP3    H163563   5.501   6.760   4.656 -0.1396  0.0736 -0.1621
14024TIP3    H263564   5.571   6.743   4.789 -0.5542  1.4273  0.2370
14025TIP3   OH263565   0.779   6.798   6.421 -0.4326  0.2808 -0.7815
14025TIP3    H163566   0.690   6.832   6.415 -0.0954  1.2795 -0.4066
14025TIP3    H263567   0.785   6.763   6.510 -1.5843 -3.1739 -2.0071
14026TIP3   OH263568   3.109   0.274  15.727  0.3445 -0.0261  0.2162
14026TIP3    H163569   3.148   0.277  15.814  0.0438 -0.0796  0.3546
14026TIP3    H263570   3.023   0.315  15.738  1.4055  2.4939 -0.6671
14027TIP3   OH263571   3.267   1.569   0.989  0.4055 -0.2991  0.0366
14027TIP3    H163572   3.312   1.582   0.906 -1.6668  0.4909 -1.0093
14027TIP3    H263573   3.273   1.475   1.006  0.9271 -0.4454 -0.9736
14028TIP3   OH263574   0.068   1.243  10.585  0.0189 -0.3413 -0.2391
14028TIP3    H163575   0.028   1.158  10.567  0.2437 -0.7427  1.1079
14028TIP3    H263576   0.160   1.232  10.560 -0.1106 -0.2606 -0.7592
14029TIP3   OH263577   5.101   3.948  13.917 -0.0500 -0.0511 -0.7543
14029TIP3    H163578   5.041   3.920  13.848 -0.5977  1.1105 -0.7555
14029TIP3    H263579   5.068   4.033  13.945  0.5116 -0.2374  0.5359
14030TIP3   OH263580   6.046   3.130   3.105 -0.1948  0.1098 -0.1187
14030TIP3    H163581   6.064   3.042   3.072  0.6368  0.2783 -0.1265
14030TIP3    H263582   6.133   3.169   3.118 -0.5688  1.3025 -1.1267
14031TIP3   OH263583   1.151   3.154  11.653  0.3973 -0.0089  0.1514
14031TIP3    H163584   1.077   3.181  11.707 -0.7822 -0.5292 -1.1835
14031TIP3    H263585   1.162   3.225  11.590  1.0560  0.0608  0.3292
14032TIP3   OH263586   4.149   2.229   6.185  0.2599  0.0639 -0.0093
14032TIP3    H163587   4.147   2.154   6.244 -1.0088  0.5079  0.5318
14032TIP3    H263588   4.189   2.299   6.237  1.8815 -0.3648 -0.6723
14033TIP3   OH263589   6.419   1.924   2.267 -0.1785  0.4445 -0.0788
14033TIP3    H163590   6.332   1.895   2.238 -0.0075  0.0870 -0.2489
14033TIP3    H263591   6.403   2.001   2.321 -0.7011 -0.3243  0.8851
14034TIP3   OH263592   3.796   5.784   5.686 -0.1150 -0.1004 -0.0669
14034TIP3    H163593   3.859   5.714   5.707  0.6356  0.5464 -0.1131
14034TIP3    H263594   3.832   5.825   5.607  0.8476  1.9781  1.4126
14035TIP3   OH263595   1.103   1.529  13.552 -0.1311  0.2306  0.0725
14035TIP3    H163596   1.124   1.471  13.625  1.2786  0.9428  0.2589
14035TIP3    H263597   1.182   1.583  13.541 -0.5978  0.6174 -1.5033
14036TIP3   OH263598   1.163   3.835   1.459  0.2586  0.1607  0.1055
14036TIP3    H163599   1.239   3.821   1.516 -0.8008  1.0782  1.7989
14036TIP3    H263600   1.187   3.911   1.406 -0.2976  1.8452  2.1833
14037TIP3   OH263601   3.678   2.098   5.354  0.0604  0.3702  0.1171
14037TIP3    H163602   3.607   2.088   5.418  1.4575  0.4378  1.7303
14037TIP3    H263603   3.656   2.037   5.284 -0.3017 -1.5239  1.7997
14038TIP3   OH263604   2.437   3.551   6.497  0.2915  0.0505  0.5829
14038TIP3    H163605   2.360   3.504   6.528  0.4899  0.0026  1.0083
14038TIP3    H263606   2.501   3.543   6.568  1.3974 -1.6022 -0.5766
14039TIP3   OH263607   1.499   4.179  11.112  0.5951 -0.1515 -0.1635
14039TIP3    H163608   1.477   4.096  11.155 -0.0754 -1.1689 -2.3684
14039TIP3    H263609   1.418   4.205  11.068  1.1825  0.9896 -0.5754
14040TIP3   OH263610   5.047   6.507  10.814 -0.3387 -0.4427  0.1285
14040TIP3    H163611   4.993   6.479  10.741  0.5046 -2.2701  0.1631
14040TIP3    H263612   5.123   6.548  10.773 -1.0148  0.7198  0.0408
14041TIP3   OH263613   1.626   5.420   0.180  0.3168 -0.2425 -0.3174
14041TIP3    H163614   1.670   5.475   0.245  2.1653 -3.3157  1.1301
14041TIP3    H263615   1.685   5.421   0.105  1.0730 -1.3872  0.2504
14042TIP3   OH263616   3.327   3.872  15.460  0.0096  0.5667 -0.6417
14042TIP3    H163617   3.367   3.861  15.546  0.2495  1.1399 -0.6758
14042TIP3    H263618   3.238   3.901  15.478  0.3859  1.7241 -0.5938
14043TIP3   OH263619   3.021   1.984   2.628 -0.1222 -0.3006 -0.0481
14043TIP3    H163620   2.951   1.938   2.674 -0.6685  1.6724  1.1745
14043TIP3    H263621   3.033   2.065   2.677  2.6948 -0.3657 -0.5338
14044TIP3   OH263622   4.485   1.518  11.567  0.4850  0.7433 -0.3744
14044TIP3    H163623   4.412   1.461  11.545  0.4284  1.4917 -2.1982
14044TIP3    H263624   4.562   1.460  11.565  0.2672  0.4721 -0.9331
14045TIP3   OH263625   3.135   0.059   0.182 -0.3171 -0.0119 -0.7450
14045TIP3    H163626   3.229   0.041   0.187 -0.2727  0.2730 -0.5925
14045TIP3    H263627   3.115   0.057   0.088 -0.1617 -0.0761 -0.7764
14046TIP3   OH263628   3.351   3.821  11.646  0.1878  0.1173  0.5239
14046TIP3    H163629   3.266   3.852  11.613  0.1584 -1.3025 -0.8364
14046TIP3    H263630   3.329   3.766  11.721 -0.0001  0.7521  0.9352
14047TIP3   OH263631   6.136   3.206   4.148 -0.0994  1.0025  0.2095
14047TIP3    H163632   6.073   3.217   4.076  0.1405  1.2202  0.0319
14047TIP3    H263633   6.099   3.135   4.201 -0.5645  1.2140  0.1775
14048TIP3   OH263634   0.801   2.883  14.701  0.3774  0.4334 -0.3917
14048TIP3    H163635   0.730   2.938  14.736 -0.3666  0.8263 -2.4123
14048TIP3    H263636   0.802   2.903  14.608  1.9190 -0.9930 -0.7018
14049TIP3   OH263637   5.878   2.036   3.902 -0.1292 -0.3251  0.3902
14049TIP3    H163638   5.865   2.067   3.992  1.2523  0.7257  0.2269
14049TIP3    H263639   5.956   2.081   3.871  0.5376 -2.1495 -0.6763
14050TIP3   OH263640   3.195   1.328  13.162 -0.5936 -0.4496  0.0517
14050TIP3    H163641   3.123   1.283  13.118 -1.0681  0.0571  0.3129
14050TIP3    H263642   3.189   1.298  13.253  1.6355 -3.1057 -0.6136
14051TIP3   OH263643   3.011   4.714  16.031  0.5442 -0.7912  0.3766
14051TIP3    H163644   2.947   4.647  16.007 -0.0217  0.0989 -0.6641
14051TIP3    H263645   3.086   4.698  15.973 -0.1977  0.3917 -0.9427
14052TIP3   OH263646   2.688   2.837   1.349  0.4059  0.5208  0.0265
14052TIP3    H163647   2.625   2.803   1.413 -0.4821  2.4055  0.1695
14052TIP3    H263648   2.738   2.903   1.396 -0.2403  1.9043 -1.1923
14053TIP3   OH263649   5.625   3.663  11.709  0.1384 -0.1426 -0.1378
14053TIP3    H163650   5.687   3.612  11.761 -0.2731  0.3230  0.8162
14053TIP3    H263651   5.540   3.621  11.725 -0.4362  1.6719  1.7847
14054TIP3   OH263652   1.733   2.307   4.883  0.2548  0.0275 -0.3440
14054TIP3    H163653   1.813   2.276   4.925 -0.3347 -0.2758  0.5854
14054TIP3    H263654   1.736   2.270   4.795  2.0617  1.6125 -0.9869
14055TIP3   OH263655   3.879   2.183   1.339  0.3967  0.6103 -0.2691
14055TIP3    H163656   3.859   2.260   1.392  0.3158  0.1345  0.4038
14055TIP3    H263657   3.971   2.165   1.358 -0.2633 -1.0031  1.6234
14056TIP3   OH263658   5.653   0.342   1.801 -0.0894  0.0444 -0.0092
14056TIP3    H163659   5.664   0.253   1.768 -0.2295 -0.1381  0.4305
14056TIP3    H263660   5.700   0.397   1.738 -1.8379 -0.1122 -1.4675
14057TIP3   OH263661   0.188   2.526  13.262 -0.0398  0.0125 -0.0715
14057TIP3    H163662   0.171   2.615  13.292 -0.3410 -0.2471  0.5388
14057TIP3    H263663   0.276   2.506  13.293  0.6036  0.6176 -1.4686
14058TIP3   OH263664   0.932   1.159   5.739 -0.0370  0.0599 -0.0684
14058TIP3    H163665   0.894   1.080   5.702 -0.4205  0.6180 -0.8972
14058TIP3    H263666   0.961   1.210   5.662  1.9195 -0.1245  0.5048
14059TIP3   OH263667   3.409   5.538   0.718 -0.3170  0.5602  0.0423
14059TIP3    H163668   3.406   5.470   0.651 -0.7949  1.5049 -0.8949
14059TIP3    H263669   3.342   5.511   0.782 -2.1728  1.3762 -1.5116
14060TIP3   OH263670   1.913   4.302   3.543 -0.4822  0.0548 -0.1005
14060TIP3    H163671   1.960   4.383   3.522  0.6837 -1.1776 -2.5781
14060TIP3    H263672   1.890   4.266   3.457 -1.5748 -1.8870  0.9881
14061TIP3   OH263673   6.087   4.106  11.253 -0.6768 -0.1223 -0.4446
14061TIP3    H163674   5.995   4.082  11.245 -0.3955 -1.0191 -1.0101
14061TIP3    H263675   6.109   4.149  11.170 -0.6721  0.4056 -0.1756
14062TIP3   OH263676   1.058   0.332  14.291 -0.0549  0.1468  0.1163
14062TIP3    H163677   1.130   0.317  14.230 -0.3870  0.2726 -0.3040
14062TIP3    H263678   1.088   0.406  14.345  0.0002  0.4018 -0.2612
14063TIP3   OH263679   6.019   0.313   4.990 -0.3564  0.0782  0.1503
14063TIP3    H163680   6.026   0.229   4.945  0.9874  0.3695 -0.1868
14063TIP3    H263681   5.992   0.374   4.922 -1.1814 -0.0421  0.3632
14064TIP3   OH263682   3.814   3.283  14.038 -0.4693  0.1028 -0.0933
14064TIP3    H163683   3.742   3.242  14.085  0.9439 -1.9942  0.3204
14064TIP3    H263684   3.887   3.222  14.048  1.1490  1.8060 -1.1507
14065TIP3   OH263685   4.770   6.785  15.753  0.0438 -0.2708 -1.0483
14065TIP3    H163686   4.761   6.744  15.667  1.4441 -0.7366 -0.9809
14065TIP3    H263687   4.713   6.862  15.749 -3.2722 -2.6363 -0.8889
14066TIP3   OH263688   5.045   3.391  15.342  0.5523  0.2416  0.5246
14066TIP3    H163689   4.968   3.384  15.284 -0.4671 -0.1795  1.8925
14066TIP3    H263690   5.089   3.306  15.333  1.2356  0.7151 -0.7538
14067TIP3   OH263691   0.670   0.476   3.101  0.6584  0.2894 -0.3216
14067TIP3    H163692   0.663   0.406   3.166 -0.7345  0.9853  0.2927
14067TIP3    H263693   0.694   0.554   3.151  1.0423  0.5215 -0.8525
14068TIP3   OH263694   4.800   1.332  12.004 -0.1866  0.2623 -0.1615
14068TIP3    H163695   4.714   1.293  11.987 -1.4299  2.2007  1.3869
14068TIP3    H263696   4.830   1.361  11.919 -1.1813 -0.1964 -0.6897
14069TIP3   OH263697   4.352   4.854   3.354  0.1988 -0.4607  0.1306
14069TIP3    H163698   4.360   4.869   3.260  0.9319 -1.2399  0.0673
14069TIP3    H263699   4.441   4.832   3.382 -0.0463 -0.3718  0.9794
14070TIP3   OH263700   2.890   4.148  12.956  0.3404  0.3242 -0.1676
14070TIP3    H163701   2.868   4.057  12.975 -0.4134  0.4644 -0.3515
14070TIP3    H263702   2.844   4.198  13.024 -1.3241  0.7379 -1.5777
14071TIP3   OH263703   0.356   4.287   4.508 -0.1503 -0.6274  0.4597
14071TIP3    H163704   0.262   4.284   4.525 -0.1570  0.4653  0.6548
14071TIP3    H263705   0.394   4.317   4.590  0.3595 -0.9921  0.3554
14072TIP3   OH263706   3.489   6.555   4.805  0.7644  0.1817 -0.1884
14072TIP3    H163707   3.475   6.464   4.830 -1.7739  0.0162 -2.0319
14072TIP3    H263708   3.460   6.606   4.880  2.1354 -0.4983  0.8258
14073TIP3   OH263709   3.587   2.396   0.086  0.5922  0.0776  0.1024
14073TIP3    H163710   3.552   2.307   0.085  0.9226 -0.0763  1.2723
14073TIP3    H263711   3.563   2.432   0.001 -1.5929 -0.3188  0.5316
14074TIP3   OH263712   0.585   0.411  15.541  0.1510  0.1652 -0.1436
14074TIP3    H163713   0.592   0.351  15.467  1.1612 -0.1878  0.2377
14074TIP3    H263714   0.491   0.428  15.548 -0.0992 -0.9854 -0.5583
14075TIP3   OH263715   0.065   3.865  11.532  0.0294  0.1353 -0.8365
14075TIP3    H163716   0.121   3.942  11.541  1.3881 -0.8083 -0.9274
14075TIP3    H263717  -0.024   3.899  11.528  0.0994  1.3958  4.5206
14076TIP3   OH263718   1.625   2.115  12.943 -0.0530  0.1615  0.1629
14076TIP3    H163719   1.554   2.133  12.881  1.1429 -0.5882 -1.4653
14076TIP3    H263720   1.691   2.070  12.890  1.4937  0.5742  1.7315
14077TIP3   OH263721   3.212   4.321  13.199  0.4065 -0.9260  0.3294
14077TIP3    H163722   3.271   4.330  13.274  1.0131 -0.2293 -0.2209
14077TIP3    H263723   3.148   4.392  13.210 -0.3288 -1.6743  0.9194
14078TIP3   OH263724   1.953   2.284   2.222 -0.5080  0.5108  0.9187
14078TIP3    H163725   1.879   2.328   2.178  2.1963  2.9360 -1.4050
14078TIP3    H263726   1.995   2.353   2.273  0.0507 -0.9196  2.4286
14079TIP3   OH263727   1.640   1.985   0.293  0.2817 -0.0027  0.1130
14079TIP3    H163728   1.708   1.926   0.323  0.7801  0.4536 -0.1202
14079TIP3    H263729   1.662   2.070   0.332 -0.2408  0.1135  0.1697
14080TIP3   OH263730   5.474   1.125   5.469 -0.2028  0.0664 -0.2251
14080TIP3    H163731   5.562   1.099   5.440  0.0022  0.2684  0.2109
14080TIP3    H263732   5.426   1.042   5.478  0.1954 -0.1099  0.3434
14081TIP3   OH263733   2.827   5.266   4.578 -0.4827 -0.0971 -0.0659
14081TIP3    H163734   2.791   5.218   4.503  0.3441 -0.7785 -0.0419
14081TIP3    H263735   2.840   5.199   4.645  2.5181 -0.2154 -0.7001
14082TIP3   OH263736   5.199   6.213  12.035  0.4508 -0.2157 -0.2882
14082TIP3    H163737   5.119   6.167  12.063  0.5474  0.3021  0.8647
14082TIP3    H263738   5.175   6.253  11.951 -0.8101  0.7077  0.4901
14083TIP3   OH263739   2.508   4.405  16.962 -0.2328 -0.2013  0.0959
14083TIP3    H163740   2.458   4.323  16.956  0.3562 -0.4359 -2.2633
14083TIP3    H263741   2.463   4.456  17.030 -2.3730 -1.3086 -0.4324
14084TIP3   OH263742   3.067   1.190   5.219  0.7065 -0.3482 -0.9536
14084TIP3    H163743   2.978   1.165   5.242  0.0819  0.2325 -2.6469
14084TIP3    H263744   3.123   1.125   5.261 -0.3200  0.8309  2.4073
14085TIP3   OH263745   2.324   4.591  12.260 -0.3705 -0.0705  0.3161
14085TIP3    H163746   2.344   4.498  12.268 -0.8559 -0.6400 -3.8962
14085TIP3    H263747   2.233   4.598  12.288 -0.6120 -1.0488 -0.1801
14086TIP3   OH263748   5.877   6.178   5.193  0.2970 -0.0765  0.7664
14086TIP3    H163749   5.953   6.120   5.188  0.8209  0.5256  1.4410
14086TIP3    H263750   5.821   6.138   5.260  0.3910 -0.1098  0.8260
14087TIP3   OH263751   4.505   4.849  11.693  0.5335 -0.0861  0.3768
14087TIP3    H163752   4.503   4.942  11.715  3.6612 -0.2102  1.3206
14087TIP3    H263753   4.491   4.804  11.776 -1.5085 -0.5295 -0.1528
14088TIP3   OH263754   6.451   3.083   3.812  0.2167 -0.1885  0.1412
14088TIP3    H163755   6.456   2.987   3.818  0.5929 -0.4075 -2.8657
14088TIP3    H263756   6.537   3.110   3.781  0.1333  1.1584  1.0377
14089TIP3   OH263757   5.998   0.775  12.458 -0.0331 -0.2548  0.2143
14089TIP3    H163758   6.037   0.828  12.389 -0.1017 -0.9288 -0.3488
14089TIP3    H263759   5.938   0.835  12.503 -0.4239  0.0359 -0.6830
14090TIP3   OH263760   2.082   3.885   0.323 -0.2047 -0.3901 -0.0203
14090TIP3    H163761   2.070   3.813   0.384  0.3965 -0.6471 -0.2028
14090TIP3    H263762   2.018   3.870   0.254 -0.4494 -0.4507  0.2207
14091TIP3   OH263763   4.439   6.077   3.842 -0.0884 -0.3266  0.1614
14091TIP3    H163764   4.384   6.147   3.877 -0.3064 -1.4268  2.0820
14091TIP3    H263765   4.529   6.109   3.857 -0.1617 -1.0754  2.4372
14092TIP3   OH263766   4.363   4.653  14.519  0.0366 -0.1824 -0.0737
14092TIP3    H163767   4.382   4.586  14.454 -2.2042 -0.6283 -0.3075
14092TIP3    H263768   4.337   4.730  14.468  1.6483  0.6034  0.2250
14093TIP3   OH263769   6.487   6.360  14.884 -0.0707  0.2993  0.0590
14093TIP3    H163770   6.495   6.455  14.896 -0.4899  0.2962  0.3796
14093TIP3    H263771   6.414   6.350  14.823 -0.0767  0.1788  0.0867
14094TIP3   OH263772   2.834   1.287  15.602 -0.1212 -0.5997 -0.0969
14094TIP3    H163773   2.809   1.347  15.533 -0.8881 -1.4681 -0.5888
14094TIP3    H263774   2.850   1.343  15.678  0.1704  0.3065 -0.8207
14095TIP3   OH263775   1.595   5.042   6.144  0.1314  0.5114 -0.6838
14095TIP3    H163776   1.585   5.000   6.059 -1.0177  1.7293 -1.1626
14095TIP3    H263777   1.507   5.046   6.180  0.7137 -0.7248  0.9357
14096TIP3   OH263778   1.056   1.581   1.156  0.8519 -0.1464  0.3905
14096TIP3    H163779   1.027   1.660   1.202  0.3712  0.0750 -0.2895
14096TIP3    H263780   1.149   1.595   1.141  0.4709  0.9645 -1.0408
14097TIP3   OH263781   3.785   0.424   5.241  0.1204  0.1916 -0.4551
14097TIP3    H163782   3.774   0.423   5.337 -1.9722  0.4444 -0.6526
14097TIP3    H263783   3.853   0.489   5.225  0.5982  0.0321  0.8830
14098TIP3   OH263784   2.778   1.221  16.655  0.0554 -0.2500 -0.3399
14098TIP3    H163785   2.784   1.303  16.605  1.5250 -2.1444 -3.4012
14098TIP3    H263786   2.801   1.247  16.745 -1.2360  2.9980 -0.8701
14099TIP3   OH263787   6.625   4.985  12.238  0.1370 -0.0055  0.0194
14099TIP3    H163788   6.588   5.037  12.166 -0.2354 -0.6147 -0.2268
14099TIP3    H263789   6.587   5.024  12.317 -2.1082 -1.4545 -0.2858
14100TIP3   OH263790   4.274   3.891   2.641  0.1980 -0.3383 -0.5203
14100TIP3    H163791   4.184   3.879   2.609 -0.2454  0.1327  0.5109
14100TIP3    H263792   4.321   3.929   2.567 -1.0374  1.6258 -0.3403
14101TIP3   OH263793   0.054   4.681  11.136 -0.1068 -0.3593 -0.2625
14101TIP3    H163794  -0.035   4.687  11.101  0.4361  0.6229 -1.5308
14101TIP3    H263795   0.042   4.671  11.230 -1.5664  1.9660 -0.1507
14102TIP3   OH263796   6.159   5.450  13.492 -0.1850  0.7608 -0.1094
14102TIP3    H163797   6.115   5.411  13.568 -0.2257  0.7520 -0.1383
14102TIP3    H263798   6.089   5.491  13.441 -0.1485  0.8255 -0.1079
14103TIP3   OH263799   5.104   6.613  12.442  0.1666 -0.3058 -0.1665
14103TIP3    H163800   5.076   6.543  12.383  0.3862  0.0297 -0.6816
14103TIP3    H263801   5.184   6.647  12.402 -0.1434  0.4845 -0.1221
14104TIP3   OH263802   3.489   4.156   2.633 -0.2230  0.0553  0.0870
14104TIP3    H163803   3.419   4.148   2.698  0.4760  0.7352  0.9316
14104TIP3    H263804   3.565   4.117   2.675  0.1656  0.2337 -0.4425
14105TIP3   OH263805   6.599   0.757  14.680  0.2847  0.3272 -0.0873
14105TIP3    H163806   6.617   0.665  14.699  0.1504  1.0867  4.2384
14105TIP3    H263807   6.678   0.804  14.710 -1.2382  1.9275  1.5715
14106TIP3   OH263808   6.499   4.267  15.331 -0.1084 -0.7990 -0.3409
14106TIP3    H163809   6.479   4.325  15.405 -0.0043 -2.0484  0.6851
14106TIP3    H263810   6.593   4.277  15.318 -0.2260 -0.1205 -0.7072
14107TIP3   OH263811   3.623   1.735  16.001 -0.1237  0.1493 -0.2361
14107TIP3    H163812   3.658   1.823  16.015 -0.7493  0.0643  2.0571
14107TIP3    H263813   3.529   1.748  15.987 -0.0124 -0.0549 -1.2008
14108TIP3   OH263814   3.463   1.896  16.971  0.3195 -0.5217 -0.0002
14108TIP3    H163815   3.547   1.859  16.945 -0.0196 -1.0585 -0.3617
14108TIP3    H263816   3.464   1.985  16.936  0.0872 -1.0582 -1.4235
14109TIP3   OH263817   2.143   2.874  15.463  0.5180  0.5493 -0.2880
14109TIP3    H163818   2.111   2.911  15.380  0.4763  1.5648  0.1721
14109TIP3    H263819   2.130   2.780  15.453  1.5558  0.5468 -1.8876
14110TIP3   OH263820   4.024   5.555   5.130 -0.3972  0.3884 -0.2957
14110TIP3    H163821   4.065   5.471   5.152 -1.3508  0.7315  3.0794
14110TIP3    H263822   3.933   5.534   5.110 -0.5763  0.5577  0.3133
14111TIP3   OH263823   4.242   3.481  12.524  0.1817 -0.4378  0.0934
14111TIP3    H163824   4.223   3.572  12.548 -1.8378 -0.2939 -1.8177
14111TIP3    H263825   4.237   3.433  12.606 -0.0306  0.9797  0.9375
14112TIP3   OH263826   5.845   4.480   4.998 -0.4393 -0.3176 -0.3226
14112TIP3    H163827   5.887   4.421   5.061 -1.5212 -0.6054  0.1413
14112TIP3    H263828   5.913   4.544   4.977 -0.2777  0.2118  1.6845
14113TIP3   OH263829   6.754   6.453  13.665 -0.0865  0.1967  0.3713
14113TIP3    H163830   6.795   6.412  13.741  0.0748 -1.8019 -0.7682
14113TIP3    H263831   6.816   6.438  13.593  0.1315  2.7289 -0.0332
14114TIP3   OH263832   4.917   5.964   0.412  0.0304 -0.0489  0.6692
14114TIP3    H163833   4.990   5.947   0.352  1.0118  0.7907  1.6043
14114TIP3    H263834   4.944   5.923   0.494 -0.9062 -0.4074  0.8048
14115TIP3   OH263835   0.330   4.329  16.178  0.3706 -0.6600 -0.1955
14115TIP3    H163836   0.265   4.380  16.129  1.1233 -0.3475 -0.8899
14115TIP3    H263837   0.413   4.349  16.135  1.3424  1.1575  2.4373
14116TIP3   OH263838   6.341   0.337   2.223 -0.4695 -0.4644  0.6247
14116TIP3    H163839   6.416   0.309   2.276  0.8282 -0.9431 -1.4078
14116TIP3    H263840   6.285   0.259   2.219 -1.1561 -0.0737  2.2350
14117TIP3   OH263841   6.332   4.219  17.000 -0.1842  0.3031  0.3075
14117TIP3    H163842   6.383   4.138  17.004 -0.1433  0.3608  0.9855
14117TIP3    H263843   6.294   4.219  16.913  0.3286 -0.1388  0.0794
14118TIP3   OH263844   2.480   6.570  17.205  0.4631 -0.3307 -0.1444
14118TIP3    H163845   2.446   6.540  17.120  1.1811 -1.5527  0.0051
14118TIP3    H263846   2.441   6.511  17.269 -0.5598  0.9669  0.4547
14119TIP3   OH263847   0.253   4.368  11.179 -0.3889  0.4773 -0.6352
14119TIP3    H163848   0.238   4.273  11.180 -0.0321  0.4200 -0.0586
14119TIP3    H263849   0.349   4.376  11.178 -0.4036  0.8315  0.5716
14120TIP3   OH263850   6.253   5.984   4.887  0.2003 -0.0461  0.4471
14120TIP3    H163851   6.271   5.890   4.878  0.4114  0.0768 -0.4593
14120TIP3    H263852   6.179   5.988   4.947 -0.0356 -0.8193  0.2181
14121TIP3   OH263853   1.097   3.013  16.086 -0.0294  0.7765 -0.0274
14121TIP3    H163854   1.005   2.999  16.107  0.0162  1.8712  0.9860
14121TIP3    H263855   1.106   2.988  15.994 -1.0940 -0.3826  0.1800
14122TIP3   OH263856   4.265   2.013  15.422 -0.3932  0.0442  0.1983
14122TIP3    H163857   4.230   2.064  15.349  0.5077  1.9849  1.0679
14122TIP3    H263858   4.188   1.982  15.469 -0.9691 -0.5661 -1.1268
14123TIP3   OH263859   1.512   5.819  16.562  0.3857  0.5950  0.3566
14123TIP3    H163860   1.516   5.786  16.652 -1.0709  1.3517  0.7070
14123TIP3    H263861   1.542   5.746  16.508  1.2849  0.1408  1.4535
14124TIP3   OH263862   5.091   3.574   2.018 -0.2710 -0.2309  0.5309
14124TIP3    H163863   5.116   3.661   2.049 -0.3652  0.0782 -0.2367
14124TIP3    H263864   5.025   3.591   1.951  0.2630 -0.8495 -0.1594
14125TIP3   OH263865   5.884   6.666  16.122  0.4661 -0.2072  0.2173
14125TIP3    H163866   5.908   6.618  16.201  1.5000 -0.4682 -0.2559
14125TIP3    H263867   5.866   6.755  16.152  0.5082 -0.3957  0.7983
14126TIP3   OH263868   1.378   3.095   6.396  0.1226  0.0737  0.2243
14126TIP3    H163869   1.333   3.163   6.446 -0.8607  0.3471 -1.0001
14126TIP3    H263870   1.309   3.052   6.346  0.7119 -1.9539  1.1213
14127TIP3   OH263871   5.639   3.846  14.742  0.1428 -0.1286  0.4215
14127TIP3    H163872   5.679   3.929  14.716 -1.6718  0.4435 -0.6041
14127TIP3    H263873   5.597   3.866  14.826  1.7027 -0.6518  1.3500
14128TIP3   OH263874   5.528   4.557  16.564 -0.0622 -0.7393 -0.0961
14128TIP3    H163875   5.561   4.544  16.653  0.9892  0.8221 -0.2376
14128TIP3    H263876   5.441   4.517  16.564 -0.1650 -0.5418  1.7027
14129TIP3   OH263877   1.665   4.299  15.637  0.7971  0.0795  0.0396
14129TIP3    H163878   1.701   4.318  15.550  1.4130 -0.3836  0.1911
14129TIP3    H263879   1.698   4.212  15.658 -0.6317 -0.4620  0.0756
14130TIP3   OH263880   2.179   2.997  14.436  0.3944 -0.2544  0.0744
14130TIP3    H163881   2.148   3.012  14.347 -1.5341 -2.2478  0.3864
14130TIP3    H263882   2.159   3.079  14.482  0.0968  0.2601 -0.9576
14131TIP3   OH263883   3.855   0.358  16.860 -0.0055 -0.4321 -0.3765
14131TIP3    H163884   3.945   0.381  16.837 -0.4041  1.2969 -0.2548
14131TIP3    H263885   3.862   0.325  16.950  0.1925  2.0333  0.5621
14132TIP3   OH263886   3.445   2.263  15.380 -0.1028 -0.4508  0.2915
14132TIP3    H163887   3.356   2.228  15.388 -0.1264 -0.0812  1.8391
14132TIP3    H263888   3.465   2.255  15.287 -1.8562 -0.3044 -0.1290
14133TIP3   OH263889   4.411   1.321  13.800  0.4983  0.3989  0.1304
14133TIP3    H163890   4.422   1.408  13.837 -1.7534 -0.1793  2.3188
14133TIP3    H263891   4.341   1.332  13.735  0.2248  0.2295  0.3948
14134TIP3   OH263892   4.887   6.492   0.431 -0.0909  0.0931  0.2166
14134TIP3    H163893   4.809   6.525   0.476  0.9185 -0.2282  2.2501
14134TIP3    H263894   4.888   6.398   0.452 -0.1936 -0.2700 -1.3785
14135TIP3   OH263895   1.191   4.033  17.232  0.1860  0.0108  0.0689
14135TIP3    H163896   1.142   3.954  17.250  1.1643 -0.3586  1.1649
14135TIP3    H263897   1.250   4.043  17.307  3.2680 -0.7184 -2.1241
14136TIP3   OH263898   4.902   5.550  16.964  0.5825 -0.2556  0.1483
14136TIP3    H163899   4.975   5.554  17.025 -0.2482  0.1166  1.1242
14136TIP3    H263900   4.938   5.581  16.881  1.1151  1.4749  1.0108
14137TIP3   OH263901   4.854   2.849   0.089 -0.1327  0.1504 -0.1660
14137TIP3    H163902   4.824   2.818   0.003  1.1574  1.3521 -1.0575
14137TIP3    H263903   4.790   2.813   0.150 -1.9047  0.4615 -1.7720
14138TIP3   OH263904   6.271   6.793   2.759  0.2605  0.6354  0.0768
14138TIP3    H163905   6.203   6.734   2.727  0.0167  0.0195  1.6443
14138TIP3    H263906   6.257   6.795   2.854  1.0755  2.2108  0.1741
14139TIP3   OH263907   4.488   1.883  15.291  0.5358  0.1021 -0.1530
14139TIP3    H163908   4.446   1.906  15.208 -0.9664 -0.7080  0.3462
14139TIP3    H263909   4.431   1.922  15.358  2.1548  1.4234  0.4903
14140TIP3   OH263910   6.188   2.653  13.339  0.5120  0.0821  0.3328
14140TIP3    H163911   6.099   2.634  13.309  0.7029 -0.3493  0.0261
14140TIP3    H263912   6.190   2.748  13.353 -0.0526  0.0611  0.5345
14141TIP3   OH263913   5.749   6.518   3.508 -0.5470  0.7408  0.4188
14141TIP3    H163914   5.824   6.529   3.449  0.4464  3.6599  2.0915
14141TIP3    H263915   5.674   6.549   3.457 -0.6265 -1.9323 -1.1719
14142TIP3   OH263916   4.041   4.875  16.636 -0.0875  0.2996 -0.0646
14142TIP3    H163917   3.999   4.908  16.557  1.7806  1.0237 -0.7882
14142TIP3    H263918   4.013   4.936  16.705 -2.8437 -1.1462  0.1558
14143TIP3   OH263919   6.101   0.235   3.187 -0.4139  0.4233  0.2932
14143TIP3    H163920   6.162   0.172   3.225 -1.2546 -0.2505  0.5384
14143TIP3    H263921   6.016   0.190   3.188 -0.4862  0.4352 -2.2393
14144TIP3   OH263922   0.991   6.211  13.801  0.0027 -0.5461  0.5926
14144TIP3    H163923   1.041   6.222  13.720 -0.4315  1.0868  0.5309
14144TIP3    H263924   0.947   6.127  13.791 -0.8011  0.0839 -1.2856
14145TIP3   OH263925   5.773   1.342  13.675 -0.2561  0.3618  0.4183
14145TIP3    H163926   5.680   1.317  13.677 -0.2039  0.1828  0.6283
14145TIP3    H263927   5.794   1.345  13.581  0.0597 -1.6544  0.3990
14146TIP3   OH263928   1.364   5.975  14.502 -0.0882  0.3185  0.3745
14146TIP3    H163929   1.355   5.995  14.595  2.2299 -1.0383  0.9306
14146TIP3    H263930   1.312   5.896  14.489 -0.6971  0.7056  0.4285
14147TIP3   OH263931   4.716   5.642   0.720  0.0525 -0.3994 -0.7300
14147TIP3    H163932   4.783   5.709   0.707 -0.0051 -0.1788  0.0560
14147TIP3    H263933   4.669   5.638   0.637  0.6364 -0.0999 -1.0711
14148TIP3   OH263934   2.564   0.707   4.258 -0.6310 -0.0330 -0.1010
14148TIP3    H163935   2.593   0.786   4.212  0.7687 -0.7504 -0.4505
14148TIP3    H263936   2.578   0.728   4.350  0.9947 -0.3691 -0.2648
14149TIP3   OH263937   1.633   0.146   6.706 -0.1582  0.0943 -0.1158
14149TIP3    H163938   1.657   0.137   6.798  3.0851 -1.7932 -1.0641
14149TIP3    H263939   1.597   0.060   6.683 -3.4797  1.3637 -0.0151
14150TIP3   OH263940   4.752   4.643   2.696  0.3841  0.6782  0.3294
14150TIP3    H163941   4.839   4.669   2.668  1.3695 -1.3787  1.3686
14150TIP3    H263942   4.714   4.599   2.620 -0.2492  2.6625 -0.5301
14151TIP3   OH263943   5.851   3.251   5.617 -0.4012  0.1427  0.9517
14151TIP3    H163944   5.855   3.298   5.534  0.0764  0.0926  0.9446
14151TIP3    H263945   5.930   3.198   5.618 -0.7655 -0.4036  1.1147
14152TIP3   OH263946   6.586   2.443   1.652 -0.7487  0.0355 -0.3867
14152TIP3    H163947   6.669   2.438   1.605  0.5413 -0.6769  1.8450
14152TIP3    H263948   6.601   2.510   1.719 -1.7905 -0.4414  0.3308
14153TIP3   OH263949   2.101   0.688   5.094 -0.0630  0.7133 -0.4237
14153TIP3    H163950   2.025   0.682   5.036 -0.2913  0.2003 -0.0795
14153TIP3    H263951   2.168   0.732   5.042 -0.0824 -0.2234 -1.2589
14154TIP3   OH263952   5.022   1.569  13.159 -0.7238 -0.0123 -0.7212
14154TIP3    H163953   5.116   1.559  13.145  0.1230  1.7854  3.0032
14154TIP3    H263954   4.982   1.498  13.108  2.7517 -2.0055 -0.7970
14155TIP3   OH263955   1.235   5.532  16.513 -0.2214  0.0635  0.2234
14155TIP3    H163956   1.193   5.617  16.499 -0.2663  0.2465  1.3626
14155TIP3    H263957   1.208   5.507  16.602 -0.5139 -1.3230 -0.2436
14156TIP3   OH263958   3.546   3.140  11.935 -0.5051  0.0066 -0.4890
14156TIP3    H163959   3.590   3.189  11.865 -0.3919 -0.2325 -0.5867
14156TIP3    H263960   3.557   3.194  12.013  0.6401 -0.4181 -0.3430
14157TIP3   OH263961   0.828   6.586  16.552 -0.0660  0.3494  0.2517
14157TIP3    H163962   0.742   6.619  16.525  0.2880  2.3616  1.4934
14157TIP3    H263963   0.813   6.553  16.641  0.4292  0.6076  0.4306
14158TIP3   OH263964   4.728   1.516  16.265  0.4522 -0.1878  0.4570
14158TIP3    H163965   4.645   1.469  16.275 -0.9267  2.1536  0.3762
14158TIP3    H263966   4.712   1.601  16.305  2.3705  0.7976 -0.8068
14159TIP3   OH263967   4.552   3.349  14.788 -0.7322 -0.1786 -0.5851
14159TIP3    H163968   4.543   3.277  14.725  0.6265 -0.6284 -0.2626
14159TIP3    H263969   4.640   3.340  14.823 -1.3406  0.2986  1.1172
14160TIP3   OH263970   1.313   2.744   5.090  0.3706 -0.1021 -0.4439
14160TIP3    H163971   1.284   2.835   5.098 -0.0922 -0.2953  0.0864
14160TIP3    H263972   1.241   2.700   5.045  0.7337 -0.1384 -0.9937
14161TIP3   OH263973   5.921   3.039   4.768  0.2907  0.2276  0.4523
14161TIP3    H163974   5.970   2.967   4.728  0.4386 -0.2068  1.3934
14161TIP3    H263975   5.984   3.079   4.829  0.2201  1.1709 -0.0941
14162TIP3   OH263976   6.361   4.316   3.444 -0.5918 -0.7857 -0.2074
14162TIP3    H163977   6.325   4.377   3.508 -0.7947  0.1040 -1.1592
14162TIP3    H263978   6.317   4.338   3.362  0.7224 -0.9604 -0.9755
14163TIP3   OH263979   2.214   1.422  11.456  0.1952  0.5405  0.0823
14163TIP3    H163980   2.193   1.438  11.548 -0.6194  0.4264 -0.0827
14163TIP3    H263981   2.310   1.429  11.452  0.1686  1.3487  0.7768
14164TIP3   OH263982   1.417   1.873  12.851  0.3315  0.3613 -0.7635
14164TIP3    H163983   1.497   1.842  12.893  1.0988  1.3214 -1.4724
14164TIP3    H263984   1.406   1.963  12.883 -2.5068 -0.9593  2.1954
14165TIP3   OH263985   4.661   1.455   5.134  0.9824 -0.2033 -0.2355
14165TIP3    H163986   4.667   1.461   5.229  0.0362  1.2212 -0.2400
14165TIP3    H263987   4.702   1.536   5.102  1.9242 -0.9990 -1.0706
14166TIP3   OH263988   5.351   4.359  16.776  0.5803  0.1081  0.9080
14166TIP3    H163989   5.312   4.425  16.719 -1.1391 -1.3512  0.3638
14166TIP3    H263990   5.307   4.371  16.860 -0.1248 -0.6693  0.6615
14167TIP3   OH263991   1.415   0.463   1.393  0.0524  0.0364 -0.1082
14167TIP3    H163992   1.483   0.504   1.447 -0.0911 -0.3673  0.3827
14167TIP3    H263993   1.337   0.516   1.409  0.4223  0.9196 -1.2118
14168TIP3   OH263994   1.566   1.969   4.643 -0.0647  0.3047  0.0684
14168TIP3    H163995   1.502   1.983   4.573  2.0826  1.4411 -1.7233
14168TIP3    H263996   1.636   1.919   4.601  2.1413  2.6449  0.8850
14169TIP3   OH263997   2.972   1.250  14.567 -0.1620  0.2036 -0.1959
14169TIP3    H163998   3.002   1.170  14.611 -0.8282 -0.8902 -1.7001
14169TIP3    H263999   3.041   1.314  14.584  1.1466 -1.1582 -0.3367
14170TIP3   OH264000   5.390   1.802  14.937  0.6212 -0.4084  0.2077
14170TIP3    H164001   5.429   1.846  14.861 -0.4659  1.1520  0.5386
14170TIP3    H264002   5.296   1.813  14.926  0.4032 -1.2352  1.1601
14171TIP3   OH264003   1.545   3.806  11.711 -0.1665 -0.1897  0.1904
14171TIP3    H164004   1.612   3.776  11.773  1.5236 -2.8575 -2.7903
14171TIP3    H264005   1.592   3.860  11.648 -1.3652  0.2567 -0.3397
14172TIP3   OH264006   5.124   5.000   3.429  0.0269  0.0639  0.5256
14172TIP3    H164007   5.138   5.045   3.512  3.0718 -0.7616  0.5145
14172TIP3    H264008   5.168   4.915   3.440 -0.7536 -0.6269 -1.4234
14173TIP3   OH264009   1.048   6.494   2.359  0.1795 -0.1220  0.6401
14173TIP3    H164010   1.111   6.518   2.427  1.5287 -0.2318 -0.5446
14173TIP3    H264011   1.035   6.574   2.309 -0.4249 -0.1723  0.7114
14174TIP3   OH264012   3.051   1.237   4.696  0.2051  0.1029  0.0562
14174TIP3    H164013   3.142   1.250   4.724 -0.1760  0.4456  1.1415
14174TIP3    H264014   3.004   1.213   4.776 -0.5756 -0.5580 -0.5834
14175TIP3   OH264015   5.573   1.826  14.245 -0.3375 -0.0258 -0.0415
14175TIP3    H164016   5.526   1.748  14.216 -0.3182  0.5794 -1.8068
14175TIP3    H264017   5.575   1.882  14.167  1.5012  0.8274  0.5925
14176TIP3   OH264018   5.178   3.810  14.942 -0.4880 -0.6667  0.1853
14176TIP3    H164019   5.214   3.888  14.985  1.0919 -0.5728 -1.2423
14176TIP3    H264020   5.226   3.737  14.981 -1.3900 -0.8566  0.9408
14177TIP3   OH264021   3.819   3.415   6.480 -0.4897 -0.6583  0.5998
14177TIP3    H164022   3.816   3.319   6.478 -0.2433 -0.6863  1.3588
14177TIP3    H264023   3.844   3.436   6.570  0.7654  0.0862  0.0905
14178TIP3   OH264024   2.293   4.199  15.027  0.2427 -0.1436  0.7074
14178TIP3    H164025   2.316   4.157  15.110 -2.7366 -2.7677  0.2993
14178TIP3    H264026   2.197   4.193  15.022  0.3281  0.0851 -2.8404
14179TIP3   OH264027   3.857   6.453  12.262 -0.4842 -0.0881  0.1562
14179TIP3    H164028   3.949   6.456  12.290 -1.0457  0.2895  2.0249
14179TIP3    H264029   3.861   6.462  12.167  1.4246 -0.2577  0.1890
14180TIP3   OH264030   3.361   6.476  14.871 -0.3026 -0.3169 -0.1214
14180TIP3    H164031   3.394   6.401  14.821 -2.2566 -1.2214 -0.1034
14180TIP3    H264032   3.349   6.545  14.805 -0.8236 -0.8029 -0.5307
14181TIP3   OH264033   2.077   2.154  14.075 -0.1364 -0.2362  0.3606
14181TIP3    H164034   2.154   2.209  14.064 -0.4671 -0.0260 -0.9131
14181TIP3    H264035   2.053   2.127  13.986 -2.6923  1.2830  0.5364
14182TIP3   OH264036   4.887   4.680  14.451  0.0295  0.1888  0.0662
14182TIP3    H164037   4.877   4.615  14.381  1.0587  1.2177 -1.0744
14182TIP3    H264038   4.826   4.750  14.428 -0.5894 -0.0727  0.9215
14183TIP3   OH264039   3.219   5.457  14.449 -0.4814 -0.2125 -0.0949
14183TIP3    H164040   3.165   5.505  14.385  1.2931  0.5226 -1.0647
14183TIP3    H264041   3.296   5.512  14.460  1.5722 -2.8133 -1.1654
14184TIP3   OH264042   6.250   0.110  13.965  0.3919  0.5591  0.4848
14184TIP3    H164043   6.238   0.027  13.919  0.9749 -0.7446  2.5696
14184TIP3    H264044   6.344   0.114  13.983  0.4367  1.9181 -0.0317
14185TIP3   OH264045   4.969   1.262   3.727 -0.1840  0.2953  0.2545
14185TIP3    H164046   5.012   1.211   3.796  1.7618  0.7700 -0.5865
14185TIP3    H264047   4.914   1.323   3.775 -0.9723 -1.2108  1.3234
14186TIP3   OH264048   1.302   5.955   4.797 -0.0358  0.1754 -0.1128
14186TIP3    H164049   1.377   5.909   4.833  1.6272  2.6851 -0.2178
14186TIP3    H264050   1.288   5.916   4.711  0.4276 -1.0821  0.3855
14187TIP3   OH264051   4.848   3.647   2.910 -0.2075 -0.2497 -0.7869
14187TIP3    H164052   4.774   3.606   2.866 -0.0651  0.4752 -1.7255
14187TIP3    H264053   4.919   3.583   2.903 -1.1239 -1.5355  1.3481
14188TIP3   OH264054   2.575   6.697  16.204  0.1248 -0.2033 -0.2658
14188TIP3    H164055   2.485   6.680  16.231 -0.2710 -0.2743 -1.5852
14188TIP3    H264056   2.601   6.618  16.156 -0.2364  1.0714 -2.6814
14189TIP3   OH264057   5.909   6.382  15.916  0.4102 -0.1156 -0.1703
14189TIP3    H164058   5.843   6.447  15.938  0.5155  0.1335 -0.5758
14189TIP3    H264059   5.862   6.299  15.913  0.3358 -0.1058  0.6731
14190TIP3   OH264060   0.880   1.902   1.017  0.0391  0.2616  0.2673
14190TIP3    H164061   0.861   1.857   1.099 -1.9885 -1.0929 -0.8908
14190TIP3    H264062   0.818   1.975   1.015  0.4184  0.5851  0.1653
14191TIP3   OH264063   4.392   4.479  11.931  0.6372 -0.6309  0.2601
14191TIP3    H164064   4.429   4.480  11.842 -0.6916 -2.7605 -0.3618
14191TIP3    H264065   4.346   4.562  11.939 -0.0603 -0.8229 -1.4443
14192TIP3   OH264066   1.431   1.036   4.575  0.5044  0.0558  0.3977
14192TIP3    H164067   1.477   1.057   4.657  0.1153  0.7225  0.4482
14192TIP3    H264068   1.499   0.998   4.519  0.8169 -0.2257  0.9634
14193TIP3   OH264069   1.515   4.907   3.743  0.1941  0.0726 -0.1250
14193TIP3    H164070   1.610   4.895   3.742  0.1038 -0.6982 -0.7445
14193TIP3    H264071   1.488   4.878   3.830  0.6379  1.3113  0.4356
14194TIP3   OH264072   4.608   2.801   3.110  0.1576 -0.1433  1.0252
14194TIP3    H164073   4.574   2.728   3.162  0.2890 -1.1240 -0.2408
14194TIP3    H264074   4.703   2.789   3.111  0.0761 -1.2307 -0.9100
14195TIP3   OH264075   5.258   0.355  12.809  0.3048 -0.5456  0.2921
14195TIP3    H164076   5.205   0.395  12.740  1.4000  1.3966  0.5459
14195TIP3    H264077   5.319   0.424  12.836  0.2692 -1.4503  2.8255
14196TIP3   OH264078   4.211   4.159   3.551  0.8842 -0.7246 -0.2431
14196TIP3    H164079   4.286   4.209   3.582 -1.0820  3.2718 -1.6158
14196TIP3    H264080   4.139   4.185   3.609 -0.5443 -0.7070 -1.9927
14197TIP3   OH264081   3.525   2.718   2.330  0.1510 -0.1435 -0.4146
14197TIP3    H164082   3.591   2.758   2.387 -1.0596 -0.7859  1.5186
14197TIP3    H264083   3.564   2.636   2.300  1.1920  0.6851 -1.3437
14198TIP3   OH264084   1.369   0.365   3.131  0.7590  0.0470  0.2132
14198TIP3    H164085   1.313   0.334   3.203  1.0140 -0.2086  0.3032
14198TIP3    H264086   1.308   0.389   3.062  0.5745 -1.0871 -0.0311
14199TIP3   OH264087   4.277   1.775  13.512  0.3429 -0.1826 -0.0914
14199TIP3    H164088   4.291   1.767  13.606  1.5893  1.8617 -0.0679
14199TIP3    H264089   4.345   1.836  13.483  0.4789 -1.3873 -2.4579
14200TIP3   OH264090   6.542   4.945   3.949  0.7992 -0.1074 -0.1587
14200TIP3    H164091   6.536   4.993   4.032  0.2400  1.1449 -0.9177
14200TIP3    H264092   6.506   5.005   3.884 -1.3838 -2.1238 -0.8937
14201TIP3   OH264093   2.580   5.043   5.241  0.1044 -0.1088 -0.0789
14201TIP3    H164094   2.640   5.027   5.315 -0.0222 -2.0311 -0.3670
14201TIP3    H264095   2.516   5.105   5.275  0.5425 -0.3170  1.1552
14202TIP3   OH264096   1.394   0.699  11.693 -0.1239 -0.1483  0.2281
14202TIP3    H164097   1.353   0.785  11.687  1.2965  0.5993  0.9573
14202TIP3    H264098   1.467   0.703  11.633  1.2555 -0.0692  1.8737
14203TIP3   OH264099   0.087   0.462  15.203  0.4271  0.3637  0.6842
14203TIP3    H164100   0.150   0.533  15.193 -0.8408  1.7258  2.0321
14203TIP3    H264101   0.071   0.431  15.114  2.2824  0.6244  0.2440
14204TIP3   OH264102   4.065   5.625  15.623 -0.2361  0.3344 -0.3074
14204TIP3    H164103   4.010   5.701  15.643 -0.1410  0.3942 -0.2756
14204TIP3    H264104   4.112   5.607  15.705  0.8363  1.1398 -0.7401
14205TIP3   OH264105   6.806   5.877  15.150  0.1727 -0.0129  0.5950
14205TIP3    H164106   6.723   5.925  15.154 -0.2372 -0.4729 -1.8568
14205TIP3    H264107   6.870   5.939  15.185 -1.0533  0.6587  1.7184
14206TIP3   OH264108   1.910   4.729   3.628  0.2200 -0.3307  0.2032
14206TIP3    H164109   1.880   4.810   3.669 -1.7862 -1.4433  1.0265
14206TIP3    H264110   1.969   4.691   3.693 -0.0957 -0.2996  0.5137
14207TIP3   OH264111   3.149   5.065  17.247 -0.3818 -0.4524 -0.1004
14207TIP3    H164112   3.169   5.100  17.160 -3.8303  1.7237 -0.1011
14207TIP3    H264113   3.108   4.981  17.230  0.1725 -0.6503 -0.4879
14208TIP3   OH264114   1.625   4.235  11.974 -0.3148  0.2633 -0.0191
14208TIP3    H164115   1.637   4.212  11.882  0.3324 -1.9715  0.5966
14208TIP3    H264116   1.707   4.212  12.016 -0.2507  2.1927  0.9696
14209TIP3   OH264117   4.601   2.811  12.514 -0.0281  0.2424 -0.0107
14209TIP3    H164118   4.635   2.795  12.426  0.1050  1.4953 -0.2033
14209TIP3    H264119   4.513   2.847  12.500 -0.5062 -0.7489  0.4110
14210TIP3   OH264120   0.555   5.839   5.201  0.3183  0.3835  0.1185
14210TIP3    H164121   0.609   5.831   5.280 -0.7210 -1.2028  0.6996
14210TIP3    H264122   0.587   5.770   5.143  0.6430  1.1277 -0.5953
14211TIP3   OH264123   0.405   0.479   0.397  0.1153  0.4674  0.1707
14211TIP3    H164124   0.316   0.503   0.370 -0.2120  0.5477  1.3160
14211TIP3    H264125   0.419   0.392   0.359 -0.5684  0.3181  0.2621
14212TIP3   OH264126   5.874   0.638   5.224 -0.1606 -0.7245 -0.0200
14212TIP3    H164127   5.828   0.660   5.305  0.9626 -1.2840  0.7706
14212TIP3    H264128   5.933   0.567   5.248 -0.1270 -1.1913 -1.4318
14213TIP3   OH264129   0.917   5.878  11.429  0.4331 -0.4018  0.3162
14213TIP3    H164130   0.899   5.970  11.449  1.2608 -0.4683  1.4244
14213TIP3    H264131   1.006   5.864  11.461  1.7769 -0.5925 -3.2746
14214TIP3   OH264132   5.210   1.268   2.885 -0.0613 -0.1482  0.5760
14214TIP3    H164133   5.284   1.317   2.851 -0.3793 -0.2689 -0.3083
14214TIP3    H264134   5.143   1.334   2.901 -0.6920 -0.3494 -1.1647
14215TIP3   OH264135   3.104   2.704   0.932 -0.3601  0.3376 -0.1097
14215TIP3    H164136   3.076   2.796   0.937 -0.5905  0.2154  0.9206
14215TIP3    H264137   3.121   2.679   1.023 -0.3071 -0.6486 -0.3857
14216TIP3   OH264138   4.995   4.412  15.024  0.3332  0.0609 -0.1742
14216TIP3    H164139   4.971   4.489  15.074  0.3094  0.2499 -0.4751
14216TIP3    H264140   4.942   4.417  14.944  0.7762  0.0587 -0.4741
14217TIP3   OH264141   0.726   1.565  12.408  0.5691  0.5436  0.0053
14217TIP3    H164142   0.797   1.629  12.399  1.3786 -0.2991  0.3386
14217TIP3    H264143   0.697   1.574  12.499  0.4303  0.6944 -0.0526
14218TIP3   OH264144   2.722   6.554  15.665 -0.3596 -0.0761 -0.5084
14218TIP3    H164145   2.709   6.459  15.667  0.2226 -0.1520 -0.1125
14218TIP3    H264146   2.809   6.566  15.626 -0.8432  0.3371 -1.4698
14219TIP3   OH264147   4.377   0.671   1.829  0.1041 -0.3784 -0.4101
14219TIP3    H164148   4.297   0.678   1.881  0.1929 -1.9351 -0.0501
14219TIP3    H264149   4.444   0.714   1.882 -0.3387  0.3531 -0.4274
14220TIP3   OH264150   6.741   2.990  15.307 -0.2759  0.6148  0.3689
14220TIP3    H164151   6.681   3.062  15.325 -2.2694 -1.0048  0.3782
14220TIP3    H264152   6.725   2.927  15.378 -0.2210 -0.8596 -0.8959
14221TIP3   OH264153   1.087   4.884  13.785 -0.4930 -0.3702  0.1402
14221TIP3    H164154   1.125   4.970  13.768 -0.7409 -0.4795 -1.0433
14221TIP3    H264155   1.121   4.829  13.713  0.5908 -1.5514  1.5159
14222TIP3   OH264156   5.774   4.042  15.529 -0.7461  0.0807 -0.1238
14222TIP3    H164157   5.705   4.101  15.497 -1.0279  0.1327  0.5781
14222TIP3    H264158   5.798   3.990  15.452  0.4618  2.0189 -1.1043
14223TIP3   OH264159   1.734   1.699  11.679  0.0409  0.2328 -0.2645
14223TIP3    H164160   1.752   1.612  11.644 -2.0500  0.2261 -1.4382
14223TIP3    H264161   1.820   1.738  11.692  0.9810 -1.5467 -0.9001
14224TIP3   OH264162   0.854   1.577  13.645 -0.3814 -0.0565 -0.6638
14224TIP3    H164163   0.943   1.553  13.619  0.8229  1.6981  1.7512
14224TIP3    H264164   0.841   1.533  13.729 -1.3833  0.6188 -0.4592
14225TIP3   OH264165   2.316   4.090  11.818  0.0339 -0.1658 -0.7694
14225TIP3    H164166   2.227   4.116  11.839 -0.2948 -0.6166 -1.6110
14225TIP3    H264167   2.329   4.116  11.727  0.8777  0.2072 -0.5533
14226TIP3   OH264168   2.343   1.293   5.659  0.3759 -0.0480 -0.0234
14226TIP3    H164169   2.384   1.362   5.608 -0.8876  1.0735  0.4430
14226TIP3    H264170   2.259   1.330   5.687 -0.5459 -1.9499 -0.1949
14227TIP3   OH264171   6.696   1.450  10.461 -1.1612  0.4786 -0.0851
14227TIP3    H164172   6.764   1.386  10.478  0.5232  1.8183 -1.4727
14227TIP3    H264173   6.615   1.409  10.491  0.2777 -1.0479  1.8296
14228TIP3   OH264174   3.125   5.806   5.247  0.3335 -0.1804 -0.2890
14228TIP3    H164175   3.064   5.869   5.287  0.7834 -0.1056  0.2804
14228TIP3    H264176   3.198   5.860   5.216  1.3270 -0.5681  1.3628
14229TIP3   OH264177   3.826   2.879   0.134  0.5422  0.5065 -0.3021
14229TIP3    H164178   3.825   2.783   0.139 -1.5129  0.4740 -0.9615
14229TIP3    H264179   3.863   2.898   0.047  0.2448  0.2832 -0.4801
14230TIP3   OH264180   5.766   6.119  16.217 -0.2643  0.1249 -0.7138
14230TIP3    H164181   5.826   6.161  16.278 -1.5815 -0.3688  0.9599
14230TIP3    H264182   5.823   6.067  16.159  1.0211  0.9209 -0.1865
14231TIP3   OH264183   1.763   4.794  13.266 -0.4567 -0.4044  0.0723
14231TIP3    H164184   1.674   4.803  13.232 -0.7922  0.9436  1.2672
14231TIP3    H264185   1.819   4.820  13.193 -1.0325 -1.2265 -0.6771
14232TIP3   OH264186   4.615   6.519  14.632  0.0479  0.0384 -0.5292
14232TIP3    H164187   4.571   6.595  14.670 -1.1184 -0.4989 -0.7795
14232TIP3    H264188   4.610   6.533  14.538 -2.4554 -1.5396 -0.7018
14233TIP3   OH264189   6.584   0.034  14.281 -0.2164 -0.1597 -0.1545
14233TIP3    H164190   6.645   0.101  14.312  0.5125 -0.2898 -1.2868
14233TIP3    H264191   6.498   0.068  14.303  0.2362  0.2224  1.0842
14234TIP3   OH264192   4.550   0.152   5.155  0.7367 -0.6963  0.1027
14234TIP3    H164193   4.619   0.181   5.215  0.9363  0.4429 -0.6379
14234TIP3    H264194   4.596   0.102   5.088  0.9387  0.4513 -0.6431
14235TIP3   OH264195   2.807   6.586   5.712  0.0132 -0.1953  0.0651
14235TIP3    H164196   2.749   6.522   5.753  0.7061 -0.1020  1.2141
14235TIP3    H264197   2.748   6.648   5.669 -0.6714 -1.4283 -0.8167
14236TIP3   OH264198   3.468   6.488   2.350  0.0339  0.6265 -0.2502
14236TIP3    H164199   3.478   6.519   2.260 -1.0241  1.0957 -0.2143
14236TIP3    H264200   3.420   6.406   2.343  0.7466  0.1917 -0.1673
14237TIP3   OH264201   1.875   4.309  12.317 -0.6261  0.1741  0.1764
14237TIP3    H164202   1.841   4.305  12.406 -1.0830 -0.8112 -0.0342
14237TIP3    H264203   1.797   4.305  12.262 -0.1393 -3.6657 -0.3606
14238TIP3   OH264204   3.070   1.699   3.662  0.0235  0.5405  0.0293
14238TIP3    H164205   3.022   1.625   3.625 -0.5627  0.1731  1.4861
14238TIP3    H264206   3.049   1.772   3.604  1.5994 -0.6751 -2.1289
14239TIP3   OH264207   2.099   5.945   5.297  0.5817  0.1055 -0.0240
14239TIP3    H164208   2.124   5.949   5.205 -1.0652  0.8828 -0.4617
14239TIP3    H264209   2.089   6.037   5.323 -3.0454 -0.1447 -0.2636
14240TIP3   OH264210   4.476   2.510   2.649 -0.2472 -0.2592  0.4780
14240TIP3    H164211   4.564   2.526   2.615 -0.3105  0.1347  0.4912
14240TIP3    H264212   4.420   2.513   2.572 -0.2105 -0.8518  0.4229
14241TIP3   OH264213   2.513   2.641   5.705 -0.3801  0.3088  0.1335
14241TIP3    H164214   2.429   2.650   5.659 -0.1183 -0.7810 -0.5528
14241TIP3    H264215   2.579   2.666   5.640 -0.0395 -0.8204  0.0448
14242TIP3   OH264216   3.581   1.482  15.643  0.5519 -0.7243  0.1362
14242TIP3    H164217   3.535   1.448  15.566  1.0810 -0.3605 -0.3390
14242TIP3    H264218   3.541   1.568  15.659  3.0630  0.9316 -2.0716
14243TIP3   OH264219   5.626   0.888   4.929 -0.0797  0.7112  0.3740
14243TIP3    H164220   5.689   0.826   4.893 -1.6788 -0.8071  0.1033
14243TIP3    H264221   5.678   0.946   4.985  1.8615  0.8362 -1.5072
14244TIP3   OH264222   2.970   6.397   4.875  0.0574  0.0085 -0.4219
14244TIP3    H164223   3.064   6.402   4.861 -0.1921  0.5872 -1.9982
14244TIP3    H264224   2.933   6.388   4.787 -1.6819  4.5786 -0.2557
14245TIP3   OH264225   0.481   0.713  13.877  0.2333  0.4880  0.1424
14245TIP3    H164226   0.552   0.699  13.815  0.1792 -0.0781  0.2049
14245TIP3    H264227   0.494   0.802  13.910  0.4013  0.6990 -0.5027
14246TIP3   OH264228   3.245   3.391   3.803 -0.5059 -0.3364  0.7225
14246TIP3    H164229   3.246   3.310   3.751  1.0534 -1.6656  2.7177
14246TIP3    H264230   3.171   3.440   3.770 -1.5698 -2.6580 -0.4712
14247TIP3   OH264231   1.135   4.820  15.495 -0.1777  0.0779 -0.5138
14247TIP3    H164232   1.121   4.863  15.410 -0.8390 -0.4553 -0.6774
14247TIP3    H264233   1.139   4.892  15.558  0.3959  0.4827 -1.0031
14248TIP3   OH264234   0.092   4.187  16.004 -0.2238 -0.4901  0.0394
14248TIP3    H164235   0.066   4.269  15.962  0.1282 -0.4459 -0.1014
14248TIP3    H264236   0.097   4.124  15.932  1.1382 -0.2304 -0.1206
14249TIP3   OH264237   3.434   0.753   2.769  0.7950  0.5383  0.4200
14249TIP3    H164238   3.451   0.668   2.729  3.3138  0.9008  0.6805
14249TIP3    H264239   3.364   0.736   2.833  0.6024 -1.1245 -0.2306
14250TIP3   OH264240   5.011   2.203  14.065 -0.0901 -0.1377 -0.1269
14250TIP3    H164241   5.054   2.144  14.128  0.5091  0.7099  0.2633
14250TIP3    H264242   5.056   2.286  14.076 -1.1960  0.5007 -0.4037
14251TIP3   OH264243   1.088   0.064   0.604  0.2746  0.0841 -0.4713
14251TIP3    H164244   1.164   0.115   0.580  0.7602 -1.1255 -1.5773
14251TIP3    H264245   1.052   0.108   0.681  1.6192  1.1121 -0.4247
14252TIP3   OH264246   4.607   1.653   2.695 -0.0120  0.1331  0.5820
14252TIP3    H164247   4.527   1.703   2.708 -0.4775 -0.0058 -1.4672
14252TIP3    H264248   4.577   1.569   2.658  1.0214 -0.1161  0.2714
14253TIP3   OH264249   6.130   6.582   0.757  0.0400  0.0807  0.4590
14253TIP3    H164250   6.179   6.614   0.833  3.4838  2.2509 -2.5386
14253TIP3    H264251   6.146   6.488   0.756  1.5605  0.3218  1.2744
14254TIP3   OH264252   5.416   0.642  14.033  0.3761 -0.1266  0.5589
14254TIP3    H164253   5.478   0.595  13.978 -0.5276 -0.9793  0.2591
14254TIP3    H264254   5.461   0.650  14.117 -0.2531 -3.4779  1.3137
14255TIP3   OH264255   1.174   1.532  16.267  0.5178 -0.0284  0.1677
14255TIP3    H164256   1.255   1.551  16.220 -0.3339  1.7649 -0.6232
14255TIP3    H264257   1.110   1.514  16.198  0.1872 -1.2545  0.7841
14256TIP3   OH264258   1.285   3.801   2.284  0.4827 -0.1013  0.0832
14256TIP3    H164259   1.192   3.784   2.275  0.6916 -0.2763 -1.9914
14256TIP3    H264260   1.291   3.890   2.317 -0.4111  0.2513 -0.7018
14257TIP3   OH264261   2.178   5.844   0.892 -0.2679 -0.2592  0.1456
14257TIP3    H164262   2.249   5.848   0.828  0.2175  2.3350  0.7895
14257TIP3    H264263   2.221   5.857   0.976 -1.2559 -0.8256  0.7443
14258TIP3   OH264264   1.021   3.595  15.350 -0.4821 -0.4283  0.7499
14258TIP3    H164265   1.108   3.614  15.313 -0.6783 -0.6409  0.1714
14258TIP3    H264266   1.039   3.546  15.430 -0.1259 -3.2820 -1.0053
14259TIP3   OH264267   2.693   6.685  14.896 -0.5672 -0.7945 -0.1908
14259TIP3    H164268   2.785   6.665  14.879 -1.0105 -0.6364 -2.9962
14259TIP3    H264269   2.646   6.606  14.871 -1.4851  0.3705 -2.2808
14260TIP3   OH264270   1.076   2.670  11.767  0.4143 -0.0237  0.3001
14260TIP3    H164271   1.123   2.749  11.742 -1.2156  0.1488 -2.5179
14260TIP3    H264272   1.068   2.675  11.862  0.6967  2.9966  0.2118
14261TIP3   OH264273   3.958   1.864   5.443  0.5549 -0.4801  0.2583
14261TIP3    H164274   3.997   1.951   5.439  1.1354 -0.6833  1.2389
14261TIP3    H264275   4.027   1.808   5.479  0.9186 -1.8062 -2.4248
14262TIP3   OH264276   4.307   1.352  12.478  0.0348 -0.1325 -0.2282
14262TIP3    H164277   4.328   1.286  12.545  0.1868 -1.1806 -1.2876
14262TIP3    H264278   4.253   1.305  12.415 -1.6516  1.3326  0.0849
14263TIP3   OH264279   6.116   2.934  13.395 -0.0807  0.8432  0.4117
14263TIP3    H164280   6.025   2.960  13.380  0.6800  2.9356 -0.6684
14263TIP3    H264281   6.142   2.983  13.473  0.0670  0.0784  0.8489
14264TIP3   OH264282   1.560   0.592   5.893 -0.1325  0.6446 -0.0427
14264TIP3    H164283   1.507   0.640   5.956 -0.8854 -0.4671  0.1981
14264TIP3    H264284   1.498   0.568   5.823  0.0236 -0.7433  0.2885
14265TIP3   OH264285   2.291   2.445   5.958 -1.0110  0.1575 -0.5595
14265TIP3    H164286   2.197   2.461   5.952 -1.2426 -0.3782  1.2193
14265TIP3    H264287   2.312   2.464   6.050  0.5509 -0.0687 -0.8617
14266TIP3   OH264288   6.325   2.174   0.131 -0.3560  0.2893  0.0177
14266TIP3    H164289   6.304   2.210   0.217  0.6746  1.1800 -0.0968
14266TIP3    H264290   6.243   2.179   0.082 -0.3709  1.9589  0.1985
14267TIP3   OH264291   2.134   0.082   1.507 -0.5387 -0.1625 -0.5008
14267TIP3    H164292   2.095   0.001   1.542  0.4240  0.3528  1.8736
14267TIP3    H264293   2.088   0.152   1.553 -1.7149  0.7118 -2.9203
14268TIP3   OH264294   0.981   2.329  12.698 -0.5390 -0.0866  0.5098
14268TIP3    H164295   0.892   2.294  12.696  0.3155 -2.4129  2.1595
14268TIP3    H264296   1.017   2.307  12.612 -0.9537 -0.7271  0.4968
14269TIP3   OH264297   6.434   6.353   2.906 -0.1389  0.3483  0.1321
14269TIP3    H164298   6.471   6.329   2.990 -0.2890 -0.1790  0.0486
14269TIP3    H264299   6.510   6.372   2.851 -0.0543  1.3046  0.5593
14270TIP3   OH264300   4.945   1.000  12.210  0.0806 -0.2036  0.2983
14270TIP3    H164301   4.997   0.937  12.161 -1.9737 -0.0141 -2.2790
14270TIP3    H264302   5.000   1.078  12.215  2.4129 -1.9530  3.0347
14271TIP3   OH264303   6.313   6.727  14.424  0.0671  1.0947 -0.5580
14271TIP3    H164304   6.238   6.702  14.370 -0.6069  0.8088  0.5057
14271TIP3    H264305   6.318   6.822  14.416  0.4378  0.9922 -1.7204
14272TIP3   OH264306   4.079   3.600   6.486  0.1744 -0.1142  0.1568
14272TIP3    H164307   4.162   3.561   6.511  1.0136  2.2230  1.2208
14272TIP3    H264308   4.018   3.575   6.555  0.5666 -0.0053  0.5447
14273TIP3   OH264309   5.236   6.009  11.622 -0.4381  0.4593  0.2986
14273TIP3    H164310   5.301   6.078  11.611  0.2399 -0.2743 -0.3652
14273TIP3    H264311   5.260   5.967  11.705  0.4366 -0.3136 -0.3251
14274TIP3   OH264312   2.440   3.617  12.831  0.2787 -0.2429 -0.4131
14274TIP3    H164313   2.405   3.588  12.916 -0.7583 -1.7285 -1.3334
14274TIP3    H264314   2.534   3.605  12.839  0.0528 -1.7890  0.0082
14275TIP3   OH264315   2.332   6.685  15.104 -0.3337  0.2508  0.1932
14275TIP3    H164316   2.253   6.719  15.147 -0.4579  1.5535 -1.0099
14275TIP3    H264317   2.356   6.754  15.042  0.3389 -1.2014 -1.1815
14276TIP3   OH264318   3.585   3.793   1.659  0.7362 -0.2446 -0.0771
14276TIP3    H164319   3.501   3.803   1.705 -0.0890 -0.7908 -1.4362
14276TIP3    H264320   3.651   3.804   1.728 -0.4665 -1.0592  1.2417
14277TIP3   OH264321   3.015   0.276  14.492  0.2533  0.9125 -0.1845
14277TIP3    H164322   3.081   0.341  14.515  0.8776  0.5823 -1.0063
14277TIP3    H264323   3.047   0.237  14.410  0.5756 -1.3734  1.0032
14278TIP3   OH264324   3.333   4.527  11.002  0.2966 -0.1216  0.5295
14278TIP3    H164325   3.311   4.461  10.936  0.9068  1.1056 -0.9202
14278TIP3    H264326   3.253   4.579  11.011  0.6230  0.5247 -0.2257
14279TIP3   OH264327   2.277   0.908  14.124  0.3102 -0.1718 -0.1832
14279TIP3    H164328   2.212   0.964  14.167 -0.3653 -0.8334 -0.3307
14279TIP3    H264329   2.290   0.836  14.185  0.2411 -0.4958 -0.5470
14280TIP3   OH264330   5.875   0.693  14.085 -0.1739 -0.7103 -0.2395
14280TIP3    H164331   5.969   0.710  14.087 -0.0332 -1.3060 -1.3442
14280TIP3    H264332   5.865   0.622  14.021 -1.2147 -1.6246  0.9111
14281TIP3   OH264333   5.386   3.284   6.325 -0.1463 -0.1327  0.5584
14281TIP3    H164334   5.423   3.364   6.361 -2.8364  1.4552 -0.0603
14281TIP3    H264335   5.438   3.214   6.364  1.7038  1.8428  1.7850
14282TIP3   OH264336   5.837   0.149  13.115  0.1301  0.1005  0.1747
14282TIP3    H164337   5.887   0.231  13.118  1.1556 -0.5058 -0.1166
14282TIP3    H264338   5.892   0.086  13.163 -0.7602 -0.3549  0.6018
14283TIP3   OH264339   1.366   0.508   1.797  0.4352  0.2541  0.4836
14283TIP3    H164340   1.427   0.556   1.854  0.0810  0.2628  0.8565
14283TIP3    H264341   1.355   0.565   1.721  0.1647  0.6823  0.8399
14284TIP3   OH264342   5.458   6.076  11.999 -0.4360  0.1737  0.4288
14284TIP3    H164343   5.442   6.157  11.950 -1.1817 -0.1768  0.0811
14284TIP3    H264344   5.372   6.051  12.033 -0.3644 -0.9211 -0.1669
14285TIP3   OH264345   0.308   6.768   3.273 -0.2978  1.2998  0.5823
14285TIP3    H164346   0.356   6.848   3.252 -2.2768  2.5546  0.7505
14285TIP3    H264347   0.248   6.756   3.199  2.7291 -2.3285 -1.5136
14286TIP3   OH264348   5.155   0.869   4.900 -0.4137  0.1220  0.6923
14286TIP3    H164349   5.237   0.851   4.947  0.1556  1.7168  0.3451
14286TIP3    H264350   5.088   0.873   4.969  0.2056  1.2110  1.2451
14287TIP3   OH264351   2.864   4.083   4.533 -0.5393 -0.3423 -0.2323
14287TIP3    H164352   2.808   4.043   4.599  0.8170  0.4595  1.4460
14287TIP3    H264353   2.855   4.177   4.547 -0.3957 -0.1548 -1.3235
14288TIP3   OH264354   2.803   5.645   5.546  0.0895  0.0323 -0.3056
14288TIP3    H164355   2.842   5.658   5.460  0.1633  0.4578 -0.2103
14288TIP3    H264356   2.791   5.734   5.581  1.1118 -0.1681  0.5906
14289TIP3   OH264357   6.783   3.011   4.684 -0.4574 -0.1156 -0.4325
14289TIP3    H164358   6.707   3.018   4.743 -1.0235 -1.4333 -0.9794
14289TIP3    H264359   6.746   2.980   4.601  0.6499 -0.4741 -0.8015
14290TIP3   OH264360   6.687   4.838   3.348 -0.3858  0.3809  0.3885
14290TIP3    H164361   6.752   4.887   3.397  0.6885  0.0027 -0.6264
14290TIP3    H264362   6.603   4.874   3.376  0.3436  2.2611  0.2250
14291TIP3   OH264363   2.720   6.180   0.383 -0.7006 -0.3555  0.2499
14291TIP3    H164364   2.683   6.239   0.317 -0.1605  0.1220  0.3781
14291TIP3    H264365   2.813   6.173   0.360 -0.8594 -1.5457 -0.0628
14292TIP3   OH264366   6.300   0.116   5.427 -0.3191 -0.2840 -0.2702
14292TIP3    H164367   6.348   0.088   5.505 -0.3488 -1.6932 -0.7448
14292TIP3    H264368   6.210   0.131   5.459 -0.2702 -0.5899  0.0154
14293TIP3   OH264369   3.776   1.460   5.430  0.6328  0.0201  0.6987
14293TIP3    H164370   3.829   1.515   5.487  3.6690  0.8523 -2.7664
14293TIP3    H264371   3.738   1.520   5.367 -0.5750 -1.1914  0.2525
14294TIP3   OH264372   1.452   1.051  13.647 -0.3822  0.0054  0.1242
14294TIP3    H164373   1.462   1.113  13.575 -1.3801  1.5313  1.2622
14294TIP3    H264374   1.526   1.069  13.705 -2.3369  2.2865  1.9900
14295TIP3   OH264375   0.195   3.381  15.834 -0.5852 -0.0290 -1.0719
14295TIP3    H164376   0.104   3.408  15.821  0.6581  4.4768 -1.3279
14295TIP3    H264377   0.231   3.376  15.746 -0.5006 -1.5619 -0.9557
14296TIP3   OH264378   6.133   2.334  12.316  0.1311 -0.3070 -0.3448
14296TIP3    H164379   6.194   2.342  12.389  0.6051 -0.4740 -0.7210
14296TIP3    H264380   6.181   2.368  12.241 -0.5060  0.2669 -0.5022
14297TIP3   OH264381   4.397   3.753   2.851  0.4073 -0.0524  0.0822
14297TIP3    H164382   4.362   3.788   2.769 -1.1859  1.3365  1.3201
14297TIP3    H264383   4.401   3.658   2.837 -1.4102  0.0154 -1.0126
14298TIP3   OH264384   2.080   0.470   6.350 -0.0191  0.2946  0.0110
14298TIP3    H164385   2.106   0.561   6.334  0.5061  0.1000 -0.2311
14298TIP3    H264386   2.149   0.417   6.311  1.5368 -0.2066  3.2362
14299TIP3   OH264387   5.329   2.069  15.447 -0.2465 -0.1029 -0.3774
14299TIP3    H164388   5.414   2.107  15.470  0.0065 -1.4053  0.8672
14299TIP3    H264389   5.348   2.012  15.373 -0.1229 -0.0417 -0.3921
14300TIP3   OH264390   3.184   6.646  14.388 -0.3183 -0.2096  0.2456
14300TIP3    H164391   3.116   6.714  14.398 -0.7069 -0.5726  0.0835
14300TIP3    H264392   3.223   6.664  14.302  2.3215  2.2749  1.8894
14301TIP3   OH264393   4.954   1.536   0.708  0.0630  0.3547  0.3465
14301TIP3    H164394   4.860   1.520   0.711  0.1165  0.1539  1.0078
14301TIP3    H264395   4.968   1.610   0.766  0.2922  0.4749  0.1364
14302TIP3   OH264396   1.552   3.399   4.409  0.1153  0.1312  0.0303
14302TIP3    H164397   1.603   3.467   4.364 -0.6269  0.7947  0.1681
14302TIP3    H264398   1.509   3.351   4.338  1.3332 -0.7552 -0.1078
14303TIP3   OH264399   6.233   4.460  10.630 -0.2049  0.2747  0.1154
14303TIP3    H164400   6.283   4.523  10.578  2.6428 -1.1970  0.9754
14303TIP3    H264401   6.298   4.420  10.688 -1.9591 -3.2804 -0.2366
14304TIP3   OH264402   6.325   1.975   4.793 -0.1442 -0.6077  0.2260
14304TIP3    H164403   6.332   2.069   4.778  1.5261 -0.6279  0.8031
14304TIP3    H264404   6.247   1.949   4.744 -1.3630  1.2783  1.1118
14305TIP3   OH264405   6.724   6.045   0.696 -0.5562  0.0455  0.4527
14305TIP3    H164406   6.700   6.028   0.787  0.1126 -0.0201  0.6219
14305TIP3    H264407   6.782   5.973   0.673  0.1370  0.6478  0.3138
14306TIP3   OH264408   5.672   1.375   6.216 -0.3879  0.0221 -0.4240
14306TIP3    H164409   5.698   1.293   6.258 -0.7172 -0.6500 -1.4874
14306TIP3    H264410   5.656   1.350   6.124 -0.0560  1.3637 -0.8567
14307TIP3   OH264411   3.928   5.490   5.471  0.6622  0.1433 -0.4260
14307TIP3    H164412   3.984   5.439   5.530 -0.0811 -0.8478 -0.5551
14307TIP3    H264413   3.974   5.572   5.459  2.3224 -0.8383 -0.9187
14308TIP3   OH264414   2.463   2.496   0.893 -0.1545  0.2775  0.2236
14308TIP3    H164415   2.436   2.407   0.913  1.3203 -0.6086 -1.6440
14308TIP3    H264416   2.397   2.528   0.832  0.7093 -0.4388 -1.0982
14309TIP3   OH264417   4.630   4.406   6.301 -0.5405  0.3772 -0.1193
14309TIP3    H164418   4.539   4.415   6.328 -0.0059 -0.4330  2.1002
14309TIP3    H264419   4.674   4.482   6.339 -0.1377  0.3220 -0.4714
14310TIP3   OH264420   3.088   3.093   5.263  0.2339 -0.1927  0.3393
14310TIP3    H164421   3.107   3.182   5.234 -1.5916  0.2694  0.5118
14310TIP3    H264422   3.100   3.095   5.358 -2.1927  0.5237  0.6584
14311TIP3   OH264423   5.856   0.486  11.336 -0.4709  0.1435  0.5992
14311TIP3    H164424   5.835   0.558  11.276 -0.9247 -0.5297 -0.0519
14311TIP3    H264425   5.777   0.432  11.337  0.4708 -1.2653 -0.2237
14312TIP3   OH264426   0.719   2.519  13.888  0.2707 -0.8220  0.3214
14312TIP3    H164427   0.645   2.513  13.828  1.3999 -0.8276 -1.1011
14312TIP3    H264428   0.741   2.428  13.910  2.9588 -1.1163 -3.1903
14313TIP3   OH264429   1.562   3.789  16.307 -0.0841 -0.4002 -0.2931
14313TIP3    H164430   1.594   3.720  16.250  2.7124 -0.2366  0.9987
14313TIP3    H264431   1.504   3.841  16.252 -0.4435 -2.4513 -1.8945
14314TIP3   OH264432   6.482   0.057  11.829  0.3808 -0.4786  0.4181
14314TIP3    H164433   6.455   0.118  11.898 -0.1227 -1.1308  0.8007
14314TIP3    H264434   6.400   0.035  11.784  0.4338 -1.5685  0.8535
14315TIP3   OH264435   1.621   3.666   1.211 -0.2353  0.5770 -0.3208
14315TIP3    H164436   1.527   3.659   1.193 -0.5995 -0.9432  2.0107
14315TIP3    H264437   1.628   3.744   1.266  0.0290  1.3408 -1.4221
14316TIP3   OH264438   1.502   2.311  13.295  0.5556 -0.5239  0.8919
14316TIP3    H164439   1.498   2.347  13.206 -1.2970 -1.4790  0.5586
14316TIP3    H264440   1.592   2.325  13.323  0.9569  0.5031 -0.8397
14317TIP3   OH264441   6.068   4.729   4.996 -0.7019  0.5648  0.2051
14317TIP3    H164442   6.102   4.733   4.907  1.5727 -1.7143  0.9254
14317TIP3    H264443   6.074   4.818   5.029  0.1179  1.0680 -1.3142
14318TIP3   OH264444   5.462   1.104  16.267 -0.1680  0.0301 -0.0686
14318TIP3    H164445   5.511   1.091  16.186 -0.8254 -0.6138 -0.3658
14318TIP3    H264446   5.370   1.105  16.240 -0.2821  2.9384  0.2570
14319TIP3   OH264447   0.111   1.043   3.017 -0.0309  0.2003 -0.0991
14319TIP3    H164448   0.144   1.004   2.936  1.4234  1.1574  0.0087
14319TIP3    H264449   0.069   0.970   3.063 -1.3091 -0.2439 -1.9266
14320TIP3   OH264450   5.457   6.194  16.897  0.4883 -0.3064 -0.4556
14320TIP3    H164451   5.363   6.211  16.908  0.3758 -0.8679 -0.5401
14320TIP3    H264452   5.474   6.213  16.805  0.2347 -1.2319 -0.7016
14321TIP3   OH264453   6.046   4.966  11.868  0.0488 -0.4710 -0.1629
14321TIP3    H164454   5.980   4.988  11.932  1.3272  0.0367  1.0027
14321TIP3    H264455   6.091   5.048  11.849  1.9655 -1.2322  0.9234
14322TIP3   OH264456   4.480   0.612   5.208  0.3153 -0.2386  0.5205
14322TIP3    H164457   4.559   0.639   5.255 -0.1708  2.7256 -0.2477
14322TIP3    H264458   4.511   0.578   5.125  0.7895  1.3971  0.0102
14323TIP3   OH264459   3.420   3.486   4.206 -0.0534  0.0922  0.2781
14323TIP3    H164460   3.372   3.466   4.286 -0.9726  0.6077 -0.1335
14323TIP3    H264461   3.393   3.419   4.144  2.0006 -1.3673  0.8991
14324TIP3   OH264462   1.807   5.235  14.713  0.0972 -0.1040  0.2590
14324TIP3    H164463   1.765   5.275  14.636  0.0391 -0.5382  0.0652
14324TIP3    H264464   1.897   5.218  14.685  0.3603  0.6517  0.6128
14325TIP3   OH264465   5.506   5.995  11.338  0.2675 -0.0360  0.6386
14325TIP3    H164466   5.478   6.083  11.314  1.6272  0.0558 -0.5975
14325TIP3    H264467   5.499   5.944  11.257  0.1033 -0.9147  1.1947
14326TIP3   OH264468   4.208   5.482  17.202  0.3547  0.0276  0.0457
14326TIP3    H164469   4.225   5.557  17.259 -2.2465  0.1057  0.7583
14326TIP3    H264470   4.238   5.511  17.116 -1.0991  2.1387  0.2002
14327TIP3   OH264471   3.769   5.484   5.020  0.6229 -0.3559  0.5680
14327TIP3    H164472   3.711   5.532   4.961  0.4877 -0.6559  0.4524
14327TIP3    H264473   3.722   5.402   5.037  2.0058 -1.5800 -1.3187
14328TIP3   OH264474   0.974   0.669   3.133  0.0734  0.1290  0.3968
14328TIP3    H164475   0.880   0.683   3.147  0.2299  1.1802  0.4287
14328TIP3    H264476   1.014   0.753   3.155  1.1943 -0.7993  2.0725
14329TIP3   OH264477   6.783   2.737  12.546 -0.4318 -0.0302  0.4672
14329TIP3    H164478   6.713   2.759  12.484 -1.8024  0.4740  2.1477
14329TIP3    H264479   6.864   2.765  12.503 -1.3470  0.1080 -1.1738
14330TIP3   OH264480   0.262   4.120  11.454  0.1494  0.0175  0.2878
14330TIP3    H164481   0.346   4.108  11.497  0.8110 -0.8853 -1.2163
14330TIP3    H264482   0.226   4.200  11.492  1.3327 -0.0154  1.4912
14331TIP3   OH264483   2.158   1.873  11.495 -0.6649 -0.3772 -0.0693
14331TIP3    H164484   2.104   1.857  11.572  1.0618 -0.3990  1.1612
14331TIP3    H264485   2.242   1.831  11.515  0.0753  0.3123 -1.6274
14332TIP3   OH264486   1.258   1.988  15.133  0.3671  0.0244  0.3473
14332TIP3    H164487   1.186   1.937  15.170 -0.6679  1.6982  0.6847
14332TIP3    H264488   1.217   2.068  15.101  2.1232  1.0949  0.7401
14333TIP3   OH264489   3.885   0.873   6.394 -0.5662  0.2524 -0.2846
14333TIP3    H164490   3.849   0.854   6.481 -0.1543 -1.7170 -0.5246
14333TIP3    H264491   3.965   0.922   6.411 -0.8131  0.4219  0.4116
14334TIP3   OH264492   1.701   1.994   4.922 -0.0467 -0.1201 -0.1389
14334TIP3    H164493   1.772   1.930   4.922 -0.5343 -0.6654 -0.6734
14334TIP3    H264494   1.741   2.074   4.955  0.4014 -0.8807  1.1913
14335TIP3   OH264495   0.220   5.154  12.803  0.1600 -0.3503  0.1444
14335TIP3    H164496   0.200   5.103  12.724  0.1521  1.3543 -0.9643
14335TIP3    H264497   0.138   5.155  12.853  0.1909 -1.5036  0.2524
14336TIP3   OH264498   6.101   2.109  11.174 -0.0248  0.0638  0.0453
14336TIP3    H164499   6.093   2.025  11.128  2.4391  0.5061 -1.2681
14336TIP3    H264500   6.085   2.175  11.106 -1.9560  0.6813  1.0717
14337TIP3   OH264501   2.524   2.191   1.868  0.3404  0.2912  0.2176
14337TIP3    H164502   2.437   2.217   1.899 -0.0144  0.7347 -1.0818
14337TIP3    H264503   2.538   2.104   1.906 -0.6790  0.2201  0.4439
14338TIP3   OH264504   2.602   5.909  15.927 -0.1074 -0.0732 -0.1507
14338TIP3    H164505   2.604   5.965  15.849 -1.7465  1.6996  1.0368
14338TIP3    H264506   2.544   5.837  15.903 -3.4281  2.2287  0.4813
14339TIP3   OH264507   6.725   6.764   5.196  0.0902 -0.4247  0.3807
14339TIP3    H164508   6.668   6.706   5.145 -2.8178  0.1058  2.8619
14339TIP3    H264509   6.745   6.836   5.137 -0.1611 -1.6445 -1.2088
14340TIP3   OH264510   3.470   5.973  13.799  0.0091 -0.9028  0.2365
14340TIP3    H164511   3.559   6.009  13.805 -0.2824 -0.4250  2.2228
14340TIP3    H264512   3.427   6.006  13.878 -2.0112 -0.9327 -0.8392
14341TIP3   OH264513   3.387   1.714   4.671 -0.6412 -0.3254  0.2884
14341TIP3    H164514   3.324   1.786   4.681  0.9674  1.2373 -0.6838
14341TIP3    H264515   3.333   1.635   4.672 -2.7757  1.0507 -1.7660
14342TIP3   OH264516   6.114   6.160  13.696  0.0691  0.2002  0.2403
14342TIP3    H164517   6.029   6.203  13.694  0.1328  0.4223  1.8311
14342TIP3    H264518   6.176   6.227  13.667 -0.2715  0.0932 -0.7392
14343TIP3   OH264519   3.325   5.813   4.569  0.4481  0.0934  0.8195
14343TIP3    H164520   3.249   5.844   4.619  0.0824 -3.1320  2.3532
14343TIP3    H264521   3.364   5.893   4.534 -1.8752  2.0730  2.5725
14344TIP3   OH264522   3.383   2.174   2.641 -0.1060 -0.2870 -0.2945
14344TIP3    H164523   3.378   2.098   2.699 -3.4724 -0.3971 -0.6110
14344TIP3    H264524   3.419   2.139   2.560  0.8652 -0.9757  0.4213
14345TIP3   OH264525   1.114   1.504   5.304 -0.2318 -0.1711 -0.2822
14345TIP3    H164526   1.051   1.576   5.310  1.8109  1.6029  0.2975
14345TIP3    H264527   1.199   1.547   5.294  1.0280 -2.5102  0.0635
14346TIP3   OH264528   3.740   2.537  15.536  0.4117  0.2320 -0.3085
14346TIP3    H164529   3.760   2.589  15.613 -0.3047 -0.9222  0.6793
14346TIP3    H264530   3.647   2.517  15.544  0.4962 -0.5070 -1.0964
14347TIP3   OH264531   0.789   2.419  11.552 -0.4349  0.1816 -0.6554
14347TIP3    H164532   0.696   2.412  11.531 -0.8657  0.4072  1.0780
14347TIP3    H264533   0.828   2.337  11.523 -1.4305 -0.4690 -0.1465
14348TIP3   OH264534   3.470   0.890   3.518 -0.3157  0.0684 -0.0656
14348TIP3    H164535   3.516   0.872   3.601 -0.5188 -1.0536 -0.1911
14348TIP3    H264536   3.540   0.892   3.453 -0.1468  1.0192  0.1331
14349TIP3   OH264537   6.628   3.632  14.855 -0.1227  0.0466 -0.7136
14349TIP3    H164538   6.592   3.696  14.916 -0.5006 -1.6140  0.8522
14349TIP3    H264539   6.711   3.606  14.894 -0.7045 -1.5625 -0.4853
14350TIP3   OH264540   4.970   2.510   2.827  0.3960 -0.0291 -0.6208
14350TIP3    H164541   4.933   2.506   2.915  1.9380 -1.2520  0.0052
14350TIP3    H264542   4.976   2.604   2.808 -1.1969  0.2122  0.0245
14351TIP3   OH264543   5.182   3.400  16.844  0.3830  0.0284  0.5812
14351TIP3    H164544   5.093   3.428  16.863  0.1063 -0.7730  0.5091
14351TIP3    H264545   5.222   3.384  16.930  0.2630 -0.1849  0.6000
14352TIP3   OH264546   3.860   0.626   1.751  0.0342 -0.1769 -0.1915
14352TIP3    H164547   3.810   0.556   1.793 -0.0204  0.2198  0.4185
14352TIP3    H264548   3.883   0.685   1.823  2.3705 -0.9390 -0.2588
14353TIP3   OH264549   6.113   4.289  17.184 -0.0545 -0.0889 -0.3270
14353TIP3    H164550   6.198   4.252  17.160 -0.5283  0.0249 -2.2787
14353TIP3    H264551   6.054   4.260  17.114 -1.8022 -0.7888  1.3976
14354TIP3   OH264552   0.202   2.342  16.900  0.0689  0.5263 -0.1351
14354TIP3    H164553   0.185   2.422  16.950 -1.4874  0.5635 -0.6875
14354TIP3    H264554   0.289   2.313  16.928  0.5782  2.3268  0.1919
14355TIP3   OH264555   3.296   4.191  13.857  0.0759  0.5769 -0.7074
14355TIP3    H164556   3.342   4.274  13.872  2.3506 -0.8914  0.7278
14355TIP3    H264557   3.230   4.187  13.926  0.9964  0.4967  0.1788
14356TIP3   OH264558   6.152   3.273  10.486  0.0038  0.0791 -0.7059
14356TIP3    H164559   6.242   3.247  10.505 -0.1716  0.1721  0.3137
14356TIP3    H264560   6.100   3.194  10.504  0.0879 -0.5686 -3.2282
14357TIP3   OH264561   0.406   2.714   6.045  0.7075 -0.4710 -0.2574
14357TIP3    H164562   0.324   2.687   6.003  1.0674 -3.6639  0.9116
14357TIP3    H264563   0.457   2.754   5.975 -1.1396 -0.0389 -1.3977
14358TIP3   OH264564   4.135   0.443  14.967  0.8330 -0.7874  0.4340
14358TIP3    H164565   4.145   0.349  14.981 -2.2425 -1.4861 -1.5592
14358TIP3    H264566   4.050   0.464  15.006  0.6201  0.7779 -0.8229
14359TIP3   OH264567   1.181   1.945   3.273  0.1385 -0.7875  0.2339
14359TIP3    H164568   1.176   1.955   3.368  2.3987  0.5046  0.2639
14359TIP3    H264569   1.090   1.950   3.244 -0.6206 -1.5084  2.3411
14360TIP3   OH264570   3.695   4.212  16.802 -0.1930  0.2299  0.4146
14360TIP3    H164571   3.764   4.146  16.809 -0.4369 -0.4823 -2.9240
14360TIP3    H264572   3.614   4.164  16.821 -0.1087  0.2863  0.9361
14361TIP3   OH264573   2.868   5.059   2.074  1.0384 -0.2487 -0.3493
14361TIP3    H164574   2.796   5.025   2.022 -1.3300  2.0986  1.3077
14361TIP3    H264575   2.903   4.982   2.120 -0.5170 -1.3742 -1.0259
14362TIP3   OH264576   5.079   3.850   4.994  0.2401  0.5143  0.3164
14362TIP3    H164577   4.996   3.818   4.958 -0.0633  1.1824  0.4138
14362TIP3    H264578   5.056   3.932   5.036  0.9490  0.6764  0.3828
14363TIP3   OH264579   3.853   0.676  12.008 -0.3408 -0.0091 -0.1432
14363TIP3    H164580   3.826   0.760  12.044  0.7239  1.2071 -2.0730
14363TIP3    H264581   3.937   0.694  11.966 -0.1386 -2.0256 -0.6651
14364TIP3   OH264582   4.837   5.445   3.449  0.3983 -0.1232 -0.3238
14364TIP3    H164583   4.858   5.352   3.455  1.2631  0.1625  1.6467
14364TIP3    H264584   4.801   5.467   3.535  1.7482  1.7229 -0.1881
14365TIP3   OH264585   4.944   4.295   4.463 -0.0433 -0.2942  0.0559
14365TIP3    H164586   4.907   4.284   4.375 -0.4668 -0.2644  0.2302
14365TIP3    H264587   5.001   4.372   4.455  2.1935 -1.9800 -0.9239
14366TIP3   OH264588   6.333   0.083  15.226 -0.2016 -0.1473  0.2013
14366TIP3    H164589   6.359   0.077  15.135  0.8581  0.6301  0.4399
14366TIP3    H264590   6.274   0.008  15.240  0.2308 -0.6957 -0.9070
14367TIP3   OH264591   1.094   2.320  15.622 -0.1543 -0.3341  0.2318
14367TIP3    H164592   1.115   2.344  15.531  0.1103 -0.1312  0.3459
14367TIP3    H264593   1.055   2.398  15.659 -0.6991 -0.5669  0.1575
14368TIP3   OH264594   6.635   2.931   5.683  0.7676  0.3179 -0.9212
14368TIP3    H164595   6.724   2.900   5.703 -0.1045 -0.2156  2.4736
14368TIP3    H264596   6.638   3.025   5.701  0.7237  0.3514 -1.0941
14369TIP3   OH264597   3.783   5.953   1.044  0.7142  0.0035 -0.4345
14369TIP3    H164598   3.835   5.876   1.064  0.5534  0.0782  0.2784
14369TIP3    H264599   3.822   5.988   0.964 -0.4602 -1.9376 -1.9009
14370TIP3   OH264600   1.638   3.734  12.552  0.3626 -0.0732  0.2081
14370TIP3    H164601   1.563   3.729  12.611  0.1342 -1.0810 -0.1671
14370TIP3    H264602   1.610   3.795  12.483  0.2153  0.2281  0.5303
14371TIP3   OH264603   4.996   6.275   2.558 -0.9233 -0.2865  0.0512
14371TIP3    H164604   5.035   6.195   2.524  0.1876 -0.1735  1.0604
14371TIP3    H264605   4.901   6.261   2.548 -0.7541 -1.8983  0.6352
14372TIP3   OH264606   1.481   6.196  12.806 -0.4571 -0.0438 -0.1290
14372TIP3    H164607   1.444   6.126  12.751 -0.1115  0.9122 -1.6300
14372TIP3    H264608   1.535   6.247  12.745  1.7419 -0.2499  1.6182
14373TIP3   OH264609   6.659   4.341  13.463 -0.5117  0.2557  0.1500
14373TIP3    H164610   6.697   4.322  13.549 -1.3555  0.8346  0.6530
14373TIP3    H264611   6.614   4.425  13.474 -1.5228 -0.1856 -0.5794
14374TIP3   OH264612   3.014   1.963  12.687  0.5358 -0.0136  0.2653
14374TIP3    H164613   3.094   1.910  12.687  0.3894 -0.2394  1.4480
14374TIP3    H264614   3.046   2.053  12.675  0.9947 -0.0703  1.0460
14375TIP3   OH264615   4.404   1.083   2.825 -0.2691  0.6408 -0.1567
14375TIP3    H164616   4.377   1.058   2.736  2.4449  1.5912 -1.3118
14375TIP3    H264617   4.421   1.177   2.819 -0.1014  0.7118  1.3681
14376TIP3   OH264618   4.474   1.790   0.808 -0.5132  0.0753  0.0798
14376TIP3    H164619   4.464   1.736   0.730 -0.1583 -0.0490  0.1217
14376TIP3    H264620   4.463   1.880   0.776 -2.0659 -0.0669  0.1719
14377TIP3   OH264621   2.132   4.775   5.035 -0.7702 -0.0605  0.3201
14377TIP3    H164622   2.195   4.816   5.095 -0.4855 -0.7364  0.4903
14377TIP3    H264623   2.097   4.701   5.085 -0.7971 -0.4148 -0.2224
14378TIP3   OH264624   6.023   5.433  12.878 -0.1789 -0.0671 -0.0249
14378TIP3    H164625   5.987   5.497  12.817  3.3289  2.1074  0.0533
14378TIP3    H264626   6.030   5.353  12.827  2.9178  1.7773 -2.6173
14379TIP3   OH264627   2.716   4.854  17.150  0.5029  0.2019 -0.4664
14379TIP3    H164628   2.731   4.905  17.230 -0.7834  0.1588 -0.1861
14379TIP3    H264629   2.656   4.908  17.098  1.3745  0.2534 -1.4383
14380TIP3   OH264630   4.992   0.996   0.811  0.4836 -0.0935 -0.6929
14380TIP3    H164631   4.940   0.967   0.736  0.9238  0.5396 -1.2402
14380TIP3    H264632   4.929   1.001   0.883  0.0981 -0.9022 -0.9650
14381TIP3   OH264633   2.210   6.015  15.329 -0.2343 -0.6565  0.1313
14381TIP3    H164634   2.168   6.030  15.245  0.7592  0.1120 -0.2382
14381TIP3    H264635   2.156   5.948  15.371 -1.4283 -0.1828 -0.6093
14382TIP3   OH264636   4.255   6.079  12.654  0.6284  0.4448  0.3621
14382TIP3    H164637   4.163   6.079  12.681  1.0115 -1.3818  1.8178
14382TIP3    H264638   4.253   6.064  12.560 -0.5614 -0.7360  0.5500
14383TIP3   OH264639   4.317   3.970  10.837 -0.1595 -0.7617  0.2433
14383TIP3    H164640   4.379   3.898  10.826  2.8564  1.5427  1.4932
14383TIP3    H264641   4.240   3.929  10.878  0.8784 -3.5145 -0.4227
14384TIP3   OH264642   6.529   5.467   2.809  0.2050 -0.1886 -0.0637
14384TIP3    H164643   6.470   5.537   2.835  1.4700  0.0542  2.3533
14384TIP3    H264644   6.472   5.400   2.771 -1.2391  1.3191 -0.5889
14385TIP3   OH264645   1.823   4.782   4.645  1.1226 -0.6727  0.2106
14385TIP3    H164646   1.783   4.775   4.731 -1.0313 -2.3899 -0.8907
14385TIP3    H264647   1.916   4.762   4.660  0.6234 -1.7334  1.9915
14386TIP3   OH264648   5.606   2.410   1.994 -0.1591  0.0946  0.3427
14386TIP3    H164649   5.642   2.478   2.051  1.7013  0.0936 -0.7640
14386TIP3    H264650   5.602   2.331   2.049  0.6230  0.3472  0.7688
14387TIP3   OH264651   0.395   2.438   1.034  0.2304  0.3402  0.4770
14387TIP3    H164652   0.476   2.397   1.005 -0.7472 -0.1166 -1.8050
14387TIP3    H264653   0.341   2.365   1.065 -0.2445  0.2978 -0.4198
14388TIP3   OH264654   4.076   4.073  14.086  0.2579  0.0018 -0.2164
14388TIP3    H164655   3.998   4.034  14.045 -0.5858  1.1578  0.2657
14388TIP3    H264656   4.092   4.153  14.035 -0.2859  0.9953  1.1305
14389TIP3   OH264657   4.928   1.256  16.719  0.1571  0.1427 -0.5160
14389TIP3    H164658   5.020   1.281  16.712  0.1217  0.2539 -0.6043
14389TIP3    H264659   4.883   1.338  16.740  0.1486 -0.0165  0.0829
14390TIP3   OH264660   6.282   2.588  17.233 -0.1918 -0.0808 -0.1923
14390TIP3    H164661   6.302   2.511  17.179  0.0666  0.8259 -1.4024
14390TIP3    H264662   6.198   2.568  17.274 -0.5227 -0.6680 -1.1484
14391TIP3   OH264663   4.379   1.514  12.082 -1.1634 -0.0401  0.4996
14391TIP3    H164664   4.367   1.422  12.058  1.2581 -0.2613  0.0484
14391TIP3    H264665   4.321   1.562  12.023  1.1111 -0.9452 -2.5702
14392TIP3   OH264666   3.505   3.613  16.690  0.7454  0.6941 -0.1242
14392TIP3    H164667   3.518   3.528  16.647  2.2017  1.2723 -0.8784
14392TIP3    H264668   3.469   3.591  16.776  1.5860 -0.7377 -0.1095
14393TIP3   OH264669   1.253   5.159  17.232  0.4533 -0.5985 -0.0630
14393TIP3    H164670   1.342   5.134  17.259  0.2999 -1.2829 -0.1854
14393TIP3    H264671   1.250   5.254  17.246  0.9085 -0.7043  0.7817
14394TIP3   OH264672   5.416   3.148  15.365  0.3293 -0.3108 -0.9279
14394TIP3    H164673   5.430   3.103  15.282 -1.3554  1.0622 -1.9954
14394TIP3    H264674   5.462   3.231  15.356 -1.8427  0.8875 -1.4785
14395TIP3   OH264675   5.610   5.489   0.403 -0.0049 -0.2727 -0.1678
14395TIP3    H164676   5.611   5.410   0.350  0.6708 -1.2710  1.2905
14395TIP3    H264677   5.560   5.552   0.352  0.2789 -1.3350 -1.7850
14396TIP3   OH264678   1.080   5.537   2.887 -0.3350 -0.0714 -0.3511
14396TIP3    H164679   0.990   5.566   2.895 -0.3439 -0.1721 -0.0845
14396TIP3    H264680   1.125   5.610   2.844 -0.0976  0.8410  1.4099
14397TIP3   OH264681   6.492   4.989  10.866  0.0694 -0.2754 -0.5374
14397TIP3    H164682   6.524   4.926  10.801  0.9941  0.4132 -0.7741
14397TIP3    H264683   6.564   5.052  10.875 -0.6143  0.4267  0.1084
14398TIP3   OH264684   4.263   6.649  17.022  0.1614  0.0293 -0.0496
14398TIP3    H164685   4.199   6.611  16.962  0.2018  0.9839 -0.7001
14398TIP3    H264686   4.346   6.647  16.974  0.5831 -0.9755  0.6959
14399TIP3   OH264687   1.611   0.059  14.325  0.4076 -0.1925 -0.1755
14399TIP3    H164688   1.533   0.004  14.331 -0.0509  0.4395 -0.2271
14399TIP3    H264689   1.674   0.007  14.276 -0.5903 -0.0347 -1.6622
14400TIP3   OH264690   3.255   0.868   1.443 -0.1738 -0.4556  0.3130
14400TIP3    H164691   3.221   0.779   1.434 -2.2413  0.1484  1.8622
14400TIP3    H264692   3.244   0.889   1.536  4.5369 -0.2333  0.9328
14401TIP3   OH264693   0.784   2.033  12.793  0.3876  0.4876  0.0229
14401TIP3    H164694   0.727   1.992  12.859 -0.1560  2.0810  0.5665
14401TIP3    H264695   0.872   2.013  12.823  0.1343 -0.0546  0.4252
14402TIP3   OH264696   2.948   5.661  12.839  0.0003 -0.2173  0.0520
14402TIP3    H164697   2.965   5.755  12.848  0.8144 -0.5093  1.9142
14402TIP3    H264698   2.880   5.655  12.772  0.2201  1.6716 -0.3707
14403TIP3   OH264699   0.170   5.222  11.321 -0.5802  0.4969  0.6705
14403TIP3    H164700   0.087   5.269  11.309 -0.0146  1.5118  0.7558
14403TIP3    H264701   0.204   5.213  11.232 -0.9882 -0.3176  0.5877
14404TIP3   OH264702   1.747   4.773   6.430 -0.4185 -0.1457  0.1943
14404TIP3    H164703   1.671   4.752   6.485 -1.6046  0.2292 -1.2497
14404TIP3    H264704   1.770   4.689   6.389 -0.5536 -0.1153  0.0513
14405TIP3   OH264705   4.957   1.860  13.892  0.0229  0.3292 -0.1671
14405TIP3    H164706   4.977   1.779  13.939  0.8023  0.3063 -0.5400
14405TIP3    H264707   5.039   1.909  13.893  0.3285 -0.1129 -2.3755
14406TIP3   OH264708   6.367   3.591  11.534  0.0582  0.0488  0.1043
14406TIP3    H164709   6.412   3.521  11.580  0.4417  0.0030 -0.3285
14406TIP3    H264710   6.280   3.556  11.514 -0.1762  0.1426  0.9624
14407TIP3   OH264711   3.630   0.409  13.264 -0.6259 -0.5227 -0.5851
14407TIP3    H164712   3.724   0.392  13.260 -0.5864 -0.6833  0.6109
14407TIP3    H264713   3.623   0.497  13.300 -0.9344 -0.6294 -0.3803
14408TIP3   OH264714   1.335   1.362   0.016 -0.3136  0.2442  0.4397
14408TIP3    H164715   1.404   1.331  -0.043 -1.2265  1.2205 -1.1791
14408TIP3    H264716   1.343   1.458   0.014 -1.8866  0.3772 -0.0025
14409TIP3   OH264717   0.856   1.954  12.144  0.8111  0.5732 -0.1103
14409TIP3    H164718   0.878   1.995  12.227  1.2621  0.9689 -0.4210
14409TIP3    H264719   0.940   1.929  12.106  0.6483  0.9203 -0.7096
14410TIP3   OH264720   0.368   2.309   0.123 -0.6563 -0.0141 -0.2881
14410TIP3    H164721   0.305   2.343   0.188 -0.2553 -0.7843  0.5110
14410TIP3    H264722   0.313   2.261   0.060 -0.8651 -0.8245  0.4972
14411TIP3   OH264723   1.386   2.954   3.910  0.9163 -0.7113 -0.5748
14411TIP3    H164724   1.315   2.892   3.892 -1.0383  1.2182  0.3198
14411TIP3    H264725   1.413   2.986   3.824 -1.2674  0.6739 -0.7683
14412TIP3   OH264726   6.347   4.198   5.886  0.4328 -0.0980  0.0377
14412TIP3    H164727   6.317   4.108   5.876 -1.7614  0.5765  0.2417
14412TIP3    H264728   6.364   4.207   5.980  1.3158 -0.4840 -0.0789
14413TIP3   OH264729   3.328   0.019  12.473 -0.1984  0.5112  0.5387
14413TIP3    H164730   3.411   0.024  12.424 -0.6152  2.4582  0.0165
14413TIP3    H264731   3.293  -0.067  12.450  0.9059  0.3191 -0.4919
14414TIP3   OH264732   1.452   3.637   3.719 -0.1911  0.3180 -0.6676
14414TIP3    H164733   1.439   3.691   3.797 -1.5372 -0.9651  0.0090
14414TIP3    H264734   1.407   3.684   3.649 -0.8578  0.3722 -0.2051
14415TIP3   OH264735   1.076   6.123  16.708 -0.2806  0.0251 -0.5534
14415TIP3    H164736   1.000   6.122  16.766  0.2912  1.3498  0.2283
14415TIP3    H264737   1.141   6.177  16.753  1.0340 -0.8469 -1.3431
14416TIP3   OH264738   4.986   6.027  14.089 -0.8431 -0.2460  0.9081
14416TIP3    H164739   4.935   5.948  14.106 -1.0538 -0.1824  0.5752
14416TIP3    H264740   4.951   6.091  14.152 -0.0861 -0.6644  1.7631
14417TIP3   OH264741   0.031   4.442  15.882 -0.0957  0.0560 -0.3892
14417TIP3    H164742  -0.013   4.494  15.950  1.0166 -0.8480  1.0316
14417TIP3    H264743   0.068   4.508  15.823  0.2585  0.8865  0.7269
14418TIP3   OH264744   6.569   2.430  12.227 -0.1402  0.7728  0.0543
14418TIP3    H164745   6.629   2.392  12.163  1.1338  0.2788  1.4926
14418TIP3    H264746   6.626   2.475  12.289 -1.3532  1.3019  0.8026
14419TIP3   OH264747   0.435   0.796   6.582  0.0177  0.3940 -0.6446
14419TIP3    H164748   0.341   0.815   6.586 -0.3906 -1.3656 -1.4571
14419TIP3    H264749   0.448   0.728   6.648  0.8266  0.9764 -0.1912
14420TIP3   OH264750   2.733   2.751   6.759  0.0764  0.2375  0.0151
14420TIP3    H164751   2.669   2.819   6.781  1.7819  1.5215  1.1770
14420TIP3    H264752   2.742   2.699   6.838  3.0397  2.2483  1.1205
14421TIP3   OH264753   0.944   2.468   0.421 -0.2628 -0.0983  0.2648
14421TIP3    H164754   1.018   2.528   0.430 -0.5182  0.1782  0.5286
14421TIP3    H264755   0.973   2.404   0.357  0.6111 -0.6073  1.1504
14422TIP3   OH264756   2.282   6.771  16.321 -0.1521 -0.1134  0.4279
14422TIP3    H164757   2.303   6.818  16.401  1.5538 -0.8437  0.4436
14422TIP3    H264758   2.295   6.835  16.251  0.9404 -0.1907  0.5451
14423TIP3   OH264759   2.155   4.215   1.219 -0.1583 -0.3193  0.1594
14423TIP3    H164760   2.208   4.192   1.142  0.3896 -2.0479  1.0449
14423TIP3    H264761   2.085   4.150   1.221 -1.3845  0.9745 -0.0454
14424TIP3   OH264762   1.396   2.127   4.073 -0.4120  0.4477  0.2277
14424TIP3    H164763   1.368   2.168   3.991 -1.1119  0.6687  0.5732
14424TIP3    H264764   1.439   2.045   4.045  0.5656  1.1668 -0.4309
14425TIP3   OH264765   6.119   2.202  14.642 -0.0616  0.4652  1.0034
14425TIP3    H164766   6.071   2.284  14.635  0.2474  0.5945  0.2509
14425TIP3    H264767   6.166   2.207  14.725  0.0688  1.1152  0.8917
14426TIP3   OH264768   4.279   3.255   0.388 -0.0367  0.7025  0.1282
14426TIP3    H164769   4.261   3.198   0.462  1.7737  0.4737  0.4138
14426TIP3    H264770   4.201   3.248   0.333  0.0004 -1.7367  0.3342
14427TIP3   OH264771   5.980   4.767  11.284 -0.2189  1.0901 -0.4811
14427TIP3    H164772   5.911   4.804  11.339  0.0995 -1.5259  1.7663
14427TIP3    H264773   6.026   4.706  11.341  0.2441 -1.5978 -3.5967
14428TIP3   OH264774   4.688   0.890  16.305 -0.5972 -0.1408 -0.3563
14428TIP3    H164775   4.723   0.820  16.359 -1.2428  1.0995  1.7191
14428TIP3    H264776   4.593   0.885  16.317 -0.6749  0.8071 -0.5167
14429TIP3   OH264777   6.399   4.530  11.335 -0.1944 -0.2846 -0.6690
14429TIP3    H164778   6.420   4.623  11.330  3.2394 -0.9578  0.1900
14429TIP3    H264779   6.303   4.527  11.333 -0.3277  3.1453 -2.1757
14430TIP3   OH264780   2.811   4.787  11.752  0.1544  0.5769 -0.3144
14430TIP3    H164781   2.899   4.790  11.714  0.4808 -1.5291  0.2194
14430TIP3    H264782   2.773   4.872  11.731  1.3962  0.5644 -2.7821
14431TIP3   OH264783   5.917   6.632   1.170  0.0135  0.3592  0.0440
14431TIP3    H164784   5.954   6.720   1.169  1.0470 -0.0070  2.4393
14431TIP3    H264785   5.867   6.628   1.252  0.4474 -1.4532  0.2434
14432TIP3   OH264786   3.613   6.551  17.254 -0.0874  0.1613 -0.3383
14432TIP3    H164787   3.641   6.471  17.210 -0.5521  0.8037 -1.8004
14432TIP3    H264788   3.695   6.594  17.281  0.1732 -0.5755  0.0543
14433TIP3   OH264789   3.991   1.551  14.988 -0.2269  0.9157  0.0826
14433TIP3    H164790   4.077   1.582  14.960 -1.1275  2.0780 -1.4639
14433TIP3    H264791   4.005   1.459  15.009  1.0421  0.6253 -1.8306
14434TIP3   OH264792   0.605   0.869  13.430  0.0718  1.0012  0.4911
14434TIP3    H164793   0.536   0.909  13.483 -1.2969  0.6266 -0.9375
14434TIP3    H264794   0.579   0.889  13.340  1.6905  0.5871 -0.0820
14435TIP3   OH264795   4.353   1.017   1.670 -0.1072 -0.3972 -0.1936
14435TIP3    H164796   4.446   1.033   1.688  0.4430 -2.9789 -0.5331
14435TIP3    H264797   4.323   1.097   1.628  1.7461  0.8291  0.7333
14436TIP3   OH264798   5.276   3.569  12.506  0.1133 -0.5228  0.2847
14436TIP3    H164799   5.353   3.611  12.467  0.9126 -2.0860  0.1319
14436TIP3    H264800   5.299   3.559  12.598 -1.2569  1.9982  0.9361
14437TIP3   OH264801   5.123   2.918  13.046 -0.6956  0.1842  0.2127
14437TIP3    H164802   5.178   2.880  12.978 -0.7676 -1.7394  1.1863
14437TIP3    H264803   5.090   2.842  13.095  1.0765  1.5775  3.7167
14438TIP3   OH264804   4.568   0.371   1.376 -0.1070  0.1110 -0.2561
14438TIP3    H164805   4.588   0.303   1.441  0.1634  0.9585  0.5677
14438TIP3    H264806   4.474   0.364   1.362 -0.7367  1.8516  2.5069
14439TIP3   OH264807   6.231   0.934  14.368 -0.3476  0.4335  0.2309
14439TIP3    H164808   6.291   0.882  14.422  1.2804  2.3409  0.3631
14439TIP3    H264809   6.214   1.012  14.421 -0.1846  1.4918 -1.2540
14440TIP3   OH264810   1.107   6.474   4.432 -0.2173  0.2662  0.1543
14440TIP3    H164811   1.068   6.452   4.517  0.2294  1.5367  0.7256
14440TIP3    H264812   1.051   6.544   4.398  0.4177  0.7433  0.0777
14441TIP3   OH264813   2.306   2.428   2.488  0.4618 -0.0613  0.0230
14441TIP3    H164814   2.361   2.488   2.438 -1.0545  1.5845  0.2558
14441TIP3    H264815   2.355   2.411   2.569  1.6682 -0.5173 -0.7930
14442TIP3   OH264816   3.678   4.346   5.485 -0.2346 -0.2166 -0.5002
14442TIP3    H164817   3.652   4.258   5.510  0.1801 -0.4522 -0.8760
14442TIP3    H264818   3.624   4.366   5.408 -1.8199  0.6745  0.8111
14443TIP3   OH264819   4.665   2.970   1.101 -0.0613  0.1683  0.1057
14443TIP3    H164820   4.717   2.895   1.074  1.4257  1.4909 -0.7786
14443TIP3    H264821   4.587   2.967   1.045  1.7417  1.3765 -2.5579
14444TIP3   OH264822   5.866   2.114   1.962  0.3672  0.4147 -0.6474
14444TIP3    H164823   5.957   2.104   1.933 -0.0631  1.1841 -2.3753
14444TIP3    H264824   5.864   2.200   2.004  0.6978 -0.1342  0.5165
14445TIP3   OH264825   3.856   1.466  13.350  0.0271  0.7692 -0.0733
14445TIP3    H164826   3.873   1.451  13.257 -0.5659  0.0105 -0.0663
14445TIP3    H264827   3.926   1.524  13.378 -0.0649  1.3978 -1.1093
14446TIP3   OH264828   1.304   6.643  15.415 -0.0014 -0.4153 -0.1274
14446TIP3    H164829   1.323   6.647  15.321 -1.0890 -1.4821 -0.3984
14446TIP3    H264830   1.218   6.685  15.424  1.2194  2.0011  0.7442
14447TIP3   OH264831   2.435   4.387   5.578  0.0186  0.8113 -0.3020
14447TIP3    H164832   2.505   4.375   5.513 -0.8495  0.9206 -1.2610
14447TIP3    H264833   2.459   4.469   5.623  0.1343  1.2171 -1.0989
14448TIP3   OH264834   0.248   0.957  14.819  0.0515  0.0433  1.0620
14448TIP3    H164835   0.253   1.031  14.758  1.6022  0.5840  1.8067
14448TIP3    H264836   0.207   0.887  14.768  1.9969  0.2540 -0.8903
14449TIP3   OH264837   1.666   1.348   1.854 -0.1022  0.0015  0.5645
14449TIP3    H164838   1.695   1.435   1.884 -2.6433  0.9947  0.2797
14449TIP3    H264839   1.638   1.362   1.764 -0.3063 -1.1769  0.4389
14450TIP3   OH264840   1.408   5.151   6.861  0.4566  0.0679 -0.5547
14450TIP3    H164841   1.350   5.082   6.894  0.4801  0.6456  0.7061
14450TIP3    H264842   1.493   5.132   6.902  0.9608 -0.3051 -1.7601
14451TIP3   OH264843   3.549   3.247  16.104  0.2338  0.4166 -0.2338
14451TIP3    H164844   3.629   3.261  16.154  1.9365  0.0832 -2.7899
14451TIP3    H264845   3.570   3.277  16.015 -2.7804  1.2452 -0.7433
14452TIP3   OH264846   0.614   0.457   4.530 -0.7281  0.2472 -0.1197
14452TIP3    H164847   0.555   0.397   4.484 -0.1446 -0.4204 -0.0159
14452TIP3    H264848   0.698   0.410   4.533 -0.6655  0.4327  1.3093
14453TIP3   OH264849   5.771   6.421   4.113  0.1820 -0.1588 -0.5273
14453TIP3    H164850   5.802   6.453   4.198  0.3440  0.6941 -0.8979
14453TIP3    H264851   5.685   6.462   4.102  0.4571  0.2834 -1.0776
14454TIP3   OH264852   0.899   6.649  11.978  0.4286  0.5073 -0.1147
14454TIP3    H164853   0.934   6.690  11.899 -0.6660  0.2374 -0.7632
14454TIP3    H264854   0.847   6.718  12.020  1.2168  0.7250  0.5100
14455TIP3   OH264855   3.616   3.844  11.695  0.4455  0.0037  0.0945
14455TIP3    H164856   3.528   3.834  11.659  0.6069 -0.1353 -0.2692
14455TIP3    H264857   3.603   3.854  11.789  0.0656 -0.4323  0.0904
14456TIP3   OH264858   2.182   5.257   0.843  0.5088  0.3832  0.6730
14456TIP3    H164859   2.181   5.340   0.795  1.3607  0.2756  0.4575
14456TIP3    H264860   2.114   5.204   0.801  0.8990  0.4788 -0.0964
14457TIP3   OH264861   1.974   1.974   0.493 -0.3377  0.2877  0.0036
14457TIP3    H164862   1.949   1.897   0.442 -1.2514  0.4105  0.2613
14457TIP3    H264863   2.069   1.968   0.499 -0.4668 -1.2855  0.7652
14458TIP3   OH264864   0.968   3.876  13.153 -0.3781  0.3078 -0.6990
14458TIP3    H164865   0.883   3.831  13.158  1.1084 -2.4786  0.9129
14458TIP3    H264866   1.024   3.815  13.106  1.7740  0.3408  1.7342
14459TIP3   OH264867   2.658   0.710   5.367 -0.4379 -0.0768  0.3560
14459TIP3    H164868   2.697   0.629   5.336 -0.0722  0.5752 -0.9643
14459TIP3    H264869   2.643   0.696   5.460  0.9120 -1.1455  0.4332
14460TIP3   OH264870   6.169   1.807  17.201 -0.1335  0.6620 -0.2215
14460TIP3    H164871   6.258   1.807  17.235 -0.3457 -0.1821  0.3389
14460TIP3    H264872   6.179   1.820  17.106  0.5782  0.4821 -0.1684
14461TIP3   OH264873   0.263   4.622  11.994 -0.2760 -0.3191 -0.6320
14461TIP3    H164874   0.346   4.610  11.948 -0.7683 -1.5246 -1.2534
14461TIP3    H264875   0.239   4.534  12.023 -1.4102 -0.0088 -0.5992
14462TIP3   OH264876   1.484   4.368  15.055 -0.0658  0.5753 -0.4127
14462TIP3    H164877   1.458   4.287  15.098  1.9543 -0.0110 -0.2722
14462TIP3    H264878   1.512   4.425  15.126  3.2819 -0.3965 -0.8856
14463TIP3   OH264879   1.354   0.752  17.125 -0.0864 -0.0149 -0.5938
14463TIP3    H164880   1.411   0.801  17.067  0.5512 -0.7088 -0.5516
14463TIP3    H264881   1.345   0.666  17.084  1.4147 -0.9463  0.9673
14464TIP3   OH264882   6.701   3.108  15.736 -0.2937 -0.3365 -0.4111
14464TIP3    H164883   6.733   3.018  15.732 -1.3782 -0.6857 -1.1269
14464TIP3    H264884   6.664   3.116  15.824 -0.8971 -0.8213 -0.6206
14465TIP3   OH264885   0.734   0.438   5.185  0.9460  0.3395 -0.1017
14465TIP3    H164886   0.651   0.428   5.139  0.3129  0.1918  1.0738
14465TIP3    H264887   0.732   0.528   5.219  1.3254  0.3837 -0.1929
14466TIP3   OH264888   3.479   0.875   2.388 -0.0281 -0.4483  0.0539
14466TIP3    H164889   3.541   0.823   2.439  1.1851 -0.7950 -1.6950
14466TIP3    H264890   3.402   0.819   2.378  1.0362 -1.7142 -1.3120
14467TIP3   OH264891   3.939   0.999   3.092  0.3802  0.6570  0.2826
14467TIP3    H164892   3.886   0.924   3.116 -0.3409  1.4708  1.2797
14467TIP3    H264893   3.998   0.966   3.024  2.2051 -1.6095  2.8485
14468TIP3   OH264894   4.184   3.199   0.785 -0.0129 -0.2646 -0.1440
14468TIP3    H164895   4.194   3.123   0.843  0.5325 -0.3391 -0.3358
14468TIP3    H264896   4.209   3.166   0.698  1.0455  0.3591 -0.0774
14469TIP3   OH264897   6.156   0.347  12.177  0.3513 -0.0177  0.2948
14469TIP3    H164898   6.086   0.347  12.243 -0.9618  0.6400 -1.0815
14469TIP3    H264899   6.143   0.428  12.129  2.2173  0.2167  0.1660
14470TIP3   OH264900   3.607   2.502  13.747  0.4189 -0.5346 -0.4290
14470TIP3    H164901   3.698   2.530  13.733  0.4575  1.0271  2.5614
14470TIP3    H264902   3.555   2.569  13.702  0.6904  1.0760  1.5466
14471TIP3   OH264903   5.378   3.238   5.345 -0.3831  0.2060  0.2304
14471TIP3    H164904   5.353   3.330   5.341 -1.7237 -0.1508  0.2354
14471TIP3    H264905   5.376   3.217   5.439 -1.3426 -0.1566  0.1384
14472TIP3   OH264906   4.960   5.501  12.175  0.5049 -0.3317 -0.9727
14472TIP3    H164907   4.928   5.576  12.226 -1.7197 -1.7535 -0.2335
14472TIP3    H264908   4.934   5.520  12.085 -2.3447 -1.3875 -0.4035
14473TIP3   OH264909   0.163   5.611  16.448 -0.1453 -0.2751  0.1934
14473TIP3    H164910   0.124   5.654  16.372 -0.7508  0.0974  0.7056
14473TIP3    H264911   0.230   5.672  16.478 -0.6121  0.0476  0.5785
14474TIP3   OH264912   4.588   4.405   3.013  0.4814 -0.3711 -0.0333
14474TIP3    H164913   4.540   4.458   3.076  0.2046  1.2437 -1.5772
14474TIP3    H264914   4.561   4.315   3.032  0.5754  0.0561  2.2654
14475TIP3   OH264915   4.235   5.095   4.956  1.0433 -0.0623 -0.2697
14475TIP3    H164916   4.148   5.095   4.916 -0.1699  1.4005  2.3079
14475TIP3    H264917   4.295   5.110   4.882 -0.9047 -0.3880 -1.9676
14476TIP3   OH264918   5.405   0.734  16.663  0.0597  0.3397 -0.5871
14476TIP3    H164919   5.455   0.740  16.582  0.5400  2.2181 -0.1813
14476TIP3    H264920   5.314   0.731  16.635  0.2896 -0.6189 -1.2456
14477TIP3   OH264921   5.046   3.023   0.186 -0.0721  0.0288  0.4518
14477TIP3    H164922   5.120   2.976   0.147  0.9324  0.3614  1.9035
14477TIP3    H264923   4.972   2.963   0.177  0.4076 -0.3813 -0.8536
14478TIP3   OH264924   4.086   1.120  14.726  0.0935  1.0948  0.1209
14478TIP3    H164925   4.117   1.185  14.663 -1.6154  0.6296 -1.2834
14478TIP3    H264926   3.990   1.127  14.722 -0.0777 -0.3478  1.1809
14479TIP3   OH264927   6.139   1.842  16.549 -0.0806  0.1024  0.0645
14479TIP3    H164928   6.168   1.777  16.612  0.5032 -0.8374 -1.1495
14479TIP3    H264929   6.193   1.919  16.566  0.6931 -0.4548  0.1105
14480TIP3   OH264930   2.048   3.541  15.464  0.0473 -0.0379  0.1028
14480TIP3    H164931   2.135   3.504  15.451 -0.0469  0.1772 -1.2163
14480TIP3    H264932   2.062   3.623  15.511  0.4052 -0.8464  1.4341
14481TIP3   OH264933   5.181   5.381   3.997 -1.1295  0.4146 -0.1997
14481TIP3    H164934   5.188   5.373   4.092 -1.1969  0.1772 -0.2154
14481TIP3    H264935   5.089   5.360   3.978 -0.7470 -1.0150 -0.4752
14482TIP3   OH264936   0.361   3.915  15.468 -0.4345  0.0620 -0.1093
14482TIP3    H164937   0.373   3.917  15.373  0.0306 -0.2074 -0.0595
14482TIP3    H264938   0.345   3.822  15.487  0.5896 -0.0489  0.2078
14483TIP3   OH264939   5.802   4.102  14.439  0.3660 -0.5245  0.3958
14483TIP3    H164940   5.733   4.145  14.389  1.0649  0.2570  0.0770
14483TIP3    H264941   5.800   4.011  14.410  0.3254 -0.2249 -0.5827
14484TIP3   OH264942   0.017   4.680  14.521 -0.1716 -0.2515 -0.2151
14484TIP3    H164943   0.027   4.625  14.444  0.1252  2.5407 -2.2218
14484TIP3    H264944  -0.076   4.705  14.522  0.0848  0.7224 -0.3755
14485TIP3   OH264945   0.963   3.894   4.799 -0.9628 -0.5380 -0.2700
14485TIP3    H164946   1.003   3.831   4.858  1.4535 -0.8724 -2.2239
14485TIP3    H264947   0.989   3.979   4.835 -1.6798 -0.6729  0.6051
14486TIP3   OH264948   6.041   6.122   5.589 -0.3651  0.0407  0.1183
14486TIP3    H164949   6.123   6.092   5.628 -0.4072  1.7408  1.6178
14486TIP3    H264950   5.976   6.110   5.658 -0.8536  1.1546 -0.1269
14487TIP3   OH264951   1.658   5.573  15.037 -0.6624  0.2998 -0.1804
14487TIP3    H164952   1.718   5.499  15.028 -1.6667 -0.9210  2.4317
14487TIP3    H264953   1.703   5.647  14.996  0.8791 -1.4822 -1.7572
14488TIP3   OH264954   4.473   6.679   0.724 -0.4061  0.1800  0.2118
14488TIP3    H164955   4.534   6.725   0.668 -1.3814  1.9979  0.6188
14488TIP3    H264956   4.483   6.720   0.810 -0.7515 -0.8716  0.7654
14489TIP3   OH264957   4.085   1.972  11.373 -0.6243  0.6598 -0.4779
14489TIP3    H164958   4.007   1.973  11.317 -0.4019 -1.8450 -0.8927
14489TIP3    H264959   4.079   1.889  11.421  1.8551  0.3737 -0.6043
14490TIP3   OH264960   5.430   6.180   3.219  0.1512  0.2445 -0.0114
14490TIP3    H164961   5.394   6.098   3.184  1.5044 -0.1922 -0.4338
14490TIP3    H264962   5.472   6.154   3.301  0.9491  0.4419 -0.3582
14491TIP3   OH264963   4.164   0.978   5.044  0.3555 -0.3902 -0.8248
14491TIP3    H164964   4.188   0.886   5.040 -0.3968 -0.6714  0.7141
14491TIP3    H264965   4.130   0.998   4.957  2.0621 -1.1145 -1.6873
14492TIP3   OH264966   1.581   2.807  11.962 -0.3076  0.5863  0.6808
14492TIP3    H164967   1.597   2.895  11.996  0.1007  1.2431 -1.1352
14492TIP3    H264968   1.663   2.760  11.975 -0.5457  0.4387  1.7107
14493TIP3   OH264969   5.809   0.439  14.528 -0.2588 -0.5326 -0.4957
14493TIP3    H164970   5.837   0.530  14.536 -0.5260 -0.6420  2.2023
14493TIP3    H264971   5.879   0.388  14.568 -0.1196 -1.5266 -1.9741
14494TIP3   OH264972   3.659   5.585  12.576 -0.4273 -0.0492  0.0974
14494TIP3    H164973   3.671   5.667  12.625 -1.3886  0.7968 -1.0633
14494TIP3    H264974   3.716   5.522  12.621 -0.0054  1.1389  1.2667
14495TIP3   OH264975   1.044   3.080   4.291  0.3850 -0.1437  0.1885
14495TIP3    H164976   1.126   3.044   4.255  1.6089  0.2190  2.5168
14495TIP3    H264977   0.997   3.112   4.214  2.6589  0.1051 -1.1798
14496TIP3   OH264978   6.096   1.402  15.034 -0.1529 -0.1734  0.1947
14496TIP3    H164979   6.154   1.441  15.099 -1.0730  0.6207  0.5501
14496TIP3    H264980   6.043   1.340  15.083  0.5992 -1.1272 -0.1859
14497TIP3   OH264981   3.793   0.787   4.072  0.1912  0.7272  0.1332
14497TIP3    H164982   3.703   0.816   4.084  0.2202  1.5751 -1.5161
14497TIP3    H264983   3.844   0.868   4.069  0.8696  0.2995  0.0810
14498TIP3   OH264984   0.369   4.247   0.504 -1.0673 -0.3937  0.1963
14498TIP3    H164985   0.419   4.185   0.557 -1.0429 -0.7957 -0.2891
14498TIP3    H264986   0.278   4.216   0.510 -0.8621 -1.3073 -1.1721
14499TIP3   OH264987   3.680   2.403  16.941  0.6833  0.4719  0.7740
14499TIP3    H164988   3.752   2.375  16.885  1.1288  1.2603  0.9331
14499TIP3    H264989   3.610   2.425  16.880 -0.2328 -2.4575  0.7256
14500TIP3   OH264990   2.047   6.324   0.458  0.0097  0.5200 -0.0001
14500TIP3    H164991   2.084   6.253   0.511  1.4934  1.1224 -0.2224
14500TIP3    H264992   1.958   6.294   0.437  0.8381 -1.6004 -0.6485
14501TIP3   OH264993   3.565   0.134  13.609 -0.0325 -0.6385 -0.4399
14501TIP3    H164994   3.515   0.191  13.551 -0.2437 -1.1341 -0.7484
14501TIP3    H264995   3.651   0.127  13.567  0.2987  0.2012  0.0856
14502TIP3   OH264996   4.911   2.163   1.052 -0.2519 -0.1230  0.0151
14502TIP3    H164997   4.823   2.150   1.016  0.1024 -0.3227 -0.7822
14502TIP3    H264998   4.922   2.090   1.114  0.0262 -1.1201 -1.1947
14503TIP3   OH264999   6.086   0.941   2.811 -0.4346 -0.3124  0.1559
14503TIP3    H165000   6.082   0.931   2.906 -1.4352  0.1989  0.1771
14503TIP3    H265001   6.123   0.859   2.779  0.9552 -0.0534  1.0713
14504TIP3   OH265002   2.579   5.128  10.801 -0.4929  0.1370 -0.8105
14504TIP3    H165003   2.663   5.088  10.820 -1.2313 -0.6649  0.8956
14504TIP3    H265004   2.528   5.059  10.758 -0.7100  0.2203 -0.6897
14505TIP3   OH265005   3.180   1.473   1.877 -0.4026 -0.0550  0.4064
14505TIP3    H165006   3.205   1.488   1.968 -2.5527 -0.2779  1.0629
14505TIP3    H265007   3.210   1.552   1.831  1.7301 -0.4448  1.0695
14506TIP3   OH265008   6.331   1.082  15.187  0.7875  0.1925  0.2140
14506TIP3    H165009   6.410   1.030  15.198  0.5525 -0.2666 -0.2609
14506TIP3    H265010   6.261   1.028  15.224  0.5458  0.1791 -0.2658
14507TIP3   OH265011   2.585   3.416  13.890 -0.0777 -0.0935  0.4611
14507TIP3    H165012   2.536   3.471  13.951 -0.4481 -0.6826  0.6959
14507TIP3    H265013   2.518   3.370  13.840  0.2338 -0.8125  0.7027
14508TIP3   OH265014   4.663   1.699   3.982  0.1717 -0.0170  0.3204
14508TIP3    H165015   4.735   1.682   4.044 -0.8045  1.6657  1.9387
14508TIP3    H265016   4.680   1.787   3.948 -0.1620 -0.3152 -0.6422
14509TIP3   OH265017   3.530   3.440  13.669  0.9005 -0.1209 -0.2569
14509TIP3    H165018   3.535   3.345  13.660 -0.6741 -0.2830  0.3581
14509TIP3    H265019   3.599   3.462  13.731 -0.3997 -1.2071  1.6344
14510TIP3   OH265020   1.643   1.823  13.983 -0.6408  0.3404  0.6634
14510TIP3    H165021   1.594   1.902  14.007 -0.2742  1.3136 -1.6596
14510TIP3    H265022   1.735   1.847  13.996 -0.5878 -0.2562  1.4685
14511TIP3   OH265023   3.458   6.803   5.272  0.3211 -0.0528 -0.0948
14511TIP3    H165024   3.452   6.708   5.265  0.6194  0.0171 -1.3984
14511TIP3    H265025   3.370   6.834   5.248  0.4883  0.0388 -0.6012
14512TIP3   OH265026   5.191   4.230  15.408  0.1406  0.6557 -0.4057
14512TIP3    H165027   5.217   4.187  15.490 -0.1825 -2.0354 -1.6437
14512TIP3    H265028   5.271   4.234  15.356 -0.0699  0.4886 -0.7457
14513TIP3   OH265029   2.103   4.444  15.464 -0.2768  0.4931 -0.7273
14513TIP3    H165030   2.115   4.537  15.485 -2.2091  0.4979  0.5425
14513TIP3    H265031   2.015   4.440  15.427 -1.1688 -1.1649  1.4718
14514TIP3   OH265032   5.967   3.530  14.549  0.0062 -0.2427 -0.4121
14514TIP3    H165033   6.028   3.530  14.623 -1.2992 -1.9692  0.6942
14514TIP3    H265034   6.023   3.524  14.471  1.6301  4.9980  0.1428
14515TIP3   OH265035   4.990   2.587  16.043 -0.2707 -0.3335 -0.4289
14515TIP3    H165036   4.981   2.493  16.057  0.3911 -0.2969  0.3201
14515TIP3    H265037   5.031   2.595  15.957  2.8930 -0.8956  0.9239
14516TIP3   OH265038   4.632   3.538  13.386  0.1818  0.0775  0.7422
14516TIP3    H165039   4.575   3.601  13.430  1.5646  0.4748  2.0298
14516TIP3    H265040   4.661   3.479  13.455 -0.1495 -1.2639 -0.2372
14517TIP3   OH265041   3.462   4.480   3.253 -0.0190  0.4677  0.0687
14517TIP3    H165042   3.469   4.419   3.179  1.5515 -0.2449  0.7895
14517TIP3    H265043   3.547   4.476   3.296 -0.6568  1.4814  1.4636
14518TIP3   OH265044   3.176   5.380   1.992  0.0674 -0.8861  0.1382
14518TIP3    H165045   3.224   5.394   1.911 -0.1308 -0.5723  0.0752
14518TIP3    H265046   3.105   5.443   1.989 -0.3721 -1.3715  0.2144
14519TIP3   OH265047   0.226   6.704   1.783 -0.3397  0.0507 -0.3573
14519TIP3    H165048   0.268   6.712   1.698  1.0288 -2.3032  0.0591
14519TIP3    H265049   0.264   6.775   1.835 -0.1034  0.5894 -1.2515
14520TIP3   OH265050   0.218   2.395  11.534 -0.0414 -0.3429  0.2110
14520TIP3    H165051   0.201   2.331  11.465 -0.6991 -0.3849  0.4111
14520TIP3    H265052   0.255   2.470  11.488  0.0625 -0.5889 -0.1152
14521TIP3   OH265053   2.713   5.385   5.514  0.1084 -0.4126 -0.1349
14521TIP3    H165054   2.766   5.347   5.584  1.5662 -0.5475 -1.2975
14521TIP3    H265055   2.711   5.479   5.533  0.9605 -0.3778 -0.2129
14522TIP3   OH265056   0.835   1.922   6.456  0.3936  0.2000 -0.4010
14522TIP3    H165057   0.849   1.879   6.540 -0.6578 -1.1477 -0.8959
14522TIP3    H265058   0.741   1.916   6.442  0.1497  3.1503 -0.2481
14523TIP3   OH265059   2.991   5.125  12.678  0.3025 -0.6718  0.4501
14523TIP3    H165060   2.946   5.061  12.622  0.3623  1.3996 -2.0637
14523TIP3    H265061   2.956   5.108  12.766 -2.4631 -1.7164 -0.7728
14524TIP3   OH265062   4.261   0.210  12.998  0.1821 -0.2201 -0.4018
14524TIP3    H165063   4.353   0.235  12.997  0.3698 -0.7990  1.0727
14524TIP3    H265064   4.222   0.263  13.068 -0.7739  0.5715 -1.5199
14525TIP3   OH265065   3.241   6.618  16.958 -0.3668  0.2736 -0.2578
14525TIP3    H165066   3.308   6.550  16.965 -2.5004 -1.7834  1.1955
14525TIP3    H265067   3.241   6.661  17.044 -0.4735  0.6559 -0.4496
14526TIP3   OH265068   2.197   4.190  10.705 -0.1437 -0.1492 -0.0688
14526TIP3    H165069   2.167   4.102  10.728 -0.8159  0.8815  3.2893
14526TIP3    H265070   2.117   4.235  10.677  0.4633 -1.0204 -3.3642
14527TIP3   OH265071   1.326   4.671  13.700  0.2684 -0.5434 -0.3771
14527TIP3    H165072   1.318   4.719  13.618  0.8053 -2.1574 -1.4045
14527TIP3    H265073   1.305   4.580  13.677  0.9569 -1.1140  1.1553
14528TIP3   OH265074   3.973   2.623   5.285  0.4909  0.2329  0.7921
14528TIP3    H165075   3.982   2.530   5.266 -2.7717  0.0565 -0.1507
14528TIP3    H265076   3.907   2.627   5.354 -0.3087  1.9141 -0.0499
14529TIP3   OH265077   5.743   0.208  17.185 -0.5363 -0.4314 -0.5084
14529TIP3    H165078   5.787   0.290  17.208  0.5308 -0.7464 -1.3338
14529TIP3    H265079   5.650   0.230  17.181 -0.4082  0.3623  0.8458
14530TIP3   OH265080   2.376   1.694  11.532  0.1173 -0.0485  0.3385
14530TIP3    H165081   2.294   1.648  11.517 -0.2552  0.0360  2.0177
14530TIP3    H265082   2.443   1.636  11.497 -0.5909 -0.4402 -0.3938
14531TIP3   OH265083   6.622   5.255   5.003  1.0896 -0.1002  0.3543
14531TIP3    H165084   6.700   5.308   4.987  1.2209 -1.0911 -2.6036
14531TIP3    H265085   6.561   5.279   4.934  0.4234 -2.3747  0.0978
14532TIP3   OH265086   3.603   6.274  13.910  0.0215 -0.4536 -0.8158
14532TIP3    H165087   3.529   6.214  13.901 -2.4795  2.1853  1.2044
14532TIP3    H265088   3.663   6.229  13.969 -1.8984 -0.9751  0.8006
14533TIP3   OH265089   6.206   6.011  11.602  0.2640 -0.4497  0.1311
14533TIP3    H165090   6.265   6.020  11.527 -1.3266  0.8950 -0.9979
14533TIP3    H265091   6.186   5.917  11.605  1.9943 -0.8395  0.1836
14534TIP3   OH265092   0.760   3.173   5.324  0.2778  0.2835  0.0190
14534TIP3    H165093   0.755   3.262   5.289 -1.9582  0.4076  0.5644
14534TIP3    H265094   0.675   3.160   5.367  1.1894 -1.5433  1.3124
14535TIP3   OH265095   0.585   4.532   3.068 -0.1872  0.7394  0.5639
14535TIP3    H165096   0.619   4.612   3.027 -0.0002  0.4316  0.1162
14535TIP3    H265097   0.663   4.478   3.082 -0.5168 -0.0638 -0.6766
14536TIP3   OH265098   5.813   4.390   1.068  0.1164  0.2428  0.1865
14536TIP3    H165099   5.813   4.340   1.149 -1.5273 -0.0930  0.0067
14536TIP3    H265100   5.779   4.329   1.002  0.7897  0.7195 -0.6203
14537TIP3   OH265101   4.077   3.113  16.358 -0.3130  0.5192  0.0430
14537TIP3    H165102   4.121   3.036  16.322  0.0190  0.9025 -0.3902
14537TIP3    H265103   4.034   3.082  16.438 -1.4189 -0.4434 -0.9081
14538TIP3   OH265104   5.227   1.441  16.945  0.0596 -0.8229  0.5917
14538TIP3    H165105   5.221   1.497  16.867  0.7835  1.0080  1.7962
14538TIP3    H265106   5.312   1.397  16.936  1.2673  1.2415  1.4950
14539TIP3   OH265107   4.068   5.761  15.049  0.0391 -0.0610 -0.1826
14539TIP3    H165108   4.136   5.796  15.106 -1.5713  2.1623  0.4334
14539TIP3    H265109   4.068   5.667  15.067  1.1515  0.2843  1.7516
14540TIP3   OH265110   1.740   1.362   4.725 -0.0684  0.2309  0.2592
14540TIP3    H165111   1.826   1.364   4.768  0.7595  0.5159 -1.3719
14540TIP3    H265112   1.757   1.392   4.636 -1.8418  0.1115 -0.1395
14541TIP3   OH265113   4.909   5.727   1.725  0.4903 -0.1908  0.1982
14541TIP3    H165114   4.819   5.700   1.704  0.2327 -0.7104  1.8875
14541TIP3    H265115   4.913   5.819   1.700 -0.3746 -0.2747 -0.2832
14542TIP3   OH265116   3.126   4.276  11.674 -0.9528 -0.1966  0.0125
14542TIP3    H165117   3.146   4.225  11.753  2.3071  1.3939  0.3261
14542TIP3    H265118   3.208   4.274  11.624 -2.2762  0.7472 -2.2400
14543TIP3   OH265119   0.218   3.697  12.498 -0.3135  0.4016 -0.7579
14543TIP3    H165120   0.199   3.614  12.456 -0.0070  1.0435 -2.2074
14543TIP3    H265121   0.274   3.675  12.572 -2.9697 -1.0275  0.9220
14544TIP3   OH265122   6.314   0.715  10.681 -0.1326  0.4721 -0.6784
14544TIP3    H165123   6.299   0.639  10.737 -0.7554 -0.0467 -1.5361
14544TIP3    H265124   6.280   0.789  10.732 -1.4392 -0.1029 -0.6902
14545TIP3   OH265125   2.760   4.009  11.487 -0.3611 -0.1420 -0.1546
14545TIP3    H165126   2.806   4.074  11.540 -0.5480 -1.4501  1.6587
14545TIP3    H265127   2.754   4.049  11.400  0.0938  1.9910  0.7531
14546TIP3   OH265128   1.538   1.594  12.347 -0.1071  0.0092 -0.3896
14546TIP3    H165129   1.516   1.510  12.307  1.6905  0.1069 -1.6354
14546TIP3    H265130   1.632   1.589  12.363 -0.1215  1.4926  0.2510
14547TIP3   OH265131   1.586   6.518   4.239 -0.4004  0.3538  0.0673
14547TIP3    H165132   1.553   6.463   4.168  2.1684  0.2506 -1.1161
14547TIP3    H265133   1.583   6.461   4.316 -1.8476 -0.0155 -0.2611
14548TIP3   OH265134   3.046   5.391  12.257 -0.5186 -0.8142  0.9183
14548TIP3    H165135   2.964   5.441  12.263  0.6352  1.0032  1.8551
14548TIP3    H265136   3.113   5.457  12.241  0.5194 -2.5153 -2.0775
14549TIP3   OH265137   6.678   5.637   2.654  0.3322 -0.5993  0.2826
14549TIP3    H165138   6.605   5.697   2.643  0.3002 -0.3202  1.8994
14549TIP3    H265139   6.638   5.554   2.680  0.4837 -0.8825 -0.3879
14550TIP3   OH265140   0.613   6.516   5.985  0.7182 -0.3582 -0.3069
14550TIP3    H165141   0.655   6.436   6.017 -1.8907 -1.6114  0.1099
14550TIP3    H265142   0.598   6.499   5.892  1.1543  0.0946 -0.4609
14551TIP3   OH265143   0.393   3.712  13.534 -0.2039 -0.2537 -0.2078
14551TIP3    H165144   0.426   3.648  13.598  0.5760  0.6352  0.3018
14551TIP3    H265145   0.441   3.792  13.555  0.8147 -0.2131 -2.5696
14552TIP3   OH265146   1.769   1.404  15.246  0.1159 -0.1764  0.0690
14552TIP3    H165147   1.756   1.382  15.339  0.5354 -0.1794  0.1305
14552TIP3    H265148   1.681   1.418  15.212 -0.0313 -0.0285  0.5063
14553TIP3   OH265149   4.766   1.797   2.514 -0.4190  0.7172 -0.6689
14553TIP3    H165150   4.748   1.875   2.567 -1.3592  0.1854 -0.2091
14553TIP3    H265151   4.717   1.727   2.557  0.0046 -0.0193 -1.3915
14554TIP3   OH265152   2.215   0.311   0.871  0.6694 -0.4389 -0.7933
14554TIP3    H165153   2.303   0.301   0.834  0.7834  0.5640 -0.8091
14554TIP3    H265154   2.194   0.224   0.905  0.9516 -1.1330 -2.3384
14555TIP3   OH265155   0.340   1.909  13.337 -0.2923  0.1981  0.2477
14555TIP3    H165156   0.260   1.962  13.337  0.3676  1.2085 -0.1879
14555TIP3    H265157   0.369   1.909  13.428 -0.7705 -0.1688  0.4062
14556TIP3   OH265158   5.138   3.268   0.628 -0.9098 -0.5280 -0.0454
14556TIP3    H165159   5.152   3.207   0.556 -0.7292  0.5201 -0.9128
14556TIP3    H265160   5.043   3.272   0.639 -0.8728 -1.9517  0.8850
14557TIP3   OH265161   0.350   1.795  17.139  0.1174 -0.0902 -0.2722
14557TIP3    H165162   0.426   1.738  17.136 -0.3799 -0.8177  0.7386
14557TIP3    H265163   0.373   1.869  17.082  1.5518 -0.3152 -0.0007
14558TIP3   OH265164   4.279   2.791  16.759  0.2510  0.0814 -0.2564
14558TIP3    H165165   4.245   2.701  16.759  0.8329 -0.1427 -0.4395
14558TIP3    H265166   4.218   2.840  16.815 -0.8080 -0.1408 -1.1873
14559TIP3   OH265167   2.736   2.312   3.195  0.1197 -0.3194  0.2034
14559TIP3    H165168   2.712   2.372   3.266 -1.7366  0.8544 -1.3592
14559TIP3    H265169   2.822   2.343   3.165 -0.4042  0.9806  0.0345
14560TIP3   OH265170   0.448   3.295  15.884 -0.0676  0.0709 -0.0781
14560TIP3    H165171   0.469   3.341  15.965  0.5446  2.0136 -1.3125
14560TIP3    H265172   0.365   3.332  15.856  0.3864  0.3802 -1.0350
14561TIP3   OH265173   3.686   4.632  13.591  0.0464  0.0305 -0.0898
14561TIP3    H165174   3.734   4.704  13.632  1.2253  0.3020 -1.8812
14561TIP3    H265175   3.693   4.649  13.497 -2.3587 -0.7207 -0.4317
14562TIP3   OH265176   6.744   2.820   3.127  0.5938 -0.1775  0.5513
14562TIP3    H165177   6.816   2.846   3.185  0.2931  2.3279 -0.1415
14562TIP3    H265178   6.787   2.782   3.051  1.1314 -0.2495  0.8874
14563TIP3   OH265179   1.304   3.312  15.889  0.4039  0.6513 -0.1496
14563TIP3    H165180   1.362   3.307  15.813  0.3307 -0.2091 -0.1598
14563TIP3    H265181   1.233   3.252  15.869  0.3971  0.4026  0.6011
14564TIP3   OH265182   2.329   2.285  13.241 -0.1974 -0.0109  0.2422
14564TIP3    H165183   2.274   2.209  13.258  0.0493 -0.2955 -0.2179
14564TIP3    H265184   2.414   2.263  13.278 -0.3970  0.4390  0.9727
14565TIP3   OH265185   6.299   3.801  17.022 -0.5994  0.9038  0.0926
14565TIP3    H165186   6.235   3.871  17.005 -0.9140  0.7208  0.5218
14565TIP3    H265187   6.255   3.743  17.084 -1.2987 -1.0204 -2.1466
14566TIP3   OH265188   2.785   6.559   4.149 -0.4159  0.2032  0.5981
14566TIP3    H165189   2.809   6.489   4.209  0.9550 -0.2394 -0.4413
14566TIP3    H265190   2.743   6.514   4.076 -0.6530  0.5822  0.5015
14567TIP3   OH265191   4.669   1.177  11.572 -0.0648 -0.1800  0.1000
14567TIP3    H165192   4.673   1.248  11.509  2.6046 -0.5948 -0.2591
14567TIP3    H265193   4.688   1.098  11.520 -2.9746 -1.1885  0.4853
14568TIP3   OH265194   4.737   1.426  15.142 -0.0563  0.4118  0.4278
14568TIP3    H165195   4.663   1.458  15.090 -0.1054 -2.1962 -1.2155
14568TIP3    H265196   4.814   1.465  15.101 -0.3924  1.9067  1.1914
14569TIP3   OH265197   5.773   4.381  16.111 -0.2304  0.0293 -0.1507
14569TIP3    H165198   5.803   4.429  16.034  0.4511 -0.3064 -0.1015
14569TIP3    H265199   5.806   4.431  16.186  2.4281 -1.6787 -0.1082
14570TIP3   OH265200   0.952   4.363  16.579  0.0142 -0.4831 -0.2590
14570TIP3    H165201   1.029   4.360  16.522  1.0408 -1.4455  1.1238
14570TIP3    H265202   0.877   4.365  16.520  1.1365  2.4214 -1.6679
14571TIP3   OH265203   4.833   1.088  14.023 -0.3012 -0.2308 -0.5047
14571TIP3    H165204   4.892   1.057  14.092  1.1690  0.5065 -1.3983
14571TIP3    H265205   4.753   1.113  14.069  0.8659  0.8039  1.0177
14572TIP3   OH265206   6.011   4.486   2.410  0.0520 -0.0845 -0.0105
14572TIP3    H165207   6.088   4.431   2.395  0.8013  0.7859  0.5936
14572TIP3    H265208   5.937   4.425   2.412  0.9770 -1.1625  1.6021
14573TIP3   OH265209   1.787   0.312   1.763  0.3514  0.1680  0.3841
14573TIP3    H165210   1.726   0.310   1.836  0.4080 -2.3539  0.4062
14573TIP3    H265211   1.764   0.236   1.710  1.0323  1.3225 -1.6318
14574TIP3   OH265212   1.418   4.742  14.542 -0.1983  0.3048  0.1978
14574TIP3    H165213   1.327   4.726  14.566 -0.4180  1.8988  0.5435
14574TIP3    H265214   1.469   4.708  14.615 -0.4887 -0.9650 -0.1846
14575TIP3   OH265215   2.999   0.718   1.025  0.7466  0.3947  0.6641
14575TIP3    H165216   3.058   0.793   1.022 -0.4241  1.2800 -1.3782
14575TIP3    H265217   2.912   0.756   1.015 -0.1762 -0.9321  3.1810
14576TIP3   OH265218   3.668   1.265  12.726 -0.3872  0.1511 -0.1898
14576TIP3    H165219   3.654   1.321  12.803 -1.3029  0.7013 -0.7479
14576TIP3    H265220   3.737   1.204  12.753 -0.4959  0.5292  0.9688
14577TIP3   OH265221   0.279   2.147  16.078 -0.0420 -0.7302 -0.6947
14577TIP3    H165222   0.371   2.135  16.103  0.4673 -0.7428 -2.5430
14577TIP3    H265223   0.232   2.083  16.132  1.0942 -1.1252 -0.1467
14578TIP3   OH265224   2.627   1.598  15.827  0.0501 -0.2226 -0.0802
14578TIP3    H165225   2.677   1.521  15.852 -0.1901 -0.5128 -0.5014
14578TIP3    H265226   2.581   1.573  15.747 -0.8964 -0.0130  0.3903
14579TIP3   OH265227   0.314   6.326  12.816  0.4287  0.2490 -0.0380
14579TIP3    H165228   0.228   6.358  12.844  0.2026  0.3114 -0.7899
14579TIP3    H265229   0.377   6.374  12.870 -0.0921 -1.5195  2.1774
14580TIP3   OH265230   1.190   0.888   4.655 -0.1743  0.1315  0.4225
14580TIP3    H165231   1.272   0.936   4.671  0.3258 -0.5421 -0.0910
14580TIP3    H265232   1.208   0.836   4.577 -1.3524  0.5514 -0.1343
14581TIP3   OH265233   0.738   2.646  16.247 -0.4538  0.6043 -0.3801
14581TIP3    H165234   0.824   2.611  16.271  0.0602  1.7507 -0.5181
14581TIP3    H265235   0.724   2.718  16.309 -1.0273  0.8278 -0.7708
14582TIP3   OH265236   3.254   2.855  10.832  0.5671  0.7743  0.2757
14582TIP3    H165237   3.220   2.768  10.852 -0.8861  1.3871  0.5840
14582TIP3    H265238   3.188   2.893  10.773  1.2479  1.6096  0.0482
14583TIP3   OH265239   2.085   4.551   3.496  0.0054 -0.7048 -0.0685
14583TIP3    H165240   2.021   4.620   3.516  0.0187 -0.8625  0.5127
14583TIP3    H265241   2.094   4.554   3.401  0.3406  0.3882 -0.0020
14584TIP3   OH265242   2.287   0.381  16.571 -0.1973 -0.4617 -0.0875
14584TIP3    H165243   2.196   0.359  16.553 -0.7114  0.6383  1.0881
14584TIP3    H265244   2.283   0.443  16.644  1.6437 -2.5765  1.8709
14585TIP3   OH265245   3.323   6.278   2.274  0.3497 -0.3841  0.4914
14585TIP3    H165246   3.292   6.198   2.317  1.3279 -0.4801  1.0151
14585TIP3    H265247   3.381   6.247   2.205 -0.5751 -0.1899 -0.3930
14586TIP3   OH265248   6.022   0.352   2.682  0.4040  0.4354  0.0304
14586TIP3    H165249   6.083   0.309   2.742 -0.6228 -1.3257 -0.1645
14586TIP3    H265250   6.078   0.392   2.615  1.4706  1.0873  1.2773
14587TIP3   OH265251   5.707   6.283  15.218 -0.4211 -0.9369 -0.1249
14587TIP3    H165252   5.786   6.338  15.221 -1.1767  0.1598 -0.2017
14587TIP3    H265253   5.706   6.248  15.129 -0.7204  0.0919 -0.5320
14588TIP3   OH265254   5.622   4.964  14.234 -0.3285  0.4787 -0.3715
14588TIP3    H165255   5.706   5.010  14.233 -0.2749  0.3812 -1.2320
14588TIP3    H265256   5.588   4.976  14.145 -1.0084  0.1279 -0.1592
14589TIP3   OH265257   1.742   1.617   1.915  0.6734  0.4892  0.9621
14589TIP3    H165258   1.736   1.661   1.830 -3.0086 -0.0682  0.8761
14589TIP3    H265259   1.771   1.685   1.975 -0.0564  1.7728 -0.1004
14590TIP3   OH265260   1.191   6.280  15.169  0.2664 -0.1790 -0.3456
14590TIP3    H165261   1.237   6.292  15.252 -0.3090 -0.6296  0.0452
14590TIP3    H265262   1.260   6.272  15.104  0.7166  0.9902 -0.0316
14591TIP3   OH265263   5.462   4.471  15.377 -0.5002 -0.6140 -0.1522
14591TIP3    H165264   5.367   4.465  15.363 -0.9017 -0.7371  2.4417
14591TIP3    H265265   5.484   4.562  15.358 -1.4324 -0.1682  0.8542
14592TIP3   OH265266   3.043   5.524  14.233  0.4421  0.4122 -0.2137
14592TIP3    H165267   2.982   5.452  14.252  1.0779  0.3773  1.8657
14592TIP3    H265268   3.000   5.602  14.269  0.6037  0.7781 -0.7996
14593TIP3   OH265269   2.683   0.685   0.923 -0.2926 -0.5366  0.4571
14593TIP3    H165270   2.631   0.719   0.851  1.6280  0.4647 -0.4982
14593TIP3    H265271   2.707   0.596   0.895  0.6415 -0.0690 -0.2683
14594TIP3   OH265272   0.705   0.537  10.605  0.8356  0.6608 -0.0319
14594TIP3    H165273   0.646   0.527  10.531  1.7371  0.1880 -0.7072
14594TIP3    H265274   0.654   0.583  10.671 -0.0494  0.8858 -0.8647
14595TIP3   OH265275   2.358   2.602   2.819  0.4445 -0.5565 -0.5287
14595TIP3    H165276   2.437   2.565   2.782  1.0801  0.2489 -0.0071
14595TIP3    H265277   2.370   2.595   2.914 -0.5097 -1.2646 -0.4583
14596TIP3   OH265278   6.552   2.149  14.149 -0.1681 -0.2766  0.1582
14596TIP3    H165279   6.610   2.219  14.180  0.3593  0.6160 -2.7168
14596TIP3    H265280   6.479   2.196  14.108 -0.7902 -1.4130 -0.0409
14597TIP3   OH265281   3.332   3.374   0.163  0.0471 -0.4685 -0.1989
14597TIP3    H165282   3.365   3.332   0.242  0.1237  0.1213  0.0795
14597TIP3    H265283   3.245   3.407   0.187  0.6371  0.9215  0.0403
14598TIP3   OH265284   2.412   2.225  14.615 -0.1734  0.2549 -0.0334
14598TIP3    H165285   2.470   2.246  14.688 -1.9903 -0.0839  1.5781
14598TIP3    H265286   2.370   2.142  14.642 -0.5099 -0.1209 -1.6764
14599TIP3   OH265287   2.832   4.471  16.581 -0.1992  0.1974  0.0176
14599TIP3    H165288   2.767   4.414  16.540 -0.1713  1.3109 -1.6081
14599TIP3    H265289   2.872   4.518  16.509  2.4447 -0.4617  0.9837
14600TIP3   OH265290   6.376   1.392   0.778  0.2725  0.0885  0.0573
14600TIP3    H165291   6.284   1.419   0.776  0.2604  0.0892  0.6760
14600TIP3    H265292   6.407   1.409   0.689 -0.0207  1.1668  0.1471
14601TIP3   OH265293   1.165   4.955  13.429  0.3021 -0.2774 -0.2234
14601TIP3    H165294   1.158   5.013  13.353  2.0611 -0.9681 -0.9418
14601TIP3    H265295   1.094   4.892  13.418 -0.0570  0.2185 -0.7736
14602TIP3   OH265296   4.247   6.753  11.507 -0.2178 -0.3282 -0.0101
14602TIP3    H165297   4.337   6.747  11.475 -0.9951 -0.9722 -2.1857
14602TIP3    H265298   4.193   6.742  11.429 -2.1703  3.7224  0.6252
14603TIP3   OH265299   2.610   0.829   3.319  0.4769 -0.0101 -0.0584
14603TIP3    H165300   2.562   0.750   3.344 -0.5285  0.3709 -0.7177
14603TIP3    H265301   2.701   0.812   3.343  0.0044 -0.7500  1.2187
14604TIP3   OH265302   2.395   0.805  12.481  0.2223  0.2860  0.4181
14604TIP3    H165303   2.451   0.737  12.518 -1.2116 -1.1072  0.0753
14604TIP3    H265304   2.455   0.864  12.435  1.5108 -0.5269  1.0647
14605TIP3   OH265305   5.345   1.554  16.490  0.0166 -0.1215 -0.3247
14605TIP3    H165306   5.289   1.587  16.561  0.3619  0.8535 -0.4878
14605TIP3    H265307   5.416   1.618  16.485  1.3135 -1.4948  0.0771
14606TIP3   OH265308   0.831   4.257  15.957  0.1727  1.0234 -0.0239
14606TIP3    H165309   0.792   4.300  15.882 -0.5738  1.7131  0.7481
14606TIP3    H265310   0.770   4.273  16.029 -0.1404 -1.3603  0.2958
14607TIP3   OH265311   5.221   4.264  11.162  0.5384  0.4837 -0.1307
14607TIP3    H165312   5.232   4.308  11.247  0.2835  0.7454 -0.2334
14607TIP3    H265313   5.170   4.326  11.110 -1.3185 -0.6584  0.2767
14608TIP3   OH265314   0.923   3.700   4.295 -0.1163 -0.7332  0.6203
14608TIP3    H165315   0.896   3.733   4.381 -0.0255  1.0357 -0.0031
14608TIP3    H265316   0.948   3.779   4.246 -0.8436 -1.6460 -1.2718
14609TIP3   OH265317   2.709   5.468   3.949 -0.0018 -0.3861 -0.0472
14609TIP3    H165318   2.687   5.553   3.988 -3.2579 -0.7890 -0.8241
14609TIP3    H265319   2.665   5.468   3.864 -2.3725 -3.8291  1.0514
14610TIP3   OH265320   6.809   0.324   0.261 -0.3942  0.4117 -0.2322
14610TIP3    H165321   6.796   0.283   0.176 -1.2549  2.3952 -1.0823
14610TIP3    H265322   6.733   0.298   0.312 -0.5026  0.2386 -0.4808
14611TIP3   OH265323   0.509   1.264   5.265  0.3836  0.1332  0.8645
14611TIP3    H165324   0.550   1.194   5.213 -1.1306  0.2674 -0.5671
14611TIP3    H265325   0.494   1.334   5.202 -1.7653  0.1901  1.4053
14612TIP3   OH265326   3.667   3.199  15.602  0.0637 -0.3940 -0.0147
14612TIP3    H165327   3.758   3.173  15.615  0.6364  1.1581 -0.8799
14612TIP3    H265328   3.630   3.129  15.547  0.7279 -0.9960  0.2921
14613TIP3   OH265329   4.642   2.442   1.614  0.5757 -0.1436  0.0450
14613TIP3    H165330   4.719   2.386   1.622 -0.3483 -1.2956  1.0981
14613TIP3    H265331   4.677   2.531   1.615  1.9709 -0.6671 -0.5844
14614TIP3   OH265332   2.539   0.538   5.041 -0.0253  0.2458  0.2926
14614TIP3    H165333   2.481   0.575   5.108 -0.3749 -0.0752  0.1692
14614TIP3    H265334   2.530   0.443   5.051 -1.4681  0.1809 -1.3874
14615TIP3   OH265335   0.365   2.588  12.119 -0.4416 -1.0653 -0.5238
14615TIP3    H165336   0.428   2.608  12.050 -0.1208  1.1878  0.3648
14615TIP3    H265337   0.286   2.559  12.072  0.0172 -0.2914 -1.7970
14616TIP3   OH265338   6.599   5.666  15.932 -0.1921  0.9308 -0.7209
14616TIP3    H165339   6.619   5.738  15.872  0.5742 -0.2264 -1.8655
14616TIP3    H265340   6.614   5.587  15.881  1.7346 -0.1155  1.3782
14617TIP3   OH265341   0.308   6.379  13.407 -0.1209 -0.4862 -0.5628
14617TIP3    H165342   0.335   6.397  13.497 -1.4613  0.3817 -0.3266
14617TIP3    H265343   0.389   6.354  13.362  0.6099 -0.5880  0.7936
14618TIP3   OH265344   4.963   5.908   4.966 -0.1531  0.1357 -0.0303
14618TIP3    H165345   4.989   5.842   5.030 -0.6466  0.1123  0.1502
14618TIP3    H265346   5.025   5.898   4.894 -0.7032 -1.0592 -0.3545
14619TIP3   OH265347   1.898   6.659  13.581 -0.1250  0.1541 -0.4205
14619TIP3    H165348   1.986   6.697  13.591  0.7118 -1.8462  0.0688
14619TIP3    H265349   1.844   6.707  13.643  1.4555 -1.0357  1.9863
14620TIP3   OH265350   2.890   2.664  16.428  0.0515 -0.0624 -0.0966
14620TIP3    H165351   2.854   2.604  16.493 -0.1333 -0.5938 -0.6748
14620TIP3    H265352   2.977   2.687  16.461 -0.6116  0.8194  1.0490
14621TIP3   OH265353   2.020   4.405   4.415 -0.1049  0.3454 -0.2364
14621TIP3    H165354   2.052   4.332   4.362 -1.6246 -0.4410 -0.0850
14621TIP3    H265355   2.100   4.452   4.440  0.9025 -1.1904 -0.4421
14622TIP3   OH265356   3.108   2.280  17.162 -0.4541  0.4102 -0.0693
14622TIP3    H165357   3.033   2.254  17.110  0.4056 -2.5347  0.0649
14622TIP3    H265358   3.142   2.358  17.118 -0.6343 -1.1218 -3.0778
14623TIP3   OH265359   2.568   2.448  15.137 -0.4318 -0.3265  0.7302
14623TIP3    H165360   2.478   2.435  15.165 -0.8353 -0.5251 -0.5939
14623TIP3    H265361   2.575   2.542  15.119 -1.6692 -0.8767 -3.2581
14624TIP3   OH265362   3.308   0.474  12.892  0.2798  0.1070 -0.3674
14624TIP3    H165363   3.337   0.385  12.912 -0.4098 -0.4062 -1.5882
14624TIP3    H265364   3.301   0.517  12.978  0.6523 -1.0055  0.2272
14625TIP3   OH265365   4.229   6.516   1.916 -0.5698  0.1658 -0.0941
14625TIP3    H165366   4.316   6.482   1.934 -0.3197  1.3489  0.9717
14625TIP3    H265367   4.237   6.558   1.830  0.2001  1.1917  0.4621
14626TIP3   OH265368   4.915   1.912   1.534 -0.3547  0.1340  0.2425
14626TIP3    H165369   4.952   1.895   1.621 -1.6904 -1.6227  0.5132
14626TIP3    H265370   4.877   1.828   1.509 -0.5558  0.8156 -1.7696
14627TIP3   OH265371   0.511   5.053  14.423 -0.3318 -0.1746 -0.4693
14627TIP3    H165372   0.457   5.118  14.466 -1.4652 -1.1234 -0.4306
14627TIP3    H265373   0.579   5.103  14.379 -1.9562  1.1490 -1.5456
14628TIP3   OH265374   1.472   0.813  14.726 -0.0106  0.2215  0.1665
14628TIP3    H165375   1.568   0.807  14.720 -0.0236  1.8548 -1.7880
14628TIP3    H265376   1.445   0.855  14.645 -2.2094  1.8794  1.7029
14629TIP3   OH265377   6.182   4.221  11.021  0.1727 -0.5941 -0.3294
14629TIP3    H165378   6.221   4.301  10.985  1.0283 -0.2004  1.4058
14629TIP3    H265379   6.157   4.170  10.944  1.3074  0.5275 -1.4803
14630TIP3   OH265380   4.341   4.443   2.569 -0.0546  0.0528 -0.0353
14630TIP3    H165381   4.387   4.368   2.533 -1.6126  0.0131 -2.0696
14630TIP3    H265382   4.323   4.420   2.660  1.6647 -0.9718  0.0555
14631TIP3   OH265383   6.251   0.266  12.956 -0.0737 -0.2584  0.2726
14631TIP3    H165384   6.324   0.327  12.946 -0.1957 -0.3570 -1.3646
14631TIP3    H265385   6.190   0.289  12.886 -1.9769  0.2804  2.0458
14632TIP3   OH265386   6.459   2.312   2.812  0.1843 -0.2316 -0.0278
14632TIP3    H165387   6.468   2.249   2.883 -0.2247  0.6622  0.8304
14632TIP3    H265388   6.365   2.332   2.810  0.0407 -1.0163 -1.4910
14633TIP3   OH265389   6.564   0.431   3.037 -0.0333  0.1792  0.2635
14633TIP3    H165390   6.507   0.397   2.968 -1.4005  0.2026  1.3600
14633TIP3    H265391   6.582   0.521   3.011 -1.1021  0.4039  0.2781
14634TIP3   OH265392   4.622   0.132  16.393  0.8155  0.7208  0.1503
14634TIP3    H165393   4.630   0.101  16.303  1.1962  1.9905 -0.2720
14634TIP3    H265394   4.634   0.054  16.447 -0.1467 -0.1839 -0.9091
14635TIP3   OH265395   5.861   4.919   3.315 -0.1353  0.4167 -0.0860
14635TIP3    H165396   5.846   5.013   3.306  0.5151  0.2318 -3.7603
14635TIP3    H265397   5.956   4.909   3.306 -0.2159 -0.6338  0.1401
14636TIP3   OH265398   6.627   2.851   0.226  0.0970 -0.1430  0.1150
14636TIP3    H165399   6.707   2.901   0.238 -0.6015  1.5115 -1.8384
14636TIP3    H265400   6.656   2.759   0.225  2.1341  0.4841 -1.8154
14637TIP3   OH265401   1.805   1.825  13.562  0.1548  0.0370 -0.0961
14637TIP3    H165402   1.886   1.793  13.523  1.1942  2.5392 -0.1254
14637TIP3    H265403   1.820   1.920  13.572 -1.6672  0.0828  2.5405
14638TIP3   OH265404   5.359   6.001   2.175 -0.0551  0.6492 -0.1602
14638TIP3    H165405   5.433   6.017   2.233 -0.6426 -2.0372  1.3948
14638TIP3    H265406   5.392   5.939   2.109 -0.0016  2.0356 -1.4755
14639TIP3   OH265407   6.693   6.287   5.300  0.4010  0.8140  0.3136
14639TIP3    H165408   6.726   6.361   5.351  0.4119  0.8809  0.2108
14639TIP3    H265409   6.598   6.301   5.297  0.4959  1.3314 -0.4935
14640TIP3   OH265410   2.447   6.136  15.499  0.3106  0.4726 -0.6234
14640TIP3    H165411   2.409   6.220  15.474  0.6855  1.0655  0.7554
14640TIP3    H265412   2.373   6.085  15.532  0.4403  1.0922  0.6644
14641TIP3   OH265413   3.863   2.950   4.807  0.0074 -0.4696  0.3039
14641TIP3    H165414   3.883   2.941   4.900 -2.2542 -1.5982  0.7179
14641TIP3    H265415   3.788   2.893   4.793  0.4274 -0.4585 -2.2709
14642TIP3   OH265416   1.457   0.000   5.475 -0.0671  0.1026  0.0380
14642TIP3    H165417   1.435   0.063   5.544 -0.3488  0.3758 -0.2987
14642TIP3    H265418   1.372  -0.028   5.440  0.0621 -0.3555  0.0898
14643TIP3   OH265419   1.570   0.338  13.639  0.2635  0.3892  0.0861
14643TIP3    H165420   1.629   0.294  13.700 -1.4491  0.5281  1.8708
14643TIP3    H265421   1.504   0.380  13.694  0.1004  2.6543 -1.7136
14644TIP3   OH265422   5.473   4.457  17.195 -0.1596  0.4681  0.4449
14644TIP3    H165423   5.437   4.380  17.239  3.0239 -0.2242  2.0083
14644TIP3    H265424   5.477   4.524  17.263  0.4699  0.8714  0.0132
14645TIP3   OH265425   1.711   2.202   2.758 -0.3749 -0.3390  0.3088
14645TIP3    H165426   1.637   2.234   2.808  1.2787  1.3846  1.7424
14645TIP3    H265427   1.678   2.193   2.669 -1.7407  2.5370  0.4720
14646TIP3   OH265428   1.290   1.095   4.861 -0.3687  0.3685 -0.5087
14646TIP3    H165429   1.289   1.120   4.954 -1.5234  1.5570 -0.8217
14646TIP3    H265430   1.247   1.010   4.858 -0.1214  0.2190  0.0671
14647TIP3   OH265431   0.204   6.216  16.739  0.0509 -0.7787  0.3636
14647TIP3    H165432   0.148   6.247  16.811 -0.6994 -1.1581 -0.0469
14647TIP3    H265433   0.198   6.286  16.673  2.6641  0.6994  1.6395
14648TIP3   OH265434   1.640   4.203  14.550 -0.0835  0.0829 -0.0387
14648TIP3    H165435   1.653   4.159  14.635 -1.9381  0.8989  0.6823
14648TIP3    H265436   1.679   4.290  14.562 -1.9422  0.8462  0.5856
14649TIP3   OH265437   6.568   1.938   4.862 -0.2717 -0.5747  0.1989
14649TIP3    H165438   6.588   2.028   4.887  2.2170 -1.5744  1.9764
14649TIP3    H265439   6.480   1.943   4.824 -0.5131  2.4533  1.0195
14650TIP3   OH265440   1.146   0.060   5.524  0.1763 -0.1039 -0.6931
14650TIP3    H165441   1.072  -0.000   5.525  0.0046  0.0941  0.6835
14650TIP3    H265442   1.162   0.080   5.617  2.5280 -0.8385 -0.8947
14651TIP3   OH265443   1.105   1.243   2.813 -0.0933  0.1268 -0.2175
14651TIP3    H165444   1.185   1.210   2.853 -0.7363 -0.3867  0.6862
14651TIP3    H265445   1.119   1.234   2.719  0.6435 -0.5759 -0.0464
14652TIP3   OH265446   3.300   4.187  15.593 -0.0322 -0.1120 -0.0039
14652TIP3    H165447   3.341   4.148  15.516  0.4925 -1.9976  1.1794
14652TIP3    H265448   3.212   4.210  15.564  0.8737  1.2724 -1.7590
14653TIP3   OH265449   0.835   2.770  13.955 -0.1485  0.0913 -0.0487
14653TIP3    H165450   0.804   2.683  13.931  0.2935 -0.7467  2.2577
14653TIP3    H265451   0.756   2.823  13.961 -0.5710 -0.5347 -0.0052
14654TIP3   OH265452   6.670   6.034  11.186 -0.6967  0.1685 -0.2617
14654TIP3    H165453   6.744   6.049  11.244 -1.3425  0.3813  0.5133
14654TIP3    H265454   6.649   6.121  11.150  0.9580 -0.2530 -2.3771
14655TIP3   OH265455   6.816   1.799  15.806 -0.5303  0.2232 -0.6267
14655TIP3    H165456   6.810   1.714  15.849  0.3594 -0.2020 -1.3260
14655TIP3    H265457   6.870   1.783  15.729  2.2745  2.0510  0.8760
14656TIP3   OH265458   6.760   2.709  13.134 -0.4461 -0.3848  0.2884
14656TIP3    H165459   6.785   2.768  13.063 -1.8809 -1.2082 -0.9280
14656TIP3    H265460   6.824   2.726  13.203  0.4544  1.0390 -0.8697
14657TIP3   OH265461   1.142   0.052   2.907  0.2844 -0.5532  0.0087
14657TIP3    H165462   1.186   0.031   2.990 -0.6041 -0.1586  0.5910
14657TIP3    H265463   1.134   0.147   2.908 -1.0579 -0.6542  0.1714
14658TIP3   OH265464   1.467   2.233   2.885 -0.6294 -0.6263  0.0721
14658TIP3    H165465   1.460   2.153   2.832  0.6669  0.5510 -1.9611
14658TIP3    H265466   1.388   2.233   2.938 -1.0602 -2.8372 -0.5021
14659TIP3   OH265467   3.906   4.283  17.210  0.1773 -0.0183  0.1704
14659TIP3    H165468   3.886   4.364  17.163 -0.1736  0.3364  0.9278
14659TIP3    H265469   3.925   4.219  17.141 -2.5605 -0.1123 -0.5370
14660TIP3   OH265470   0.644   3.393  16.899  0.3251 -0.5748  0.0321
14660TIP3    H165471   0.650   3.484  16.926  0.7143 -0.6102  0.0639
14660TIP3    H265472   0.595   3.350  16.969 -1.4311 -0.0307 -0.8410
14661TIP3   OH265473   3.570   6.736  12.375 -0.1972 -0.0637 -0.3012
14661TIP3    H165474   3.554   6.669  12.443 -1.5176  1.1164  0.5913
14661TIP3    H265475   3.662   6.759  12.386  0.4242 -2.1052 -0.9684
14662TIP3   OH265476   6.253   2.124  10.796 -0.4753 -0.0414  0.6804
14662TIP3    H165477   6.255   2.049  10.737 -0.6431 -0.7587  1.5673
14662TIP3    H265478   6.161   2.151  10.798 -0.6511 -0.6554  1.3816
14663TIP3   OH265479   5.590   2.729   2.980 -0.5726 -0.0946  0.1274
14663TIP3    H165480   5.572   2.821   2.962 -0.4736 -0.3934 -1.6186
14663TIP3    H265481   5.567   2.684   2.899 -0.0313 -1.5365  0.7554
14664TIP3   OH265482   4.390   4.569   1.098  0.0555 -0.2030 -0.4471
14664TIP3    H165483   4.434   4.562   1.013 -0.2132 -0.9599 -0.5295
14664TIP3    H265484   4.305   4.607   1.077 -0.5627 -1.7024 -0.7105
14665TIP3   OH265485   0.060   2.975   0.266 -0.4776 -0.4953  0.3524
14665TIP3    H165486   0.113   2.956   0.188  0.6286  0.7076  0.7891
14665TIP3    H265487   0.017   3.058   0.247  1.5284  0.9734  1.8328
14666TIP3   OH265488   4.058   3.616   4.330  0.7634  0.0453  0.3259
14666TIP3    H165489   3.974   3.663   4.327  0.6670 -0.1289  0.2514
14666TIP3    H265490   4.117   3.675   4.377  0.6852  0.3069  0.0984
14667TIP3   OH265491   1.378   0.643  15.964 -0.1276 -0.8635 -0.5237
14667TIP3    H165492   1.377   0.576  16.033 -1.2663  0.1138  0.4279
14667TIP3    H265493   1.469   0.672  15.959 -0.0039 -1.0783  0.4345
14668TIP3   OH265494   4.628   4.324   0.869 -0.4280  0.0930 -0.0332
14668TIP3    H165495   4.576   4.281   0.937 -0.4924  1.3884  0.7417
14668TIP3    H265496   4.618   4.268   0.793 -0.6075 -1.2141  0.9359
14669TIP3   OH265497   3.616   3.810  14.749 -0.2192 -0.2088 -0.1262
14669TIP3    H165498   3.591   3.718  14.750 -0.1377 -0.2419  2.8188
14669TIP3    H265499   3.537   3.857  14.778  0.2934  0.4653  0.2015
14670TIP3   OH265500   6.101   4.867  11.620  0.5543 -0.6583  0.0737
14670TIP3    H165501   6.192   4.892  11.604 -0.1368  0.4902 -2.3487
14670TIP3    H265502   6.084   4.891  11.711  1.9469  1.4024 -0.1910
14671TIP3   OH265503   5.609   1.988  13.757 -0.0996  0.1397 -0.1178
14671TIP3    H165504   5.553   2.028  13.692  0.4311  0.3512 -0.4505
14671TIP3    H265505   5.593   1.894  13.748 -0.6145  0.2161 -0.0070
14672TIP3   OH265506   2.899   6.493   2.705  0.3670  0.0904  0.7782
14672TIP3    H165507   2.847   6.572   2.713  0.0397  0.2003 -1.8702
14672TIP3    H265508   2.964   6.513   2.637  1.2947 -1.3665  1.2024
14673TIP3   OH265509   3.996   0.633  14.767 -0.1235  0.2289 -0.3008
14673TIP3    H165510   3.923   0.597  14.717 -1.9560  3.4213 -0.1208
14673TIP3    H265511   3.999   0.581  14.848 -1.6662 -0.4879 -0.6949
14674TIP3   OH265512   1.038   1.929  12.877  0.1963  0.3443  0.0100
14674TIP3    H165513   1.132   1.947  12.877  0.4537 -0.8535  2.4626
14674TIP3    H265514   1.015   1.922  12.970 -2.1577 -0.2067 -0.5892
14675TIP3   OH265515   2.710   6.590   2.435 -0.6540  0.0156  0.1295
14675TIP3    H165516   2.733   6.503   2.402 -3.1806 -1.0721  1.0829
14675TIP3    H265517   2.703   6.578   2.530  1.0508  1.7901  0.5130
14676TIP3   OH265518   1.916   3.875  17.112 -0.3527 -0.3738  0.4800
14676TIP3    H165519   1.920   3.834  17.025  1.0486  2.9713 -1.1236
14676TIP3    H265520   2.006   3.876  17.142 -0.5651  0.2724  1.1002
14677TIP3   OH265521   1.644   0.274  13.938  0.4441  0.3687 -0.1536
14677TIP3    H165522   1.598   0.195  13.966 -0.6161  0.7997 -0.6464
14677TIP3    H265523   1.577   0.343  13.943  1.2733  1.1694 -0.0324
14678TIP3   OH265524   5.769   3.682  10.740  0.3737  0.4056 -0.8177
14678TIP3    H165525   5.674   3.675  10.728  0.2604 -0.0645  0.3311
14678TIP3    H265526   5.800   3.725  10.660 -0.8900  1.1974 -0.8983
14679TIP3   OH265527   6.709   3.349   4.114 -0.0783  0.5406 -0.0383
14679TIP3    H165528   6.803   3.343   4.128 -0.1897  0.3059  0.6292
14679TIP3    H265529   6.677   3.259   4.124 -0.6295  0.9078  1.6772
14680TIP3   OH265530   3.066   6.745  16.055  0.1835  0.3351  0.0530
14680TIP3    H165531   2.998   6.800  16.017  1.4230  1.8088 -0.0775
14680TIP3    H265532   3.110   6.706  15.979 -2.3787 -3.0226  0.1658
14681TIP3   OH265533   5.734   2.120   0.330  0.3427 -0.1760 -0.2617
14681TIP3    H165534   5.754   2.067   0.408 -2.2406 -0.2066  0.4378
14681TIP3    H265535   5.691   2.058   0.270  0.7750  0.2544 -1.0276
14682TIP3   OH265536   5.506   6.235  13.266  0.0562  0.3251 -0.3638
14682TIP3    H165537   5.585   6.183  13.251 -0.9644 -1.1874 -0.6538
14682TIP3    H265538   5.533   6.303  13.326  1.5101 -0.3730 -0.2001
14683TIP3   OH265539   1.716   2.333  12.358 -0.1938 -0.4469 -0.3744
14683TIP3    H165540   1.664   2.297  12.286  2.9084 -2.3715 -1.7953
14683TIP3    H265541   1.806   2.330  12.325  0.9581  1.5925  2.4371
14684TIP3   OH265542   2.956   0.965  16.142  1.5461  0.2276 -0.4423
14684TIP3    H165543   3.049   0.968  16.162  1.0322  2.6524  1.9807
14684TIP3    H265544   2.913   0.982  16.226 -1.1165 -1.8830 -1.3173
14685TIP3   OH265545   5.905   2.553  16.317 -0.0082 -0.1992 -0.2555
14685TIP3    H165546   5.830   2.495  16.307 -0.4416  0.1705  0.7555
14685TIP3    H265547   5.878   2.635  16.277 -0.4688  0.1986  0.8415
14686TIP3   OH265548   4.717   4.956   5.998  0.3892 -0.3102  0.2207
14686TIP3    H165549   4.660   4.887   6.031  1.2692 -0.4825  1.3783
14686TIP3    H265550   4.767   4.985   6.074  2.4787 -0.7577 -0.9420
14687TIP3   OH265551   0.313   3.741  14.381 -0.1271  0.0157  0.4936
14687TIP3    H165552   0.258   3.766  14.455 -2.7185 -1.6916 -0.8058
14687TIP3    H265553   0.321   3.821  14.329  1.7139  1.2343  2.5487
14688TIP3   OH265554   6.564   4.661  14.731  0.0606 -0.3427 -0.0146
14688TIP3    H165555   6.561   4.693  14.641 -1.9886  0.0459  0.1685
14688TIP3    H265556   6.639   4.706  14.770  2.1646 -1.9706 -2.0461
14689TIP3   OH265557   4.760   4.022  12.940 -0.1501  0.0726  0.0269
14689TIP3    H165558   4.665   4.019  12.948 -0.2119  1.8233  0.0099
14689TIP3    H265559   4.791   4.003  13.029 -0.4534 -2.3935 -0.3536
14690TIP3   OH265560   5.783   6.006  13.496  0.2314  0.2823 -0.2092
14690TIP3    H165561   5.761   6.015  13.404  3.2452 -0.1766 -1.0256
14690TIP3    H265562   5.772   5.914  13.516  1.1842  0.0773 -0.5851
14691TIP3   OH265563   3.873   0.948   4.407  0.5329  0.3399 -0.0723
14691TIP3    H165564   3.841   1.038   4.422  1.8850  0.6772  0.8001
14691TIP3    H265565   3.892   0.946   4.313 -0.6997  0.5588 -0.3481
14692TIP3   OH265566   6.280   4.367  12.043  1.1628  0.4082  0.1368
14692TIP3    H165567   6.291   4.453  12.003 -0.5477  0.5698 -0.0528
14692TIP3    H265568   6.236   4.385  12.126 -1.8804 -0.4723 -1.2090
14693TIP3   OH265569   0.729   0.144  13.822 -0.2439  0.2066 -0.0765
14693TIP3    H165570   0.742   0.134  13.728 -2.9936  0.7265 -0.5445
14693TIP3    H265571   0.729   0.055  13.856 -1.0828 -0.0975 -0.8490
14694TIP3   OH265572   3.101   0.507   5.074  0.1085 -0.3213 -0.2605
14694TIP3    H165573   3.171   0.442   5.070 -1.2865 -1.7939 -1.8498
14694TIP3    H265574   3.132   0.573   5.135  1.8771 -2.1288  0.8317
14695TIP3   OH265575   2.289   2.361  16.213  0.0827  0.2216  0.2006
14695TIP3    H165576   2.300   2.330  16.303 -1.0071  1.4465  0.7922
14695TIP3    H265577   2.373   2.400  16.190 -0.0971  1.2865  1.2713
14696TIP3   OH265578   5.081   0.547   1.402 -0.0950 -0.1503 -0.4092
14696TIP3    H165579   5.151   0.579   1.460 -0.8133  0.7470 -0.0205
14696TIP3    H265580   5.124   0.481   1.348  1.2633  0.9328 -0.7105
14697TIP3   OH265581   5.426   6.317   2.975  0.1807 -0.1819  0.2896
14697TIP3    H165582   5.503   6.344   2.925  0.2091  0.4177  0.6507
14697TIP3    H265583   5.460   6.286   3.059  0.2037 -2.0206 -0.3829
14698TIP3   OH265584   1.847   0.404   2.782  0.0719 -0.0587 -0.7813
14698TIP3    H165585   1.844   0.309   2.772  1.3353 -0.2550  0.4994
14698TIP3    H265586   1.787   0.437   2.715 -1.1386 -1.7881 -0.5847
14699TIP3   OH265587   6.153   0.101   0.102  0.2707 -0.1765 -0.0528
14699TIP3    H165588   6.197   0.185   0.117 -0.9537  0.1008  2.0320
14699TIP3    H265589   6.213   0.036   0.137  1.8106 -0.3498 -2.7986
14700TIP3   OH265590   0.071   1.602   1.501  0.3310 -0.7950 -0.4134
14700TIP3    H165591   0.088   1.652   1.421  2.5359 -1.9872 -0.7472
14700TIP3    H265592  -0.007   1.551   1.481  0.6384 -0.7933 -1.6773
14701TIP3   OH265593   1.112   2.224   3.707  0.2162 -0.5457 -0.3872
14701TIP3    H165594   1.138   2.211   3.616  0.7859 -2.8315  0.0910
14701TIP3    H265595   1.044   2.159   3.723 -0.4798  0.3914  0.5972
14702TIP3   OH265596   4.739   5.003  12.352  0.3340 -0.0272  0.0400
14702TIP3    H165597   4.662   4.972  12.399  1.4514 -0.3551  1.7074
14702TIP3    H265598   4.705   5.064  12.287 -1.4236 -0.9615  0.0525
14703TIP3   OH265599   5.240   2.485   2.603  0.3596  0.0764  0.3545
14703TIP3    H165600   5.275   2.558   2.551 -2.6699  0.4222 -1.3409
14703TIP3    H265601   5.235   2.412   2.541  1.1766 -0.8976  1.4246
14704TIP3   OH265602   4.632   2.853   2.009 -0.1570 -0.1443  0.1066
14704TIP3    H165603   4.610   2.838   2.101 -0.2041 -1.4147 -0.0981
14704TIP3    H265604   4.675   2.772   1.981  1.7901  1.0444 -0.4177
14705TIP3   OH265605   4.503   2.394  15.223  0.0351  0.6560 -0.4776
14705TIP3    H165606   4.439   2.398  15.294  0.4790  1.5127 -0.1225
14705TIP3    H265607   4.582   2.358  15.263  0.2926  1.1574 -0.5348
14706TIP3   OH265608   3.109   1.908   0.815  0.4426 -0.4953  0.4728
14706TIP3    H165609   3.058   1.982   0.783 -0.6633 -0.5982  1.9281
14706TIP3    H265610   3.171   1.946   0.877 -0.3855 -0.8060  1.5157
14707TIP3   OH265611   5.229   2.914   2.556 -0.0278 -0.6355  0.4343
14707TIP3    H165612   5.160   2.925   2.490 -0.8652 -0.6354  1.2973
14707TIP3    H265613   5.278   2.837   2.526  0.4779  0.2001 -0.9398
14708TIP3   OH265614   2.424   0.389   2.678  0.3466  0.1249  0.0368
14708TIP3    H165615   2.371   0.434   2.612 -0.1573 -0.0009  0.3550
14708TIP3    H265616   2.469   0.320   2.628  1.0792  0.9422 -0.4343
14709TIP3   OH265617   0.427   6.080  12.450 -0.2674 -0.4147 -0.9105
14709TIP3    H165618   0.493   6.024  12.409 -0.5711 -1.9610  0.6738
14709TIP3    H265619   0.465   6.105  12.534  0.1551  2.3716 -1.8710
14710TIP3   OH265620   0.753   6.692   3.343  0.2167  0.1927  0.1141
14710TIP3    H165621   0.841   6.729   3.348  0.1213  0.5371 -0.7117
14710TIP3    H265622   0.728   6.679   3.434  1.1288  0.0721  0.3585
14711TIP3   OH265623   2.183   0.748   5.670 -0.3172  0.1036  0.6302
14711TIP3    H165624   2.179   0.836   5.708  1.3065  0.4784  0.0130
14711TIP3    H265625   2.217   0.762   5.582 -0.3438 -1.1213  0.4168
14712TIP3   OH265626   0.893   3.709   2.823  0.1138  0.8962  0.0988
14712TIP3    H165627   0.900   3.774   2.753 -0.4962  1.7692  0.8193
14712TIP3    H265628   0.894   3.624   2.779  0.1412  1.4304 -0.9253
14713TIP3   OH265629   5.785   3.707  12.312 -0.2423  0.0933  0.4696
14713TIP3    H165630   5.831   3.771  12.258  0.2658 -1.6271 -1.1720
14713TIP3    H265631   5.764   3.635  12.252 -0.1205 -1.6380  2.4421
14714TIP3   OH265632   3.631   3.421   1.779 -0.3040 -0.2200  0.5276
14714TIP3    H165633   3.559   3.364   1.806 -0.7353  0.6098  1.1614
14714TIP3    H265634   3.710   3.369   1.793 -0.7923 -1.1856 -0.3169
14715TIP3   OH265635   2.415   6.522  11.653 -0.4955  0.1760 -0.6881
14715TIP3    H165636   2.360   6.444  11.655 -0.9430  0.4418 -1.9878
14715TIP3    H265637   2.361   6.588  11.611 -0.2133  1.2774  0.6514
14716TIP3   OH265638   5.921   1.755   4.602  0.1203 -0.0146  0.1539
14716TIP3    H165639   5.924   1.665   4.634  0.0038  0.4170  1.4222
14716TIP3    H265640   5.897   1.807   4.679 -2.5183  0.8099 -1.1678
14717TIP3   OH265641   5.853   2.701   3.786  0.3813  0.3670  0.5504
14717TIP3    H165642   5.901   2.710   3.704 -1.0949 -1.7601 -0.6061
14717TIP3    H265643   5.896   2.762   3.846  2.8156  0.4283 -1.1780
14718TIP3   OH265644   2.671   1.106  14.220  0.3635 -0.0300 -0.0497
14718TIP3    H165645   2.696   1.072  14.306  1.6272 -1.4797 -0.9801
14718TIP3    H265646   2.743   1.165  14.196  0.2512 -0.0130 -0.3434
14719TIP3   OH265647   4.966   5.585   3.187  0.1981  0.1895  0.2894
14719TIP3    H165648   5.020   5.507   3.175  0.2858  0.3832 -0.5549
14719TIP3    H265649   4.891   5.572   3.129 -0.0796  0.4700  0.5784
14720TIP3   OH265650   2.147   2.458  14.376  0.8158 -0.3057 -0.2035
14720TIP3    H165651   2.135   2.545  14.338 -0.4645 -1.1563 -1.7917
14720TIP3    H265652   2.238   2.436  14.359  1.0246  0.5298 -0.1838
14721TIP3   OH265653   6.154   4.301   1.845 -0.0218  0.2527  0.5746
14721TIP3    H165654   6.184   4.314   1.755 -0.7522 -0.5955  0.2024
14721TIP3    H265655   6.210   4.359   1.898  0.8658  0.2329 -0.3360
14722TIP3   OH265656   3.542   4.497   2.776  0.1830 -0.7121 -0.5595
14722TIP3    H165657   3.593   4.563   2.729  2.2823 -1.3662  0.7340
14722TIP3    H265658   3.489   4.455   2.708  0.8045  0.5006 -1.8219
14723TIP3   OH265659   6.131   2.556  15.202  0.2119 -0.1681 -0.2630
14723TIP3    H165660   6.113   2.582  15.292  2.4884 -0.9308  0.4323
14723TIP3    H265661   6.068   2.486  15.184 -0.5740  0.3189  0.5480
14724TIP3   OH265662   1.172   3.529   1.898 -0.0124 -0.7644  0.4159
14724TIP3    H165663   1.117   3.453   1.913 -1.2495  0.2604  1.1262
14724TIP3    H265664   1.238   3.499   1.835  0.7249 -2.9717  2.1891
14725TIP3   OH265665   3.543   2.578  15.074  0.5232  0.0875 -0.0699
14725TIP3    H165666   3.536   2.527  15.155 -3.5131  2.4454  1.2451
14725TIP3    H265667   3.613   2.642  15.093  0.4319 -0.1422  1.1253
14726TIP3   OH265668   0.991   5.849   3.272  0.3272 -0.1288 -0.2607
14726TIP3    H165669   1.055   5.825   3.204  0.2959 -1.9638  0.3359
14726TIP3    H265670   0.908   5.816   3.239  0.0856  0.1380  0.0783
14727TIP3   OH265671   6.148   5.053   2.610  0.0157 -0.3632 -0.0083
14727TIP3    H165672   6.206   4.977   2.609  0.6099  0.0882  0.1220
14727TIP3    H265673   6.082   5.031   2.676  2.0497  0.6057  2.4127
14728TIP3   OH265674   4.584   2.702   5.823  0.5540 -0.4823  0.6291
14728TIP3    H165675   4.646   2.672   5.891 -0.0892 -0.0610  1.4132
14728TIP3    H265676   4.502   2.658   5.844  0.0776  0.4335  0.7279
14729TIP3   OH265677   2.082   4.724   4.421 -0.2915  0.3366 -0.4392
14729TIP3    H165678   2.166   4.683   4.438 -0.5304 -0.3955 -0.9967
14729TIP3    H265679   2.022   4.684   4.485 -0.9916 -1.7600 -2.3703
14730TIP3   OH265680   4.794   5.259  11.052 -0.3902 -0.3248  0.1153
14730TIP3    H165681   4.872   5.208  11.075 -0.2588 -0.6255 -0.9681
14730TIP3    H265682   4.825   5.323  10.987 -1.4019 -1.6464 -1.7086
14731TIP3   OH265683   3.601   1.286  11.782 -0.3248  0.0013  0.1882
14731TIP3    H165684   3.515   1.244  11.793  0.7020 -2.4883 -0.8931
14731TIP3    H265685   3.586   1.354  11.717 -1.6821  0.2003  0.6949
14732TIP3   OH265686   5.082   0.877  11.777  0.4871 -0.0150 -0.4841
14732TIP3    H165687   5.019   0.946  11.795  0.1466 -0.2312 -0.8315
14732TIP3    H265688   5.166   0.922  11.768  0.7436  0.0635  1.9796
14733TIP3   OH265689   2.726   2.151  12.993 -0.9461  0.7676  0.2799
14733TIP3    H165690   2.637   2.140  12.960 -0.9168  0.9976  0.1206
14733TIP3    H265691   2.723   2.234  13.041 -0.6625  1.0861 -0.2544
14734TIP3   OH265692   4.222   5.459   1.121  0.4084  0.3967  0.1801
14734TIP3    H165693   4.278   5.458   1.198  1.7373 -1.4070 -0.7813
14734TIP3    H265694   4.207   5.552   1.103  0.3975  0.8458  2.3537
14735TIP3   OH265695   1.414   3.054  11.304  0.5856 -0.6867 -0.5632
14735TIP3    H165696   1.438   3.144  11.286  0.5828 -0.8613 -1.4883
14735TIP3    H265697   1.483   3.021  11.362  0.4303 -0.0085  0.0074
14736TIP3   OH265698   0.730   0.269  12.825  0.3498  0.1912 -0.1031
14736TIP3    H165699   0.660   0.231  12.772  1.2446 -0.9858 -0.4544
14736TIP3    H265700   0.754   0.350  12.779 -0.0010  0.0151 -0.5974
14737TIP3   OH265701   0.847   6.253   5.237 -0.2936 -0.9900 -0.2131
14737TIP3    H165702   0.753   6.233   5.231 -0.4308 -0.5572  0.4129
14737TIP3    H265703   0.890   6.173   5.210 -0.8484 -1.1406 -0.6647
14738TIP3   OH265704   1.138   1.846   4.979  0.0932 -0.4417 -0.5470
14738TIP3    H165705   1.131   1.879   5.068 -0.3240 -2.8177  0.3448
14738TIP3    H265706   1.118   1.752   4.986 -0.8419 -0.5041 -3.2604
14739TIP3   OH265707   4.665   6.419   4.197 -0.2847 -0.5196 -0.1612
14739TIP3    H165708   4.697   6.338   4.237 -1.9153 -0.0524  2.2298
14739TIP3    H265709   4.579   6.397   4.164 -0.9898  0.3545  1.0416
14740TIP3   OH265710   6.045   5.821   4.447 -0.2823  0.4304  0.0234
14740TIP3    H165711   6.118   5.874   4.478 -0.1395  0.8924 -1.0485
14740TIP3    H265712   5.978   5.828   4.515  1.1116 -0.9588  1.5563
14741TIP3   OH265713   2.781   5.820   4.546 -0.0808  0.3703  0.2323
14741TIP3    H165714   2.752   5.842   4.634 -0.3000  1.8052 -0.1835
14741TIP3    H265715   2.749   5.892   4.492  1.1131  0.1186 -0.8285
14742TIP3   OH265716   1.056   5.256  12.947 -0.4746 -0.7798  0.1449
14742TIP3    H165717   1.008   5.176  12.928  0.1965 -0.8642 -1.2551
14742TIP3    H265718   1.094   5.242  13.034 -1.1749 -1.5802  0.3200
14743TIP3   OH265719   6.424   1.998   3.748 -0.1225 -0.2316 -0.5528
14743TIP3    H165720   6.445   2.065   3.684 -1.4877  0.6805 -0.0646
14743TIP3    H265721   6.354   1.946   3.708  0.4589 -0.9561 -0.6501
14744TIP3   OH265722   4.331   3.731  14.866 -0.1381  0.3138  0.3382
14744TIP3    H165723   4.263   3.696  14.808  0.7772  0.7204 -0.9915
14744TIP3    H265724   4.286   3.795  14.920 -1.0021 -0.0780  0.0928
14745TIP3   OH265725   2.950   1.309  12.312 -0.4155 -0.4000 -0.0949
14745TIP3    H165726   3.018   1.242  12.320  0.2891  0.1273 -1.3517
14745TIP3    H265727   2.882   1.269  12.258  0.3356  0.1195 -1.4557
14746TIP3   OH265728   5.267   1.602  14.641  0.2882 -0.5251 -0.5352
14746TIP3    H165729   5.324   1.660  14.592 -2.7002  3.2873  0.2874
14746TIP3    H265730   5.322   1.568  14.712  1.7073  2.6160 -0.0726
14747TIP3   OH265731   4.099   2.624  14.634  0.3964 -0.1826  0.0791
14747TIP3    H165732   4.070   2.650  14.721  1.2347 -0.1416  0.3523
14747TIP3    H265733   4.037   2.665  14.574  0.9985  1.4513  0.5640
14748TIP3   OH265734   5.627   6.391  16.975  0.8194 -0.1014  0.5115
14748TIP3    H165735   5.555   6.332  16.956 -0.1168  0.9955  0.6207
14748TIP3    H265736   5.691   6.374  16.905 -0.3475  0.2282 -0.6603
14749TIP3   OH265737   2.487   6.008  13.797 -0.3595 -0.3449  0.5651
14749TIP3    H165738   2.426   6.026  13.869  1.0618 -1.5288  2.0946
14749TIP3    H265739   2.445   5.938  13.747 -1.7128  1.0042 -0.2336
14750TIP3   OH265740   0.187   3.690   3.273 -0.4324 -0.2962 -0.0002
14750TIP3    H165741   0.230   3.746   3.339 -0.2763  0.9590 -1.1597
14750TIP3    H265742   0.238   3.609   3.275  1.2243  0.7071 -0.4433
14751TIP3   OH265743   4.711   2.600  12.021 -0.0919 -0.3767 -0.1062
14751TIP3    H165744   4.704   2.636  12.109  1.4039 -0.0556 -0.1078
14751TIP3    H265745   4.680   2.510  12.030 -1.3774  0.0977  0.4225
14752TIP3   OH265746   1.147   4.185   1.751 -0.1627 -0.3791  0.4931
14752TIP3    H165747   1.194   4.145   1.823 -0.9406  0.3523  1.4189
14752TIP3    H265748   1.096   4.113   1.713 -0.4772 -0.5602  1.2588
14753TIP3   OH265749   1.207   4.014  12.251  0.3799  0.7846 -0.5347
14753TIP3    H165750   1.200   3.922  12.226  3.9924  0.5014 -0.7483
14753TIP3    H265751   1.267   4.014  12.326  1.1133  3.0489 -1.0891
14754TIP3   OH265752   5.952   2.886   2.642  0.4261 -0.3894 -0.5009
14754TIP3    H165753   6.006   2.959   2.673 -0.1408 -0.5905  1.0079
14754TIP3    H265754   5.921   2.913   2.556  1.0832  0.6874 -0.4027
14755TIP3   OH265755   2.394   4.426   0.081 -0.4884  0.0634  0.6483
14755TIP3    H165756   2.472   4.464   0.041 -0.1592 -0.2240  1.0144
14755TIP3    H265757   2.421   4.339   0.110 -1.3675 -0.6454 -0.6028
14756TIP3   OH265758   1.118   0.156   5.058 -0.5364 -0.2132 -0.5692
14756TIP3    H165759   1.104   0.062   5.049  0.8329 -0.4073 -0.7775
14756TIP3    H265760   1.114   0.172   5.153  1.1442 -0.8025 -0.3886
14757TIP3   OH265761   4.869   2.871   3.194  0.6350  0.3752 -0.8849
14757TIP3    H165762   4.863   2.907   3.283 -0.3944 -1.1607 -0.3014
14757TIP3    H265763   4.937   2.923   3.151 -0.1145  2.3370  0.2242
14758TIP3   OH265764   5.026   4.941  11.664  0.2022  0.4038  0.6698
14758TIP3    H165765   5.034   4.950  11.569 -1.1977  0.9075  0.5849
14758TIP3    H265766   5.043   4.848  11.680  1.3510  0.4881  0.0413
14759TIP3   OH265767   2.887   4.364   4.600 -0.4823  0.2349  0.5551
14759TIP3    H165768   2.871   4.395   4.511 -3.4670 -2.4244  0.0675
14759TIP3    H265769   2.850   4.432   4.656 -1.6632  0.3506 -0.3416
14760TIP3   OH265770   1.419   2.047   3.622 -0.0649  0.1721 -0.2686
14760TIP3    H165771   1.329   2.025   3.598 -0.1128  1.2888 -1.1901
14760TIP3    H265772   1.413   2.136   3.656  0.4732 -0.3058  1.1023
14761TIP3   OH265773   6.439   1.462  10.680  0.2487 -0.2056 -0.2369
14761TIP3    H165774   6.356   1.417  10.693  0.4460 -0.8681 -1.2000
14761TIP3    H265775   6.442   1.528  10.749 -1.1657 -0.0462 -0.3077
14762TIP3   OH265776   0.928   0.264  15.853 -0.5446 -0.2399 -0.4687
14762TIP3    H165777   0.971   0.341  15.890 -1.5012  0.3032 -0.4715
14762TIP3    H265778   0.959   0.260  15.762  0.1436 -0.3408 -0.2303
14763TIP3   OH265779   4.989   6.066  12.128  0.7750  0.1176 -0.1996
14763TIP3    H165780   4.895   6.054  12.113  0.9295 -1.0645 -0.2528
14763TIP3    H265781   5.003   6.044  12.220  0.7851  1.6387  0.1743
14764TIP3   OH265782   1.876   5.189   1.146  1.0314 -0.2779 -0.3660
14764TIP3    H165783   1.847   5.124   1.210 -0.5307  1.2875  0.5702
14764TIP3    H265784   1.796   5.224   1.108  1.9034 -0.1509 -2.1507
14765TIP3   OH265785   1.935   3.894   2.917  0.3622  0.6232  0.3511
14765TIP3    H165786   1.952   3.887   3.011  0.5543  1.7073  0.3985
14765TIP3    H265787   2.011   3.942   2.882  0.6491 -0.4036 -0.4723
14766TIP3   OH265788   2.566   3.835  15.473 -0.3820  0.3885  0.8456
14766TIP3    H165789   2.524   3.893  15.536  0.4413 -0.2239  1.9828
14766TIP3    H265790   2.657   3.830  15.503 -0.0068  0.0211 -0.3442
14767TIP3   OH265791   6.729   2.020  17.184  0.1003 -0.8687 -0.0461
14767TIP3    H165792   6.735   1.956  17.112  1.3087 -1.3013  0.4173
14767TIP3    H265793   6.820   2.038  17.206 -0.2560  0.6294  0.1881
14768TIP3   OH265794   1.714   3.881  14.571 -0.4223 -0.1260 -0.1129
14768TIP3    H165795   1.777   3.935  14.620  0.2104  0.6390 -1.7425
14768TIP3    H265796   1.645   3.861  14.635  0.5635  0.5475  1.1932
14769TIP3   OH265797   4.704   0.435   4.344 -0.0304  0.0796 -0.1243
14769TIP3    H165798   4.776   0.376   4.366 -1.3617 -1.7689 -0.6364
14769TIP3    H265799   4.746   0.520   4.331  1.9874 -0.8532  0.1045
14770TIP3   OH265800   1.254   2.948  12.958  0.2383 -0.5818  0.1123
14770TIP3    H165801   1.172   2.900  12.969 -0.0471  0.3116  2.3739
14770TIP3    H265802   1.319   2.881  12.938 -0.8036 -1.4588 -0.3833
14771TIP3   OH265803   3.619   1.132   6.244 -0.4875 -0.3292 -0.2105
14771TIP3    H165804   3.583   1.191   6.310  0.5134 -1.6340  1.5554
14771TIP3    H265805   3.547   1.071   6.225 -0.0799 -1.3678  1.4239
14772TIP3   OH265806   0.554   2.912   1.215 -0.4229  0.3753  0.0555
14772TIP3    H165807   0.537   2.940   1.125 -2.0373 -0.5535  0.0524
14772TIP3    H265808   0.498   2.969   1.268 -0.0949  0.3676  0.4064
14773TIP3   OH265809   2.034   3.821  11.983 -0.0769  0.0895 -0.2352
14773TIP3    H165810   2.003   3.864  12.063 -0.6872 -3.4592  1.5071
14773TIP3    H265811   2.128   3.810  11.997 -0.1177 -0.1806 -0.1715
14774TIP3   OH265812   4.073   2.131   0.407  0.0852 -0.2514  0.3090
14774TIP3    H165813   4.159   2.134   0.448  0.0747 -2.9381  0.6147
14774TIP3    H265814   4.060   2.219   0.372  2.4771  0.4960  1.2063
14775TIP3   OH265815   2.023   0.202  13.925 -0.4278 -0.2708 -0.0401
14775TIP3    H165816   1.991   0.239  13.842  0.9022  1.3044  0.1258
14775TIP3    H265817   1.975   0.249  13.992 -0.4310 -0.5028  0.1198
14776TIP3   OH265818   0.670   0.143  14.631  0.0351 -0.5747 -0.0423
14776TIP3    H165819   0.725   0.077  14.589  1.7001  1.6980 -1.5373
14776TIP3    H265820   0.630   0.097  14.705  1.9928 -2.9518 -0.3872
14777TIP3   OH265821   4.614   0.496  13.921  0.2435 -0.0077 -0.2151
14777TIP3    H165822   4.617   0.453  13.836  1.7870  1.4735 -0.9223
14777TIP3    H265823   4.704   0.525  13.937 -0.3662  1.1983  1.1561
14778TIP3   OH265824   6.189   1.097  14.942  0.4560  0.2015 -0.6934
14778TIP3    H165825   6.240   1.060  15.013 -1.1737  0.2703  0.5441
14778TIP3    H265826   6.099   1.096  14.974  0.0213  2.6349 -1.7231
14779TIP3   OH265827   4.435   4.431   5.457 -0.3939  0.0583 -0.3448
14779TIP3    H165828   4.365   4.366   5.448 -0.8498  0.5576 -0.3768
14779TIP3    H265829   4.390   4.512   5.483  0.1677  0.3803 -0.3788
14780TIP3   OH265830   5.953   6.156   0.863  0.0347  0.2705 -0.1329
14780TIP3    H165831   5.962   6.145   0.768 -0.5061  0.5581 -0.2137
14780TIP3    H265832   5.909   6.240   0.874 -1.9550 -0.8058  0.3004
14781TIP3   OH265833   2.006   3.912   3.923  0.6809 -0.2134 -0.5779
14781TIP3    H165834   1.999   3.921   4.018 -0.0282  1.2744 -0.7604
14781TIP3    H265835   1.938   3.849   3.900 -0.2442  0.6616 -0.2831
14782TIP3   OH265836   2.638   2.178   5.620 -0.3299  0.4008  0.0296
14782TIP3    H165837   2.691   2.236   5.565  1.2251  0.0769  1.1492
14782TIP3    H265838   2.569   2.234   5.654 -1.0029  0.7323 -1.7899
14783TIP3   OH265839   6.010   3.851  11.502 -0.4795  0.1593 -1.0229
14783TIP3    H165840   5.965   3.884  11.424  0.1721 -1.4127 -2.0879
14783TIP3    H265841   6.024   3.758  11.483 -0.2980 -0.2262  0.9714
14784TIP3   OH265842   5.563   6.654  10.977 -0.3860  0.1489  0.4207
14784TIP3    H165843   5.505   6.729  10.964 -1.3928 -0.4963  1.1465
14784TIP3    H265844   5.547   6.597  10.902  0.9289  0.9935 -0.5274
14785TIP3   OH265845   4.277   0.229   4.831  0.9606 -0.0391 -0.3302
14785TIP3    H165846   4.307   0.174   4.758  1.2400 -0.3754  0.0353
14785TIP3    H265847   4.284   0.318   4.798 -0.6119 -0.2683 -1.3443
14786TIP3   OH265848   2.007   5.556   3.180 -0.3703  0.6631 -0.4895
14786TIP3    H165849   2.090   5.602   3.193 -0.5158  0.6659  0.4635
14786TIP3    H265850   2.010   5.525   3.090  1.8588 -1.7165  0.3505
14787TIP3   OH265851   6.495   0.660   6.190  0.1626 -0.0208 -0.1853
14787TIP3    H165852   6.522   0.585   6.243  1.2166  0.4439 -0.0439
14787TIP3    H265853   6.572   0.717   6.190 -0.7274  1.1882 -0.0629
14788TIP3   OH265854   0.700   0.429   1.696 -0.7489  0.5697 -0.5678
14788TIP3    H165855   0.669   0.498   1.754 -2.1694  1.6124 -2.4954
14788TIP3    H265856   0.795   0.439   1.694 -0.8730  1.8504 -0.0905
14789TIP3   OH265857   4.174   6.171   0.724  0.1425  0.0269 -0.0917
14789TIP3    H165858   4.203   6.080   0.724 -0.9264 -0.3204 -0.5085
14789TIP3    H265859   4.141   6.187   0.636 -0.5649  0.5271  0.2537
14790TIP3   OH265860   1.169   4.645   4.225 -0.1349 -0.2925  0.4171
14790TIP3    H165861   1.123   4.609   4.301  0.9693 -1.2913  0.6149
14790TIP3    H265862   1.242   4.695   4.262  0.0411 -0.2606  0.0311
14791TIP3   OH265863   0.352   0.656   5.696 -0.1131  0.1701  0.3437
14791TIP3    H165864   0.304   0.590   5.646  2.1795 -1.7854  0.6176
14791TIP3    H265865   0.334   0.633   5.788 -0.2459  0.6426  0.4341
14792TIP3   OH265866   1.789   4.352  13.284 -0.8112 -0.3996 -0.5585
14792TIP3    H165867   1.857   4.391  13.337  1.1728 -3.0201 -1.0804
14792TIP3    H265868   1.793   4.399  13.201  0.2111 -0.3935 -0.5069
14793TIP3   OH265869   1.204   5.732  11.825  0.2341 -0.2925  0.3893
14793TIP3    H165870   1.123   5.681  11.835  0.8106 -1.4687 -0.7316
14793TIP3    H265871   1.274   5.670  11.848  0.9021  0.2760 -0.0778
14794TIP3   OH265872   0.023   4.463   1.848  0.6656  0.4924 -0.1229
14794TIP3    H165873   0.051   4.471   1.939  2.5771  0.0880 -0.6436
14794TIP3    H265874   0.060   4.380   1.819 -1.5777 -0.3237 -0.7183
14795TIP3   OH265875   6.746   2.980  14.430 -0.6405  0.3806 -0.2057
14795TIP3    H165876   6.736   2.889  14.455 -1.1856  0.3250 -0.6045
14795TIP3    H265877   6.736   2.980  14.335 -0.9520  0.8928 -0.1766
14796TIP3   OH265878   4.582   3.068  12.298  0.0808  0.1658 -0.8793
14796TIP3    H165879   4.498   3.110  12.317  1.0535  1.5070  0.6558
14796TIP3    H265880   4.648   3.133  12.325  1.6088 -1.1965 -1.2488
14797TIP3   OH265881   3.363   5.904   5.184  0.8929  0.0338 -0.3690
14797TIP3    H165882   3.357   5.874   5.093  0.9805  0.5852 -0.5551
14797TIP3    H265883   3.421   5.841   5.226 -0.9255 -1.5627 -0.1333
14798TIP3   OH265884   4.857   3.397   2.153  0.2901 -0.2133  0.6766
14798TIP3    H165885   4.932   3.428   2.103 -0.6875  0.7523 -0.2277
14798TIP3    H265886   4.825   3.321   2.104 -0.5691  0.6350 -0.1062
14799TIP3   OH265887   5.149   1.929   5.929 -0.0887 -0.2399 -0.1114
14799TIP3    H165888   5.064   1.885   5.924 -0.8508  1.4255 -3.3399
14799TIP3    H265889   5.212   1.860   5.908 -0.7436 -1.0884  0.6105
14800TIP3   OH265890   2.582   2.371  12.867 -0.3781 -0.2535 -0.5905
14800TIP3    H165891   2.552   2.407  12.783 -1.4913 -0.0776 -0.1308
14800TIP3    H265892   2.503   2.369  12.921 -0.1487 -2.5571 -0.3011
14801TIP3   OH265893   2.992   6.428   5.210 -0.4910  0.2216 -0.0430
14801TIP3    H165894   2.902   6.420   5.180 -0.4295 -0.1850 -0.1110
14801TIP3    H265895   3.045   6.388   5.141 -0.4153 -1.5761  1.0326
14802TIP3   OH265896   2.498   0.882  14.344 -0.0933 -0.8055  0.6659
14802TIP3    H165897   2.542   0.902  14.261 -0.1291  0.1150  0.8648
14802TIP3    H265898   2.484   0.968  14.385 -1.5722 -1.1373  0.8667
14803TIP3   OH265899   4.776   2.210   2.839 -0.3456  0.5666 -0.4175
14803TIP3    H165900   4.767   2.291   2.888 -0.8119 -0.4715  1.2868
14803TIP3    H265901   4.845   2.227   2.775  0.4764  1.8787  0.7898
14804TIP3   OH265902   0.018   2.492  16.447  0.2402  0.0985  0.0830
14804TIP3    H165903   0.028   2.413  16.500 -3.6351  0.1388  0.9561
14804TIP3    H265904  -0.003   2.561  16.509 -0.8270  0.8902 -1.1240
14805TIP3   OH265905   0.963   1.779   0.626 -1.1566 -0.3715 -0.2248
14805TIP3    H165906   0.986   1.714   0.693 -1.4659  0.6070  0.8481
14805TIP3    H265907   1.032   1.845   0.631 -2.0592  0.5454  0.2797
14806TIP3   OH265908   2.372   6.556   4.508  0.2913  0.5416 -0.4753
14806TIP3    H165909   2.440   6.604   4.556 -0.7204  0.4594  1.0635
14806TIP3    H265910   2.400   6.560   4.416  1.7255  1.5667 -0.0055
14807TIP3   OH265911   5.914   0.726   1.767 -0.7317  0.2618 -0.2636
14807TIP3    H165912   5.994   0.690   1.803 -0.2110  1.7732  0.1357
14807TIP3    H265913   5.849   0.716   1.836 -0.7493 -0.4467 -0.3802
14808TIP3   OH265914   0.088   3.043  12.894 -0.2814  0.5704  0.4850
14808TIP3    H165915   0.009   3.095  12.912 -1.3485 -1.9183  3.3700
14808TIP3    H265916   0.073   3.004  12.808 -1.6155  1.1520  0.4480
14809TIP3   OH265917   5.617   3.665   4.047 -0.6729 -0.9588 -0.6007
14809TIP3    H165918   5.704   3.701   4.028 -1.1685  0.4068 -0.3112
14809TIP3    H265919   5.584   3.719   4.119 -1.7410 -1.5134 -0.6725
14810TIP3   OH265920   2.403   0.019   1.477  0.1232 -0.3844 -0.1501
14810TIP3    H165921   2.365  -0.047   1.418 -0.9692 -0.8368  1.0477
14810TIP3    H265922   2.327   0.068   1.509  0.6700 -0.4748  1.2813
14811TIP3   OH265923   0.124   3.248  15.254 -0.3583 -0.0420  0.0598
14811TIP3    H165924   0.138   3.254  15.349 -1.3713 -1.6490  0.3352
14811TIP3    H265925   0.172   3.169  15.228  1.0889  1.1724 -1.0152
14812TIP3   OH265926   3.484   0.347   2.214  0.6259 -0.4966  0.2810
14812TIP3    H165927   3.555   0.313   2.268  1.2739 -0.7877 -0.7450
14812TIP3    H265928   3.504   0.316   2.126 -0.6149 -0.3266 -0.0661
14813TIP3   OH265929   5.362   3.617  12.754 -0.0814  0.2352 -0.1923
14813TIP3    H165930   5.332   3.563  12.827  1.2082 -0.1679  0.0627
14813TIP3    H265931   5.321   3.702  12.767  0.2172  0.1952  1.0618
14814TIP3   OH265932   0.369   1.953  11.078  0.1769 -0.5717 -0.4776
14814TIP3    H165933   0.287   1.913  11.108 -0.0006  1.8116  2.4988
14814TIP3    H265934   0.438   1.898  11.114 -0.1084 -0.0358  0.9340
14815TIP3   OH265935   2.726   4.279   2.445  0.7294 -0.1691 -0.4495
14815TIP3    H165936   2.708   4.303   2.355  4.3681  0.1091 -1.1797
14815TIP3    H265937   2.790   4.343   2.475 -1.3472  0.5444  2.8099
14816TIP3   OH265938   4.998   1.713  12.731  0.2983  0.1840 -0.6519
14816TIP3    H165939   4.970   1.772  12.800  2.3162 -0.1570  0.5081
14816TIP3    H265940   4.940   1.731  12.657 -0.7835  1.7372  0.5806
14817TIP3   OH265941   0.310   3.065  16.003 -0.0811  0.1287 -0.1551
14817TIP3    H165942   0.347   3.120  15.934 -0.9496 -1.6990 -2.1311
14817TIP3    H265943   0.216   3.064  15.985 -0.1671 -1.3209  0.3325
14818TIP3   OH265944   5.214   4.531  15.333 -0.1156 -0.3962  0.2043
14818TIP3    H165945   5.156   4.607  15.329  1.1972  0.5967 -0.2637
14818TIP3    H265946   5.157   4.459  15.362 -1.6945  0.4350 -0.7213
14819TIP3   OH265947   2.595   2.859  13.123 -0.1803  0.0483  0.0840
14819TIP3    H165948   2.611   2.943  13.165  0.9349 -0.6475  1.0656
14819TIP3    H265949   2.506   2.867  13.087 -0.3473  1.3928  0.7606
14820TIP3   OH265950   3.211   3.307   5.144  0.0611 -0.3186  0.0653
14820TIP3    H165951   3.240   3.313   5.235 -0.1823  2.4341  0.0048
14820TIP3    H265952   3.179   3.395   5.123  0.2567 -0.8652 -2.7278
14821TIP3   OH265953   3.794   0.233  16.155  0.5572 -0.9076  0.0051
14821TIP3    H165954   3.810   0.166  16.222 -0.1200 -3.6843 -2.5089
14821TIP3    H265955   3.879   0.245  16.112  0.2083 -1.7281 -0.9289
14822TIP3   OH265956   2.746   2.334  14.590  0.5162  0.2095  0.0482
14822TIP3    H165957   2.775   2.334  14.681  1.3856  1.2083 -0.2159
14822TIP3    H265958   2.787   2.412  14.552  0.4517 -0.3951 -1.2816
14823TIP3   OH265959   4.096   3.539  10.660 -0.0090 -0.4773 -0.2172
14823TIP3    H165960   4.085   3.535  10.755  1.6408  2.4079  0.1564
14823TIP3    H265961   4.184   3.505  10.645  0.9365  1.9407 -0.3566
14824TIP3   OH265962   3.045   6.731   3.159 -0.2659 -0.1032  0.1123
14824TIP3    H165963   2.959   6.728   3.201 -0.4821  1.8210 -0.1551
14824TIP3    H265964   3.032   6.687   3.075 -1.4263  1.5919 -0.6354
14825TIP3   OH265965   5.690   2.388   0.339 -0.1846  0.0731  0.7309
14825TIP3    H165966   5.702   2.298   0.310  0.1303  0.6660 -1.0041
14825TIP3    H265967   5.762   2.403   0.401  0.6126 -0.4135 -0.0720
14826TIP3   OH265968   2.716   2.077  12.013 -0.2412 -0.2831  0.0131
14826TIP3    H165969   2.721   2.072  12.108 -1.1837  1.8899  0.2146
14826TIP3    H265970   2.624   2.096  11.995 -0.2982 -1.8134 -1.4135
14827TIP3   OH265971   3.576   5.098  12.652  0.2200  0.3056 -0.2115
14827TIP3    H165972   3.608   5.159  12.586 -2.1703  1.3633 -0.4467
14827TIP3    H265973   3.515   5.150  12.705 -1.0233 -1.5973  0.2699
14828TIP3   OH265974   6.756   1.588   0.781  0.4581 -0.1607  0.4054
14828TIP3    H165975   6.745   1.627   0.694  0.0140 -1.6277 -0.2051
14828TIP3    H265976   6.849   1.599   0.800  0.4884  0.5145 -0.0865
14829TIP3   OH265977   5.355   0.199  16.983  0.3016  0.6360 -0.0480
14829TIP3    H165978   5.268   0.167  17.010  0.3336  1.4129  1.0345
14829TIP3    H265979   5.402   0.208  17.066  0.9174  1.6560 -0.5148
14830TIP3   OH265980   6.406   0.268  11.995 -0.0583 -1.2762 -0.1952
14830TIP3    H165981   6.478   0.293  12.053  0.5047  2.4288 -2.2817
14830TIP3    H265982   6.328   0.305  12.036 -0.2060 -1.9018  0.0898
14831TIP3   OH265983   0.743   6.701   4.868  0.2815  0.0747  0.1804
14831TIP3    H165984   0.830   6.732   4.841  0.3020 -0.4235 -0.3384
14831TIP3    H265985   0.734   6.731   4.959  0.8925  0.3456  0.1546
14832TIP3   OH265986   4.469   4.584   3.213  0.3093 -0.0235  0.3090
14832TIP3    H165987   4.467   4.539   3.297  0.8308  0.9206  0.8421
14832TIP3    H265988   4.541   4.647   3.222 -0.6403  1.1632 -0.2872
14833TIP3   OH265989   2.721   1.051  13.397 -0.6902 -0.4597  0.2232
14833TIP3    H165990   2.811   1.081  13.384 -0.0714 -1.3048  2.2550
14833TIP3    H265991   2.707   0.983  13.331  0.5562 -1.1167  0.6338
14834TIP3   OH265992   0.385   5.505  13.891 -0.5123  0.2702  0.1684
14834TIP3    H165993   0.391   5.584  13.945 -0.6929 -0.3732  1.1546
14834TIP3    H265994   0.304   5.463  13.921  0.8657 -1.5755  1.4428
14835TIP3   OH265995   3.973   6.561   0.523  0.3526 -0.2017 -0.1658
14835TIP3    H165996   4.036   6.543   0.592  0.2928 -1.6618 -0.4890
14835TIP3    H265997   4.012   6.526   0.444 -0.6166 -0.6186 -0.4687
14836TIP3   OH265998   1.397   0.953   3.987  0.4236  0.4584  0.5557
14836TIP3    H165999   1.371   0.902   4.064 -0.9201 -0.1405 -0.2866
14836TIP3    H266000   1.484   0.919   3.964 -0.1216 -0.8998  0.4810
14837TIP3   OH266001   5.992   2.249  15.840  0.0680 -0.0622  0.2394
14837TIP3    H166002   5.932   2.279  15.772  2.4601  2.2566 -0.9578
14837TIP3    H266003   5.976   2.308  15.914  0.4835  0.2366  0.0971
14838TIP3   OH266004   0.041   3.770   0.238 -0.2144  0.2688  0.0893
14838TIP3    H166005   0.125   3.730   0.212 -0.5153  0.1306 -0.6931
14838TIP3    H266006   0.037   3.851   0.187 -0.8333 -0.0244 -0.3376
14839TIP3   OH266007   1.803   2.197   5.749  0.3020  0.3110  0.2718
14839TIP3    H166008   1.806   2.102   5.757 -2.3912  0.3012  1.3913
14839TIP3    H266009   1.857   2.229   5.822 -0.2493 -0.3256  0.9599
14840TIP3   OH266010   2.348   6.407   2.335 -0.5466  0.4173  0.3468
14840TIP3    H166011   2.382   6.479   2.281  0.3765  0.6198  1.1925
14840TIP3    H266012   2.284   6.448   2.393 -0.6179  0.4102  0.2743
14841TIP3   OH266013   0.245   5.641  15.178  0.1446  0.5645 -0.3521
14841TIP3    H166014   0.164   5.666  15.221  1.7819  1.3734  2.3874
14841TIP3    H266015   0.297   5.721  15.176  1.8093 -0.4747  0.1443
14842TIP3   OH266016   4.876   3.951  13.757  0.0367 -0.7347  0.1055
14842TIP3    H166017   4.877   3.887  13.686  0.0780 -0.3852 -0.2071
14842TIP3    H266018   4.784   3.954  13.785  0.0203 -0.8718  0.0659
14843TIP3   OH266019   3.095   2.784   0.006  0.0454 -0.4903 -0.0409
14843TIP3    H166020   3.164   2.718   0.004 -1.5488 -2.2354  1.1628
14843TIP3    H266021   3.066   2.793  -0.084 -0.0345 -1.7789 -0.1453
14844TIP3   OH266022   5.392   6.703  17.115  0.1270  0.1867 -0.1242
14844TIP3    H166023   5.410   6.797  17.116  0.9997  0.0241 -0.6018
14844TIP3    H266024   5.478   6.662  17.125 -0.1262 -0.5765 -1.1019
14845TIP3   OH266025   1.259   1.178   4.436  0.0899  0.2082  0.8308
14845TIP3    H166026   1.223   1.112   4.377 -0.1608  1.2369 -0.1772
14845TIP3    H266027   1.321   1.130   4.491 -0.8170 -1.0591  0.7764
14846TIP3   OH266028   1.705   1.896  14.722  0.7326  0.5418 -0.0540
14846TIP3    H166029   1.772   1.900  14.654  0.3047  0.0943 -0.5054
14846TIP3    H266030   1.626   1.929  14.679 -0.7720 -4.2772 -1.2915
14847TIP3   OH266031   2.272   2.686   5.622 -0.6302 -0.2292 -0.7639
14847TIP3    H166032   2.233   2.683   5.709 -0.5345  0.8355 -0.6860
14847TIP3    H266033   2.231   2.761   5.579 -0.7217 -0.7782 -1.6634
14848TIP3   OH266034   1.501   1.258   4.338  0.2328 -0.2494  0.5381
14848TIP3    H166035   1.471   1.320   4.272 -0.1229 -1.5156 -0.5048
14848TIP3    H266036   1.421   1.231   4.384  0.0121 -1.8713 -0.7231
14849TIP3   OH266037   5.617   2.910   5.562  0.0285 -0.0030 -0.4988
14849TIP3    H166038   5.700   2.930   5.519 -0.0751 -0.3668 -0.8724
14849TIP3    H266039   5.643   2.868   5.644  0.3521  4.7139  1.9885
14850TIP3   OH266040   0.582   0.761   6.952  0.0416 -0.2847  0.1590
14850TIP3    H166041   0.632   0.745   7.032 -0.6640 -0.1119  0.6424
14850TIP3    H266042   0.491   0.747   6.978 -0.2322  0.2981 -0.4846
14851TIP3   OH266043   1.517   3.930   1.348 -0.6087  0.1296  0.4815
14851TIP3    H166044   1.572   3.988   1.402 -0.4196  0.3290  0.0781
14851TIP3    H266045   1.431   3.970   1.350 -1.2537 -1.2635  2.7720
14852TIP3   OH266046   1.369   3.048  12.138  0.1726 -0.1932  0.4790
14852TIP3    H166047   1.318   2.985  12.086 -0.4874  0.3885  0.4130
14852TIP3    H266048   1.314   3.126  12.142  1.9463  1.2162 -1.4016
14853TIP3   OH266049   3.812   3.714   5.972 -0.0097 -0.0391  0.0525
14853TIP3    H166050   3.802   3.649   6.041 -1.7411 -0.3539 -0.4706
14853TIP3    H266051   3.725   3.720   5.932  0.0727  2.6262  0.1328
14854TIP3   OH266052   2.095   4.447   2.709  0.5930 -0.5004  0.3610
14854TIP3    H166053   2.074   4.476   2.798  1.5724 -0.7599  0.6777
14854TIP3    H266054   2.178   4.401   2.718  0.3114 -1.2012 -0.5638
14855TIP3   OH266055   5.075   4.540   3.289 -0.3243  0.0898 -0.1045
14855TIP3    H166056   5.033   4.564   3.207  0.0252  0.4712 -0.1735
14855TIP3    H266057   5.161   4.507   3.263  0.4531  1.8006  0.2221
14856TIP3   OH266058   2.024   4.695   4.147 -0.2211  0.2088 -0.3276
14856TIP3    H166059   2.022   4.707   4.242  2.5484  0.4545 -0.2795
14856TIP3    H266060   1.991   4.778   4.111 -0.8395  0.2776  0.3826
14857TIP3   OH266061   1.516   3.973   4.650 -0.3964  0.1791 -0.4493
14857TIP3    H166062   1.554   3.919   4.582  1.2676  1.3957 -0.5300
14857TIP3    H266063   1.590   4.022   4.686 -1.5814  1.1393  0.7594
14858TIP3   OH266064   3.480   1.353  13.743  0.4132  0.6529 -0.3598
14858TIP3    H166065   3.394   1.337  13.782  0.1588  0.3506 -1.0383
14858TIP3    H266066   3.526   1.269  13.752  0.1825  0.4422 -1.1423
14859TIP3   OH266067   0.169   4.318  11.642  0.1275  0.1598  0.7179
14859TIP3    H166068   0.098   4.261  11.672  0.7296 -0.0111  1.8361
14859TIP3    H266069   0.165   4.394  11.700  1.3944 -0.2369  1.3496
14860TIP3   OH266070   1.731   3.952   0.354  0.2452  0.1558 -0.2380
14860TIP3    H166071   1.806   3.969   0.296  0.9985 -1.9017  0.0916
14860TIP3    H266072   1.764   3.969   0.442  1.1717 -3.2867  0.1479
14861TIP3   OH266073   0.827   4.892   2.706  0.0416  0.1357  0.5415
14861TIP3    H166074   0.833   4.797   2.716 -0.9938 -0.0651 -0.5716
14861TIP3    H266075   0.873   4.910   2.624 -2.4280  0.1990 -0.8742
14862TIP3   OH266076   5.481   2.505  16.722 -0.8380 -0.0309  0.1541
14862TIP3    H166077   5.415   2.520  16.789 -0.7288  3.6391 -0.4820
14862TIP3    H266078   5.557   2.472  16.770 -1.8631 -0.6899  1.3567
14863TIP3   OH266079   4.170   4.530   2.328 -0.4196  0.3249  0.0014
14863TIP3    H166080   4.219   4.508   2.407  0.9855  2.2911 -0.2952
14863TIP3    H266081   4.178   4.453   2.272 -1.2220 -0.9912  1.6585
14864TIP3   OH266082   2.888   5.868   3.803 -0.2907  0.0700 -0.4278
14864TIP3    H166083   2.954   5.801   3.787 -0.5038 -0.0306 -0.8959
14864TIP3    H266084   2.933   5.951   3.788 -0.2601  0.0026 -0.7085
14865TIP3   OH266085   4.299   1.057   5.918 -0.5461 -0.1994 -0.2073
14865TIP3    H166086   4.212   1.064   5.878 -0.0031 -1.9768 -1.7574
14865TIP3    H266087   4.297   0.973   5.963  0.2629 -0.0643  0.0747
14866TIP3   OH266088   4.802   5.346   1.453 -0.0807 -0.0979 -0.7939
14866TIP3    H166089   4.765   5.336   1.541  1.0582 -2.6120 -0.5453
14866TIP3    H266090   4.764   5.274   1.403 -0.0358  0.7943 -2.1265
14867TIP3   OH266091   6.494   0.317   2.707 -0.5698  0.1542 -0.2071
14867TIP3    H166092   6.569   0.259   2.706 -1.5988 -1.2189  0.7841
14867TIP3    H266093   6.469   0.326   2.615  0.0060 -0.4319 -0.4189
14868TIP3   OH266094   2.924   6.621  11.930 -0.1242  0.1872 -0.2125
14868TIP3    H166095   2.900   6.691  11.991  0.4154  0.0704  0.1318
14868TIP3    H266096   2.846   6.611  11.875 -0.9426 -0.2802  0.9855
14869TIP3   OH266097   6.212   4.303  12.520 -0.2816 -0.0774  0.0743
14869TIP3    H166098   6.241   4.383  12.563  0.6853 -1.1358  1.3950
14869TIP3    H266099   6.132   4.329  12.474 -1.1402  1.1449  2.2036
14870TIP3   OH266100   4.592   5.119  16.108 -0.0728  0.1978  0.0714
14870TIP3    H166101   4.681   5.152  16.094  0.5750 -0.9176  1.4141
14870TIP3    H266102   4.594   5.084  16.197 -1.4676 -1.0810 -0.3888
14871TIP3   OH266103   0.430   4.969   3.456 -0.6732  0.1402  0.1096
14871TIP3    H166104   0.508   4.922   3.427 -0.2111  0.7120  0.4160
14871TIP3    H266105   0.365   4.900   3.471  0.1568 -0.4526  1.0635
14872TIP3   OH266106   5.998   2.024  12.712  0.3997  0.2658 -0.4994
14872TIP3    H166107   6.086   2.061  12.722 -0.1580  1.8775 -1.4260
14872TIP3    H266108   5.981   2.027  12.618  0.0676 -1.7786 -0.5443
14873TIP3   OH266109   5.301   1.156   2.155 -0.6109 -0.0681 -0.0408
14873TIP3    H166110   5.358   1.177   2.081 -1.8058  0.2510 -0.8864
14873TIP3    H266111   5.325   1.218   2.223 -0.8592  0.9320 -0.8628
14874TIP3   OH266112   2.675   6.129  14.779 -0.4621 -0.3137  0.8472
14874TIP3    H166113   2.583   6.155  14.789 -0.0489  1.4127  0.3881
14874TIP3    H266114   2.724   6.197  14.827  0.5793 -1.1714  1.0053
14875TIP3   OH266115   4.778   1.291  16.115 -0.4418 -0.3468  0.1063
14875TIP3    H166116   4.745   1.369  16.158 -0.6681  0.9341 -2.2872
14875TIP3    H266117   4.729   1.286  16.033  1.7116 -1.2931 -1.1746
14876TIP3   OH266118   3.220   2.110  13.622 -0.3886  0.5045  0.0916
14876TIP3    H166119   3.260   2.146  13.702  0.4931  0.7543 -0.4480
14876TIP3    H266120   3.127   2.131  13.630 -0.7104 -1.5288  2.1457
14877TIP3   OH266121   3.788   0.062   1.190 -0.7773 -0.1705  0.3975
14877TIP3    H166122   3.863   0.093   1.240 -0.7050 -1.1968  0.9531
14877TIP3    H266123   3.765  -0.022   1.231  0.2766 -1.8335 -2.2937
14878TIP3   OH266124   4.946   4.971  12.792  0.0106 -0.0573 -0.0794
14878TIP3    H166125   4.922   5.037  12.727 -0.0542 -1.7430 -1.7914
14878TIP3    H266126   4.863   4.934  12.821  0.1394 -0.5990 -0.4004
14879TIP3   OH266127   4.010   1.680   0.886 -0.1337 -0.1599  0.5977
14879TIP3    H166128   4.024   1.766   0.925  0.7286 -0.4980  1.0438
14879TIP3    H266129   3.933   1.691   0.830  1.0088  1.3556 -0.7367
14880TIP3   OH266130   5.238   5.871  14.404  0.4088 -0.2029  0.2895
14880TIP3    H166131   5.198   5.941  14.456  2.3352 -1.1864  3.1736
14880TIP3    H266132   5.187   5.793  14.424  0.6106 -0.4007  0.0405
14881TIP3   OH266133   5.175   4.389   1.743 -0.0291  0.2333 -0.1206
14881TIP3    H166134   5.225   4.409   1.664  0.0004 -0.7793 -0.3716
14881TIP3    H266135   5.150   4.297   1.733  0.5478 -0.0980  1.3616
14882TIP3   OH266136   5.926   2.814   3.563  0.1040 -0.3018 -0.1387
14882TIP3    H166137   5.861   2.884   3.570  0.0797 -0.5074  2.0869
14882TIP3    H266138   5.928   2.793   3.470 -0.2885  2.2707 -0.7694
14883TIP3   OH266139   0.072   1.175  16.796  0.2063 -0.0005 -0.3380
14883TIP3    H166140   0.001   1.172  16.860 -0.4884  0.2958 -1.0856
14883TIP3    H266141   0.106   1.086  16.793  0.5359  0.0821  0.7658
14884TIP3   OH266142   0.643   5.100  17.183 -0.4420 -0.9548  0.4994
14884TIP3    H166143   0.729   5.137  17.202 -0.2336  0.0300 -2.1215
14884TIP3    H266144   0.588   5.177  17.165 -1.0847 -1.7084 -0.7948
14885TIP3   OH266145   5.785   0.311  14.217  0.3241 -0.1885 -0.1060
14885TIP3    H166146   5.731   0.257  14.160 -0.2792  0.0477  0.2344
14885TIP3    H266147   5.789   0.262  14.299 -0.2989  0.3168  0.2330
14886TIP3   OH266148   2.619   4.296   4.275  0.1879 -0.0448  0.4373
14886TIP3    H166149   2.705   4.298   4.317 -0.3439  0.3671  1.5365
14886TIP3    H266150   2.636   4.266   4.186  1.4238 -0.3163  0.7562
14887TIP3   OH266151   0.125   4.575  11.765 -0.2736 -0.4820  1.0619
14887TIP3    H166152   0.168   4.608  11.686 -1.9647  0.5939  0.5732
14887TIP3    H266153   0.170   4.620  11.837 -2.1655  2.4874  0.4251
14888TIP3   OH266154   0.157   0.476   1.643  0.7292  0.0475  0.3217
14888TIP3    H166155   0.193   0.563   1.657  1.7658 -0.3591  0.2500
14888TIP3    H266156   0.096   0.486   1.570  2.2930  0.3348 -0.9570
14889TIP3   OH266157   3.183   3.591  13.318 -0.2179 -0.0752  0.2468
14889TIP3    H166158   3.089   3.584  13.301 -0.0642 -1.9577  0.0042
14889TIP3    H266159   3.192   3.570  13.412 -0.2192  1.9900  0.7261
14890TIP3   OH266160   4.233   3.727  13.159  0.5562  0.1441 -0.1116
14890TIP3    H166161   4.320   3.744  13.125  1.1713  0.4257  1.5462
14890TIP3    H266162   4.248   3.677  13.239 -0.7429  0.8812  0.6158
14891TIP3   OH266163   2.201   2.519   1.810 -0.0210 -0.2367 -0.2451
14891TIP3    H166164   2.263   2.477   1.869 -3.1953 -2.9641  1.3378
14891TIP3    H266165   2.155   2.583   1.864 -0.4862 -0.2283 -0.6447
14892TIP3   OH266166   1.520   3.116  16.569  0.7114 -0.1997  1.0442
14892TIP3    H166167   1.532   3.196  16.622  2.3226 -0.2239  0.7314
14892TIP3    H266168   1.501   3.148  16.481  0.3558 -0.1732  1.1277
14893TIP3   OH266169   3.688   4.970  14.168 -0.2046  0.3813  0.1156
14893TIP3    H166170   3.630   4.905  14.129 -4.2939  3.0185  1.3897
14893TIP3    H266171   3.740   5.003  14.094 -1.6152 -0.8371 -1.4736
14894TIP3   OH266172   2.964   5.131  11.869 -0.2620 -0.1861  0.0472
14894TIP3    H166173   2.954   5.152  11.776 -1.4285 -1.2921 -0.1072
14894TIP3    H266174   2.955   5.215  11.914  1.6629  0.5510 -0.9149
14895TIP3   OH266175   3.419   4.052  14.797  0.5255  0.1098 -0.1453
14895TIP3    H166176   3.341   3.999  14.815  0.2045  0.3413 -0.8307
14895TIP3    H266177   3.459   4.065  14.883 -0.4961  0.4505  0.2953
14896TIP3   OH266178   2.212   0.317  17.201  0.3117 -0.2789 -0.3819
14896TIP3    H166179   2.244   0.407  17.195 -0.5430  0.0265 -0.5079
14896TIP3    H266180   2.276   0.265  17.154 -0.0014  0.4676 -1.6447
14897TIP3   OH266181   3.057   5.630  13.404 -0.0040 -0.5986 -0.4036
14897TIP3    H166182   3.007   5.675  13.471 -1.0035 -2.4348  0.1007
14897TIP3    H266183   3.148   5.637  13.433 -0.3673 -0.8175  0.8041
14898TIP3   OH266184   0.903   4.653   6.644  0.6395  0.2208 -0.1408
14898TIP3    H166185   0.895   4.748   6.659  2.0518  0.0860  1.7619
14898TIP3    H266186   0.836   4.614   6.700 -0.1171  0.1087 -1.1271
14899TIP3   OH266187   3.294   3.980   4.271  0.1272  0.3643 -0.1194
14899TIP3    H166188   3.386   3.958   4.287  0.3246 -1.4551 -3.3664
14899TIP3    H266189   3.290   4.076   4.281  2.0524  0.3271  1.3311
14900TIP3   OH266190   0.439   1.229  16.419  0.0088 -0.5491 -0.2319
14900TIP3    H166191   0.364   1.269  16.374 -0.1188 -0.0781  0.4066
14900TIP3    H266192   0.422   1.135  16.411 -0.6685 -0.4459 -0.0665
14901TIP3   OH266193   3.369   2.586   2.531  0.3477 -0.1343 -0.2256
14901TIP3    H166194   3.380   2.649   2.460  1.2672 -1.0969 -0.9436
14901TIP3    H266195   3.426   2.618   2.601 -0.3959  0.6973  0.0057
14902TIP3   OH266196   0.287   6.671  14.943  0.7856 -0.5389  0.0862
14902TIP3    H166197   0.268   6.586  14.902  1.0372 -0.2225 -0.6964
14902TIP3    H266198   0.356   6.652  15.006 -0.2865 -1.2161  1.0859
14903TIP3   OH266199   1.101   0.123  17.150  0.1157  0.6019  0.1369
14903TIP3    H166200   1.053   0.085  17.223 -0.8770  0.1260 -0.7479
14903TIP3    H266201   1.097   0.057  17.081  0.0376  1.5144 -0.7476
14904TIP3   OH266202   4.660   6.605  12.093  0.2809  0.5394 -0.0359
14904TIP3    H166203   4.672   6.577  12.184  0.1969  0.1463 -0.1488
14904TIP3    H266204   4.652   6.700  12.099  0.9928  0.5832  0.2980
14905TIP3   OH266205   1.404   3.227   4.969  0.3804 -0.1672  0.0003
14905TIP3    H166206   1.493   3.213   4.936  0.7528  1.8555  0.0771
14905TIP3    H266207   1.353   3.250   4.891 -0.6446 -3.5149 -0.4273
14906TIP3   OH266208   1.441   0.467   2.797 -0.2762 -0.2926  0.0806
14906TIP3    H166209   1.463   0.560   2.798  0.2654 -0.4048 -0.9552
14906TIP3    H266210   1.401   0.453   2.711 -2.7811 -0.4660  1.2274
14907TIP3   OH266211   2.232   1.203  15.623 -0.7543 -0.7404  0.7083
14907TIP3    H166212   2.250   1.297  15.620 -0.4688 -0.8044 -3.3019
14907TIP3    H266213   2.211   1.185  15.714  1.3240  2.7981  1.9819
14908TIP3   OH266214   5.369   1.855   5.483 -0.4358  0.2750  0.5080
14908TIP3    H166215   5.464   1.866   5.479 -0.3322 -1.1819 -1.4178
14908TIP3    H266216   5.336   1.942   5.504  1.4140  0.4555  2.8473
14909TIP3   OH266217   1.734   1.355  14.100 -0.0741 -0.5705 -0.2886
14909TIP3    H166218   1.795   1.369  14.027  0.0187  2.3668  0.2959
14909TIP3    H266219   1.684   1.436  14.105  0.7416 -0.2043  3.6565
14910TIP3   OH266220   2.818   5.420  13.100  0.3344 -0.5772 -0.4769
14910TIP3    H166221   2.805   5.415  13.195 -1.5420  1.0639 -0.5976
14910TIP3    H266222   2.904   5.461  13.090 -0.2341  0.9265  0.5560
14911TIP3   OH266223   6.215   5.750   5.165 -0.2587  0.0333 -0.4716
14911TIP3    H166224   6.210   5.735   5.071 -1.8918  1.4217 -0.6241
14911TIP3    H266225   6.288   5.811   5.176  1.3562 -1.8264 -0.5933
14912TIP3   OH266226   5.757   1.747   0.777  0.4004 -0.0948 -0.0136
14912TIP3    H166227   5.712   1.819   0.734  0.0731 -0.5768 -0.4934
14912TIP3    H266228   5.689   1.703   0.828  0.7059  0.2408  0.6876
14913TIP3   OH266229   2.154   6.404   6.561 -0.4198 -0.1630 -0.3778
14913TIP3    H166230   2.089   6.453   6.612  1.2218  2.2600 -0.4791
14913TIP3    H266231   2.146   6.440   6.472  1.8828  1.0957 -0.1083
14914TIP3   OH266232   3.320   5.215  15.496 -0.3412  0.3743  0.2068
14914TIP3    H166233   3.264   5.157  15.549 -0.4600 -0.9404 -1.3084
14914TIP3    H266234   3.258   5.267  15.445 -0.2166  0.0004 -0.3350
14915TIP3   OH266235   4.106   6.478  12.367 -0.8818  0.3868 -0.1895
14915TIP3    H166236   4.162   6.442  12.299  0.0622 -1.0127  1.3025
14915TIP3    H266237   4.162   6.538  12.416 -0.8107 -0.6064  0.9681
14916TIP3   OH266238   0.859   5.301  12.616  0.6107  0.3452 -0.1425
14916TIP3    H166239   0.795   5.353  12.665  1.0578 -0.3786  1.2296
14916TIP3    H266240   0.943   5.338  12.640  0.7379  1.1466 -1.7739
14917TIP3   OH266241   6.440   6.745   1.464 -0.6334 -0.3788  0.0470
14917TIP3    H166242   6.478   6.808   1.403 -0.8903  0.2781  0.5490
14917TIP3    H266243   6.361   6.713   1.419  0.0935 -1.1778 -0.6722
14918TIP3   OH266244   6.688   5.824  15.688  0.2921  0.1491 -0.4390
14918TIP3    H166245   6.760   5.784  15.639  0.9812 -0.0502  0.7247
14918TIP3    H266246   6.642   5.878  15.623  1.0909 -0.2488 -1.3446
14919TIP3   OH266247   1.031   1.430  16.070  0.1695  0.3966 -0.5759
14919TIP3    H166248   0.936   1.416  16.077  0.2842  0.3314  1.1464
14919TIP3    H266249   1.065   1.348  16.035 -0.3766  0.3032 -0.8912
14920TIP3   OH266250   3.547   2.652   6.556 -0.3692  1.0839 -0.2852
14920TIP3    H166251   3.597   2.678   6.634  1.0766 -0.1716 -0.7573
14920TIP3    H266252   3.500   2.573   6.583  0.5200  0.3655 -0.8247
14921TIP3   OH266253   0.787   6.680  13.873  0.5157  0.2500 -0.6194
14921TIP3    H166254   0.831   6.707  13.792  0.8186 -0.4116 -0.6745
14921TIP3    H266255   0.814   6.589  13.886  1.2020  0.6423  0.7327
14922TIP3   OH266256   1.302   5.320   4.496  0.4244 -0.3342  0.6583
14922TIP3    H166257   1.371   5.275   4.545  0.7905 -1.7704 -1.1196
14922TIP3    H266258   1.308   5.284   4.407 -1.5357  0.7389  0.0581
14923TIP3   OH266259   4.407   1.978   2.555  0.5952 -0.2332 -0.5979
14923TIP3    H166260   4.342   2.011   2.617  1.7032 -1.0483  1.0490
14923TIP3    H266261   4.491   2.005   2.593  1.3045 -1.0653 -1.5622
14924TIP3   OH266262   4.480   2.667  12.822 -0.0274  0.2343  0.3609
14924TIP3    H166263   4.470   2.575  12.843 -0.3171 -0.6948 -3.4629
14924TIP3    H266264   4.393   2.705  12.838 -0.1808 -0.3459  0.9255
14925TIP3   OH266265   0.074   4.044  15.211  0.1090  0.0532 -0.0012
14925TIP3    H166266   0.003   4.017  15.268  0.2701  0.6691  0.5053
14925TIP3    H266267   0.052   4.008  15.125 -0.9493  0.4786  0.0866
14926TIP3   OH266268   1.189   6.557  11.792 -0.2765 -0.1562 -0.2077
14926TIP3    H166269   1.157   6.470  11.770 -1.1462  0.4274 -1.3055
14926TIP3    H266270   1.111   6.612  11.797  0.0907  0.1458  2.5123
14927TIP3   OH266271   1.036   3.335   2.303  0.0013 -0.0887  0.1299
14927TIP3    H166272   0.976   3.404   2.273 -1.1982 -1.3429 -0.3917
14927TIP3    H266273   0.979   3.263   2.330  1.2381 -0.8276  0.8095
14928TIP3   OH266274   3.587   2.094   0.979  0.8440 -0.1188 -0.4050
14928TIP3    H166275   3.571   2.107   1.072  0.3327  3.5146 -0.9442
14928TIP3    H266276   3.501   2.077   0.942  0.8235  0.1695 -0.4860
14929TIP3   OH266277   5.134   3.844   2.115  0.1342 -0.0887 -0.3278
14929TIP3    H166278   5.116   3.933   2.144  1.7220  0.2674 -0.3907
14929TIP3    H266279   5.230   3.838   2.113  0.0460 -1.7304 -0.5086
14930TIP3   OH266280   5.796   5.786   0.152 -0.1276 -0.3444 -0.0027
14930TIP3    H166281   5.814   5.694   0.175 -0.5447 -1.2878 -3.2088
14930TIP3    H266282   5.869   5.835   0.191 -0.1388 -1.9513  2.1437
14931TIP3   OH266283   2.734   3.249  12.664  0.0482 -0.5446 -0.0414
14931TIP3    H166284   2.793   3.184  12.626 -0.6956 -0.4576 -1.3637
14931TIP3    H266285   2.729   3.224  12.757  2.3397 -0.3865  0.1494
14932TIP3   OH266286   4.075   4.325  12.713 -0.1163 -0.3630  0.2633
14932TIP3    H166287   4.063   4.416  12.687 -0.1173  0.1170  1.8972
14932TIP3    H266288   3.988   4.286  12.706  0.0522 -0.4882 -1.3126
14933TIP3   OH266289   4.964   2.835   5.752 -0.1447 -0.3965  0.4769
14933TIP3    H166290   4.967   2.871   5.664 -2.6933  1.0122  0.9062
14933TIP3    H266291   5.048   2.858   5.791  0.6147 -0.1801 -1.2622
14934TIP3   OH266292   4.009   1.588   6.002 -0.2692 -0.6210 -0.3139
14934TIP3    H166293   3.927   1.585   6.051  0.7590 -1.5269  1.3818
14934TIP3    H266294   3.982   1.579   5.910 -2.1046 -0.3179  0.1806
14935TIP3   OH266295   3.832   2.179  14.074 -0.0310 -0.6900  0.5654
14935TIP3    H166296   3.918   2.205  14.040 -0.7862 -0.1924 -1.0105
14935TIP3    H266297   3.770   2.230  14.023 -1.3353 -2.2112  0.6075
14936TIP3   OH266298   5.703   4.662   1.700 -0.4172 -0.3788 -0.2850
14936TIP3    H166299   5.692   4.648   1.606 -0.1004  0.5359 -0.4686
14936TIP3    H266300   5.795   4.642   1.717  0.2581  2.1209 -0.7019
14937TIP3   OH266301   6.019   2.871  15.412 -0.3421  0.2176 -0.2172
14937TIP3    H166302   6.029   2.852  15.319  0.6996 -1.4308  0.2021
14937TIP3    H266303   6.083   2.813  15.455 -0.0008  1.7738  1.4369
14938TIP3   OH266304   5.725   1.270   3.104 -0.0724  0.2223 -0.4596
14938TIP3    H166305   5.633   1.285   3.126  0.6238  3.1638  0.5844
14938TIP3    H266306   5.724   1.252   3.010 -1.3977  3.7722 -1.2045
14939TIP3   OH266307   3.877   6.255   3.857 -0.0811 -0.1323  0.3047
14939TIP3    H166308   3.887   6.183   3.919  0.9091 -0.1719  0.0951
14939TIP3    H266309   3.782   6.263   3.845 -0.2021 -1.1796  0.5793
14940TIP3   OH266310   3.944   2.821   3.541 -0.1633 -0.5109 -0.8840
14940TIP3    H166311   3.893   2.901   3.525 -0.0275 -0.4442 -0.9835
14940TIP3    H266312   3.941   2.809   3.636 -2.1838 -1.6953 -1.0595
14941TIP3   OH266313   2.644   3.056  11.825  0.1255 -0.0544 -0.0466
14941TIP3    H166314   2.722   3.018  11.785  0.8996 -0.2823  1.6577
14941TIP3    H266315   2.595   3.091  11.751 -0.5109 -4.1068 -1.6809
14942TIP3   OH266316   3.170   2.253  15.667 -0.0988 -0.0042  0.5210
14942TIP3    H166317   3.138   2.166  15.690 -0.5617  0.5057  1.8749
14942TIP3    H266318   3.239   2.270  15.731  1.1828 -0.0672 -0.8083
14943TIP3   OH266319   3.449   6.021  14.351  0.3786 -0.3088  0.4109
14943TIP3    H166320   3.489   6.098  14.312 -1.6555 -0.8148 -2.9032
14943TIP3    H266321   3.366   6.053  14.387 -0.1728 -0.7582 -0.4125
14944TIP3   OH266322   3.270   6.189   1.805 -0.4220 -0.5401 -0.3340
14944TIP3    H166323   3.199   6.219   1.747 -1.0415 -3.0848 -0.9640
14944TIP3    H266324   3.244   6.219   1.892 -1.4687 -0.0341 -0.8118
14945TIP3   OH266325   4.852   3.583  10.892  0.3078  0.4166  0.4532
14945TIP3    H166326   4.923   3.593  10.828 -0.7417 -1.0249 -0.9588
14945TIP3    H266327   4.878   3.506  10.944 -0.4998 -0.5103 -0.4823
14946TIP3   OH266328   5.318   4.134   1.343 -0.2837 -0.3328 -0.4134
14946TIP3    H166329   5.273   4.097   1.267  1.7823 -0.5976 -1.5390
14946TIP3    H266330   5.407   4.101   1.337  0.2617  0.7167  1.4125
14947TIP3   OH266331   0.140   6.327  13.846  0.2891  0.2903 -0.5499
14947TIP3    H166332   0.146   6.283  13.761  2.7821 -0.5292  0.0058
14947TIP3    H266333   0.223   6.374  13.854  0.9471 -1.2640  2.2933
14948TIP3   OH266334   5.348   1.195  14.739 -0.1816 -0.2338 -0.3906
14948TIP3    H166335   5.303   1.146  14.808 -0.5737  0.3306 -0.2431
14948TIP3    H266336   5.294   1.181  14.661  1.0340 -2.0541 -0.9367
14949TIP3   OH266337   3.545   4.645   3.525  0.1780  0.1573  0.4445
14949TIP3    H166338   3.611   4.607   3.467 -0.5296  1.7557 -1.4828
14949TIP3    H266339   3.584   4.728   3.554 -0.6514  0.7285 -0.0669
14950TIP3   OH266340   3.657   4.926   2.111 -0.7095 -0.3170 -0.1300
14950TIP3    H166341   3.682   4.837   2.137 -0.1229  0.0320  0.5472
14950TIP3    H266342   3.703   4.941   2.029 -0.2465 -0.3937  0.1128
14951TIP3   OH266343   2.878   5.225  10.663 -0.3445 -0.1000  1.0189
14951TIP3    H166344   2.929   5.297  10.625 -2.6894  1.2920  0.4321
14951TIP3    H266345   2.897   5.150  10.606 -0.8491  1.0111 -0.6370
14952TIP3   OH266346   0.793   3.261  14.695 -0.0119 -0.7060 -0.0196
14952TIP3    H166347   0.847   3.332  14.730  3.3185 -2.3984 -1.5313
14952TIP3    H266348   0.785   3.199  14.769 -0.8119  0.0469  0.5320
14953TIP3   OH266349   1.599   5.612   5.869 -0.1021 -0.0964 -0.1365
14953TIP3    H166350   1.599   5.634   5.962  1.1126  1.6495 -0.5336
14953TIP3    H266351   1.510   5.633   5.839 -0.2897 -0.0240  0.4658
14954TIP3   OH266352   3.101   4.108   1.715  0.2411  0.4649 -1.1064
14954TIP3    H166353   3.196   4.107   1.701  0.7298  1.3012  1.9375
14954TIP3    H266354   3.080   4.200   1.732 -1.0767  0.2288 -1.4043
14955TIP3   OH266355   1.908   5.549   1.117  0.2732 -0.4381  0.1564
14955TIP3    H166356   1.815   5.556   1.137  0.3348  0.3565  0.1558
14955TIP3    H266357   1.948   5.515   1.197 -0.0933 -1.2853 -0.0183
14956TIP3   OH266358   4.875   2.571   2.308  0.1913  0.1048 -0.6738
14956TIP3    H166359   4.879   2.487   2.261  0.4552  0.9302 -2.1592
14956TIP3    H266360   4.954   2.618   2.280  1.4483 -0.1974  2.2207
14957TIP3   OH266361   6.634   6.036  16.021 -0.5270 -0.1245  0.0476
14957TIP3    H166362   6.715   6.000  15.985 -0.0958  0.2982  0.5735
14957TIP3    H266363   6.626   6.123  15.981  0.1836  0.5220  1.2775
14958TIP3   OH266364   0.161   0.334   4.427 -0.6595 -0.4010  0.4406
14958TIP3    H166365   0.186   0.414   4.381 -1.7017 -0.7793 -0.8295
14958TIP3    H266366   0.233   0.317   4.488 -0.1538  1.1652  0.2942
14959TIP3   OH266367   6.220   2.964  15.638 -0.1425  0.6341  0.1340
14959TIP3    H166368   6.267   3.045  15.660  0.1880  0.9117 -1.5679
14959TIP3    H266369   6.128   2.983  15.655 -0.0166  1.2122  0.1573
14960TIP3   OH266370   4.928   2.278   5.860  0.0604 -0.7019  0.2438
14960TIP3    H166371   4.964   2.332   5.790 -1.1420 -0.6358 -0.3411
14960TIP3    H266372   4.998   2.274   5.925  0.1800  1.5257  0.2920
14961TIP3   OH266373   0.236   0.782  14.085 -0.3699  0.0777  0.2468
14961TIP3    H166374   0.142   0.784  14.067  0.0129  1.7093 -1.6399
14961TIP3    H266375   0.265   0.873  14.075  1.3397 -0.3301  1.2418
14962TIP3   OH266376   0.668   2.953   2.486 -0.0340 -0.0016  0.0843
14962TIP3    H166377   0.639   2.934   2.397  0.9165 -0.4512 -0.1264
14962TIP3    H266378   0.666   2.868   2.531  0.9620 -0.0403  0.0676
14963TIP3   OH266379   0.008   0.929   3.939  0.7021 -0.0893  0.1839
14963TIP3    H166380  -0.029   1.017   3.936  0.9951 -0.0014 -1.4280
14963TIP3    H266381  -0.068   0.870   3.937  0.5103  0.1079  1.2072
14964TIP3   OH266382   2.913   2.479  17.094  0.1531 -0.3335 -0.0885
14964TIP3    H166383   2.874   2.392  17.092 -0.5469 -0.0495  0.6127
14964TIP3    H266384   2.881   2.518  17.176  1.6051  0.0606  0.3164
14965TIP3   OH266385   4.931   3.938  11.096  0.2097  0.1782  0.4703
14965TIP3    H166386   4.857   3.921  11.154 -0.2188 -2.6389 -0.8368
14965TIP3    H266387   4.903   4.012  11.041 -0.4388  1.0588  1.9529
14966TIP3   OH266388   2.867   4.990  11.478 -0.4047 -0.2606  0.6196
14966TIP3    H166389   2.787   4.939  11.464 -1.7021  2.2620 -1.5833
14966TIP3    H266390   2.921   4.970  11.401  0.0662 -0.0958  0.9109
14967TIP3   OH266391   6.518   4.401   0.132 -0.1953  0.1145  0.3316
14967TIP3    H166392   6.439   4.434   0.173 -0.3163 -0.7631  0.8353
14967TIP3    H266393   6.537   4.320   0.180 -0.2171 -0.8145 -1.2084
14968TIP3   OH266394   2.474   1.150  14.610  0.0729  0.2845  0.0506
14968TIP3    H166395   2.534   1.225  14.607  0.7166 -0.2534 -0.6035
14968TIP3    H266396   2.409   1.169  14.542  1.0888 -0.4535 -1.1558
14969TIP3   OH266397   3.102   6.732  12.991  0.1162  0.0096 -0.1829
14969TIP3    H166398   3.079   6.677  12.917  2.2203 -1.0708 -0.0692
14969TIP3    H266399   3.137   6.672  13.056  1.6635  1.3565  0.2666
14970TIP3   OH266400   1.838   3.118   3.138  0.1252  0.2319  0.6450
14970TIP3    H166401   1.838   3.161   3.223 -2.2126 -0.0530  0.8391
14970TIP3    H266402   1.834   3.190   3.075 -0.4577  0.4017  0.8663
14971TIP3   OH266403   2.697   5.914  15.052 -0.0086 -0.0496 -0.0989
14971TIP3    H166404   2.639   5.960  15.113  0.0804 -0.8330  0.5772
14971TIP3    H266405   2.769   5.975  15.036  0.1809 -0.0106  0.9039
14972TIP3   OH266406   0.180   3.017   5.659 -0.5929 -0.0107  0.6567
14972TIP3    H166407   0.140   2.944   5.705 -2.5866  0.0793 -0.8560
14972TIP3    H266408   0.138   3.095   5.696  0.3136  0.2760  1.0963
14973TIP3   OH266409   3.090   3.920   4.705  0.3153  0.3059  0.2306
14973TIP3    H166410   3.080   3.924   4.610 -0.1074  0.0352  0.2595
14973TIP3    H266411   3.082   3.827   4.726  1.2512  0.2687  0.4461
14974TIP3   OH266412   0.875   4.493   5.688  0.0470 -0.2449  1.0401
14974TIP3    H166413   0.845   4.445   5.765 -0.2781  0.2320  1.2143
14974TIP3    H266414   0.842   4.443   5.614 -2.8634  1.2779  1.2130
14975TIP3   OH266415   1.607   6.300   0.943  0.0526  0.4694 -0.0733
14975TIP3    H166416   1.698   6.303   0.973 -0.2302  0.1522  0.8544
14975TIP3    H266417   1.606   6.355   0.865  1.1478  0.0578 -0.3932
14976TIP3   OH266418   1.950   2.841  11.408  0.3368 -0.1733 -0.2349
14976TIP3    H166419   1.876   2.781  11.404  0.2522  0.0346 -1.8602
14976TIP3    H266420   1.912   2.928  11.393  0.8817 -0.0523 -0.9605
14977TIP3   OH266421   2.061   6.048   3.767 -0.0115  0.0605 -0.0576
14977TIP3    H166422   1.975   6.006   3.772  2.0943 -4.1816  3.5413
14977TIP3    H266423   2.122   5.975   3.752  3.1115  2.8091 -1.2169
14978TIP3   OH266424   3.846   4.039  13.364 -0.6080  0.1192 -0.7409
14978TIP3    H166425   3.812   4.128  13.350 -0.9162  0.0432 -0.4998
14978TIP3    H266426   3.794   4.006  13.438  0.1705  0.0879 -0.2092
14979TIP3   OH266427   3.827   2.463  17.175 -0.3626  0.1172 -0.2220
14979TIP3    H166428   3.921   2.450  17.183 -0.1724  0.9579 -1.1618
14979TIP3    H266429   3.810   2.465  17.081 -1.1772  1.0209 -0.0630
14980TIP3   OH266430   0.639   5.915  15.949  0.2365  0.1872 -0.4024
14980TIP3    H166431   0.696   5.951  15.881 -1.2470  2.0925 -0.6865
14980TIP3    H266432   0.624   5.989  16.008 -0.3645 -0.8373  0.7404
14981TIP3   OH266433   5.565   3.257   2.675 -0.0278  0.1201  0.0540
14981TIP3    H166434   5.490   3.199   2.669 -1.3007  1.7266  0.2574
14981TIP3    H266435   5.583   3.263   2.769 -0.0140  0.2072  0.0457
14982TIP3   OH266436   0.698   0.037  15.358 -0.3234  0.0298  0.4153
14982TIP3    H166437   0.727  -0.026  15.424 -0.5554 -2.2421 -1.5722
14982TIP3    H266438   0.762   0.029  15.287 -0.3958  2.0187  0.1032
14983TIP3   OH266439   6.559   1.398  12.555 -0.7881 -0.1217  0.7908
14983TIP3    H166440   6.607   1.372  12.634 -0.0401  1.0098  0.7240
14983TIP3    H266441   6.540   1.316  12.511  2.9883 -0.5282 -0.2614
14984TIP3   OH266442   2.167   1.973   1.236  0.1612 -0.7855 -0.2413
14984TIP3    H166443   2.119   2.024   1.171  0.6693 -0.2329 -0.1861
14984TIP3    H266444   2.121   1.889   1.239 -0.2824 -0.5672 -0.8090
14985TIP3   OH266445   6.093   2.170  17.276 -0.2904  0.0791  0.3475
14985TIP3    H166446   5.999   2.173  17.290 -0.0866  1.3558  1.5610
14985TIP3    H266447   6.104   2.120  17.195 -2.0592  0.8016 -0.3541
14986TIP3   OH266448   1.114   3.289   4.821 -0.5299  0.5018 -0.3567
14986TIP3    H166449   1.142   3.325   4.905 -0.6239 -1.0867  0.3608
14986TIP3    H266450   1.019   3.281   4.829 -0.5923  0.8136 -0.7958
14987TIP3   OH266451   1.010   4.455   1.149  0.7743 -0.4609 -0.0543
14987TIP3    H166452   1.077   4.520   1.173 -0.4758  0.1580  1.8470
14987TIP3    H266453   1.024   4.440   1.056  0.2915  3.5022 -0.8539
14988TIP3   OH266454   1.846   3.081  11.323  0.2459 -0.7250  0.3116
14988TIP3    H166455   1.850   3.151  11.388  0.2419 -1.6008  1.2726
14988TIP3    H266456   1.871   3.123  11.241  1.8819  0.0237  1.1647
14989TIP3   OH266457   0.210   0.565  11.063  1.1442  0.0502 -0.2095
14989TIP3    H166458   0.151   0.490  11.072  1.3473  0.0246  0.9915
14989TIP3    H266459   0.178   0.629  11.127  2.8305 -0.2371  0.9394
14990TIP3   OH266460   4.760   6.456   2.063  0.1696  0.0709  0.0734
14990TIP3    H166461   4.678   6.493   2.097  0.8027  1.8341 -0.3278
14990TIP3    H266462   4.778   6.383   2.123 -0.8628  0.6457  1.1246
14991TIP3   OH266463   5.554   5.208   4.070  0.1254  0.1154  0.1138
14991TIP3    H166464   5.487   5.165   4.016  2.3643 -2.6078 -0.6272
14991TIP3    H266465   5.630   5.217   4.011  0.3168  3.6070  0.7781
14992TIP3   OH266466   4.608   1.404  14.254  0.4857  0.1655 -0.5405
14992TIP3    H166467   4.513   1.406  14.263  0.6416  0.5526  1.0895
14992TIP3    H266468   4.627   1.466  14.184 -0.2931  1.7996  0.6576
14993TIP3   OH266469   1.813   0.063  15.237  0.1045 -0.6147 -0.5676
14993TIP3    H166470   1.752   0.113  15.183  2.0510  1.4794 -0.9002
14993TIP3    H266471   1.876   0.128  15.269  1.6723 -2.5701  0.4346
14994TIP3   OH266472   2.392   5.309   0.983  0.3391 -0.4223 -0.7077
14994TIP3    H166473   2.305   5.289   0.948  0.2742 -1.1740 -0.1286
14994TIP3    H266474   2.435   5.356   0.913 -1.2999  1.9124 -0.1958
14995TIP3   OH266475   0.783   0.339   1.200 -0.3523 -0.4127 -0.1385
14995TIP3    H166476   0.755   0.250   1.222 -0.2135 -0.5631 -0.5563
14995TIP3    H266477   0.853   0.358   1.262  0.7477 -1.2299 -1.1038
14996TIP3   OH266478   5.025   1.356   5.264  0.8490 -0.5809  0.2409
14996TIP3    H166479   4.999   1.387   5.177  1.1541  1.9119  0.9965
14996TIP3    H266480   5.068   1.272   5.248 -0.4736 -0.9117 -1.8405
14997TIP3   OH266481   0.560   1.574  17.145  0.4913 -0.4448  0.2707
14997TIP3    H166482   0.513   1.531  17.073  2.6041 -0.3549 -1.1858
14997TIP3    H266483   0.572   1.505  17.211 -1.5090 -0.5085  0.6088
14998TIP3   OH266484   2.312   3.383  11.219 -0.3236  0.8503  0.2553
14998TIP3    H166485   2.232   3.331  11.221 -0.2986  0.7658 -0.5415
14998TIP3    H266486   2.283   3.472  11.239 -0.7988  1.0207 -1.1345
14999TIP3   OH266487   5.271   5.308  12.295  0.7287  0.1722 -0.3400
14999TIP3    H166488   5.250   5.235  12.353 -0.3252  0.2581 -0.6084
14999TIP3    H266489   5.246   5.277  12.208 -2.4951  1.8959 -0.1012
15000TIP3   OH266490   0.555   0.503  14.041  0.6299 -0.4637  0.5785
15000TIP3    H166491   0.511   0.569  13.988  0.4572  0.4537  1.8257
15000TIP3    H266492   0.500   0.425  14.033  1.1931 -0.6704 -1.4369
15001TIP3   OH266493   3.422   6.120   3.817  0.1117 -0.6297  0.1101
15001TIP3    H166494   3.371   6.201   3.826 -0.0347 -0.8166  1.1024
15001TIP3    H266495   3.451   6.119   3.726  0.1434  0.5560  0.0999
15002TIP3   OH266496   5.683   1.183   1.348  0.1982 -0.0298  0.4913
15002TIP3    H166497   5.630   1.111   1.382  0.5587 -0.8005 -0.5153
15002TIP3    H266498   5.629   1.222   1.279  1.5817 -1.9578 -1.7825
15003TIP3   OH266499   4.276   0.360   1.366 -0.3603 -0.0088  0.3908
15003TIP3    H166500   4.197   0.329   1.411 -0.1942 -1.7852 -0.4960
15003TIP3    H266501   4.245   0.388   1.280 -0.4755  2.1645  1.1197
15004TIP3   OH266502   0.827   2.814   1.162 -0.5753 -0.3704 -0.3854
15004TIP3    H166503   0.813   2.746   1.229 -2.1309 -1.3112 -1.6295
15004TIP3    H266504   0.746   2.865   1.163 -0.4109 -0.0973 -1.2143
15005TIP3   OH266505   1.396   4.797   1.372 -0.4499  1.2144  0.2721
15005TIP3    H166506   1.320   4.821   1.424 -0.4592  1.6518  0.0560
15005TIP3    H266507   1.385   4.845   1.290 -2.3657 -2.2797 -1.6608
15006TIP3   OH266508   3.498   2.717   6.861 -0.0971 -0.1580 -0.4142
15006TIP3    H166509   3.482   2.803   6.821  0.0155  0.1260  0.1533
15006TIP3    H266510   3.588   2.722   6.893  0.1079 -0.6912 -0.8932
15007TIP3   OH266511   4.849   0.495  13.306 -0.4254  0.4606 -0.5226
15007TIP3    H166512   4.808   0.495  13.220 -0.5881 -0.8476 -0.4664
15007TIP3    H266513   4.911   0.421  13.303 -0.3205  0.4984  0.4166
15008TIP3   OH266514   2.807   0.780   2.249  0.0176  0.1977 -0.0687
15008TIP3    H166515   2.830   0.751   2.160  1.8833 -0.3640  0.5643
15008TIP3    H266516   2.713   0.764   2.256  0.2406 -1.8092 -1.2019
15009TIP3   OH266517   1.262   6.028  12.649 -0.2308  0.1033 -0.2322
15009TIP3    H166518   1.250   5.937  12.622  2.8247 -0.1763 -0.8401
15009TIP3    H266519   1.313   6.067  12.578  0.5431  1.6473  1.1427
15010TIP3   OH266520   1.680   0.740   5.074  0.0594 -0.1237  0.3997
15010TIP3    H166521   1.625   0.780   5.142  0.5270  0.0027  0.7035
15010TIP3    H266522   1.653   0.649   5.072 -1.0212  0.1976 -0.2947
15011TIP3   OH266523   0.909   6.013   0.215 -0.2208  0.6459 -0.3159
15011TIP3    H166524   0.914   6.062   0.132 -1.7275 -0.1934 -0.9174
15011TIP3    H266525   0.817   6.018   0.240  0.2316  0.9035  1.3440
15012TIP3   OH266526   0.165   4.507   6.032 -0.1627 -0.0734  0.2451
15012TIP3    H166527   0.232   4.497   6.100 -0.8981  1.5310  1.2419
15012TIP3    H266528   0.092   4.550   6.077 -1.0887  0.0088 -1.3010
15013TIP3   OH266529   3.322   4.438   5.282 -0.3007 -0.6002  0.0076
15013TIP3    H166530   3.243   4.491   5.273  0.2917  0.4883  1.0892
15013TIP3    H266531   3.293   4.360   5.330 -0.8623 -0.5323 -0.2236
15014TIP3   OH266532   6.818   4.727   4.780 -0.2783 -0.2869 -0.1894
15014TIP3    H166533   6.749   4.712   4.716 -0.8178 -0.3765  0.4177
15014TIP3    H266534   6.775   4.720   4.865  0.5189 -0.5920  0.1994
15015TIP3   OH266535   2.784   4.828   4.215 -0.0675  0.2033  0.0844
15015TIP3    H166536   2.816   4.898   4.158 -0.4210  2.2067  2.2629
15015TIP3    H266537   2.689   4.843   4.219 -0.1384 -0.3890  0.5809
15016TIP3   OH266538   0.118   5.921  16.111  0.0601  0.0577 -0.5228
15016TIP3    H166539   0.201   5.873  16.119 -0.7190 -1.0559  1.4465
15016TIP3    H266540   0.100   5.923  16.018  3.2554  2.0079 -1.1845
15017TIP3   OH266541   6.515   2.189  13.083 -0.6578 -0.5171  0.5727
15017TIP3    H166542   6.515   2.281  13.109 -1.0907 -0.8212  1.6871
15017TIP3    H266543   6.432   2.176  13.038 -0.2182 -0.1570 -0.3503
15018TIP3   OH266544   4.601   3.030   0.429 -0.6311  0.3481 -0.1128
15018TIP3    H166545   4.584   2.944   0.392 -2.0077  0.5726 -0.0249
15018TIP3    H266546   4.633   3.082   0.355 -0.8754  0.0702 -0.4129
15019TIP3   OH266547   2.142   3.822  15.232  0.7603  0.5254 -0.1136
15019TIP3    H166548   2.182   3.792  15.314  0.2222  0.9025  0.2919
15019TIP3    H266549   2.212   3.868  15.186  1.0718  0.2882  0.1196
15020TIP3   OH266550   0.166   1.130  14.600 -0.1783  0.2408  0.3568
15020TIP3    H166551   0.072   1.116  14.598 -0.1556  0.0012  0.8199
15020TIP3    H266552   0.181   1.206  14.543 -0.4963 -0.5691 -0.8234
15021TIP3   OH266553   4.309   4.331  14.950  0.5440 -0.6868 -0.7621
15021TIP3    H166554   4.288   4.384  14.874  0.5877  0.7742  0.2272
15021TIP3    H266555   4.391   4.287  14.928  0.0615 -1.0215 -1.9158
15022TIP3   OH266556   6.145   6.657  15.357 -0.9591  0.4061 -0.0775
15022TIP3    H166557   6.238   6.637  15.365 -1.3123 -1.2792  0.1777
15022TIP3    H266558   6.112   6.595  15.292 -2.0471  0.4470  0.4129
15023TIP3   OH266559   2.791   6.325   3.700  0.1690  0.0153  0.0231
15023TIP3    H166560   2.846   6.386   3.650  0.9365  1.0699  2.1010
15023TIP3    H266561   2.843   6.246   3.708  0.8172  0.5182  0.7809
15024TIP3   OH266562   6.624   1.000   5.134  0.2215 -0.1919  0.3695
15024TIP3    H166563   6.719   0.997   5.128  0.1708  0.5282 -1.1599
15024TIP3    H266564   6.603   1.093   5.126 -0.6311 -0.4056  0.0642
15025TIP3   OH266565   5.772   4.890  16.124  0.0708  0.4648  0.1275
15025TIP3    H166566   5.757   4.881  16.218  1.2265  1.5976  0.4312
15025TIP3    H266567   5.736   4.809  16.086  1.7700 -1.1139  1.7734
15026TIP3   OH266568   0.344   6.660  14.545 -0.0257 -0.2530 -0.0056
15026TIP3    H166569   0.388   6.721  14.486  0.6909 -0.9278 -0.1839
15026TIP3    H266570   0.252   6.666  14.522  0.3521 -1.1387 -1.7980
15027TIP3   OH266571   0.238   0.470  12.609 -0.1682  0.1258  0.5997
15027TIP3    H166572   0.205   0.466  12.698 -0.6506 -1.8717  0.3637
15027TIP3    H266573   0.173   0.522  12.561 -1.0844 -0.6855  0.9424
15028TIP3   OH266574   5.506   5.554  16.581 -0.6665  0.3883 -0.4982
15028TIP3    H166575   5.537   5.642  16.561  0.1834 -0.0541 -1.1459
15028TIP3    H266576   5.581   5.511  16.620 -1.1231 -0.0143 -0.0542
15029TIP3   OH266577   5.476   3.770   3.796 -0.2056  0.2197 -0.0032
15029TIP3    H166578   5.569   3.786   3.783 -0.2702  1.8591  1.3932
15029TIP3    H266579   5.464   3.770   3.891 -1.7291  0.7207 -0.1719
15030TIP3   OH266580   0.714   3.785   4.888 -0.2052 -0.0926  0.0639
15030TIP3    H166581   0.792   3.837   4.871  0.3025 -1.2211 -1.1619
15030TIP3    H266582   0.659   3.798   4.810 -0.2444 -1.0828 -0.0777
15031TIP3   OH266583   1.166   1.179  16.292  0.5113 -0.4760 -0.2026
15031TIP3    H166584   1.219   1.222  16.225 -0.4779 -0.9798 -1.3242
15031TIP3    H266585   1.201   1.090  16.297 -0.1420 -0.7866 -0.8916
15032TIP3   OH266586   5.525   0.932  15.842  0.3668 -0.6516 -0.0011
15032TIP3    H166587   5.556   0.964  15.757  1.0608  0.4343  0.6463
15032TIP3    H266588   5.430   0.925  15.832  0.4704 -0.7417 -0.9392
15033TIP3   OH266589   3.353   0.537  13.402  0.3571 -0.7179 -0.1035
15033TIP3    H166590   3.273   0.589  13.399  0.0107 -1.2362  0.1234
15033TIP3    H266591   3.327   0.450  13.370  0.8550 -0.8502 -0.1594
15034TIP3   OH266592   1.026   1.505   4.686 -0.8159 -0.5945  0.3230
15034TIP3    H166593   1.081   1.428   4.697 -3.1814 -2.3792  0.0760
15034TIP3    H266594   1.000   1.530   4.775 -0.5641 -0.4649  0.3602
15035TIP3   OH266595   3.661   0.436  11.755 -0.3678  0.1532 -0.3989
15035TIP3    H166596   3.721   0.382  11.807  1.1585 -0.6460 -2.8993
15035TIP3    H266597   3.693   0.525  11.767  0.6902 -0.1539 -0.8333
15036TIP3   OH266598   1.692   1.103   1.074 -0.7608  0.6645 -0.4328
15036TIP3    H166599   1.605   1.124   1.108 -1.0650 -0.9729 -0.1116
15036TIP3    H266600   1.679   1.090   0.980 -1.1394 -0.8670 -0.1835
15037TIP3   OH266601   5.211   3.853  12.741  0.3404 -0.1546  0.1629
15037TIP3    H166602   5.129   3.893  12.711 -0.1926 -1.0284  0.4699
15037TIP3    H266603   5.217   3.875  12.834 -0.3160 -1.4144  0.5033
15038TIP3   OH266604   4.159   5.023   1.202  0.2421 -0.0426 -0.3915
15038TIP3    H166605   4.209   4.979   1.133 -0.4859  1.1924 -1.7306
15038TIP3    H266606   4.130   4.952   1.259  2.1076 -0.9336 -0.5316
15039TIP3   OH266607   4.547   3.641   2.455  0.3875 -0.3703 -0.8122
15039TIP3    H166608   4.592   3.703   2.398  3.3517 -0.9907  0.7398
15039TIP3    H266609   4.579   3.555   2.427  1.6813 -0.6936  1.5460
15040TIP3   OH266610   4.808   6.474   4.443 -0.1555  0.3424 -0.4410
15040TIP3    H166611   4.805   6.379   4.430  0.0229  0.2314  0.2958
15040TIP3    H266612   4.833   6.509   4.358 -2.2820 -0.1079 -1.2688
15041TIP3   OH266613   1.434   3.405  12.567  0.2959 -0.1886  0.4395
15041TIP3    H166614   1.523   3.370  12.579  0.4371 -0.3992 -1.1323
15041TIP3    H266615   1.434   3.440  12.478  0.0593  3.5690  1.8528
15042TIP3   OH266616   2.752   1.796   3.789 -0.4595 -0.3898 -0.2448
15042TIP3    H166617   2.769   1.889   3.774 -0.8803 -0.0601  1.2277
15042TIP3    H266618   2.769   1.754   3.704  0.6240  0.8983 -0.6756
15043TIP3   OH266619   4.869   1.832  11.814 -0.2123 -0.2672  0.5028
15043TIP3    H166620   4.834   1.849  11.727  2.9162  2.2370 -0.3787
15043TIP3    H266621   4.879   1.919  11.853  0.9632 -1.1668  2.2897
15044TIP3   OH266622   0.606   5.036  11.776 -0.3250  0.2999  0.4897
15044TIP3    H166623   0.648   4.963  11.821 -1.1435 -0.1826  0.4772
15044TIP3    H266624   0.636   5.028  11.685 -1.9673 -1.2154  0.0415
15045TIP3   OH266625   2.931   6.134  16.903 -0.0240 -0.2738 -0.1135
15045TIP3    H166626   2.922   6.091  16.818 -0.4199  1.1142 -0.7827
15045TIP3    H266627   2.858   6.195  16.907  0.9182  0.8207  0.5418
15046TIP3   OH266628   0.308   2.984   3.479  0.4435  0.2546  0.2376
15046TIP3    H166629   0.362   2.941   3.545 -0.8031 -1.5770  0.1057
15046TIP3    H266630   0.236   3.023   3.529  0.3610  0.2257  0.1425
15047TIP3   OH266631   4.207   2.454  16.540  0.2071  0.4429  0.0873
15047TIP3    H166632   4.258   2.395  16.595  0.1773  0.7941  0.4947
15047TIP3    H266633   4.235   2.434  16.451 -0.8992 -1.2554  0.0884
15048TIP3   OH266634   6.489   0.444  13.283  0.8090 -0.2227  0.2212
15048TIP3    H166635   6.441   0.523  13.259 -0.8824 -0.4236  2.7778
15048TIP3    H266636   6.452   0.376  13.226 -0.7765 -0.0244  0.9857
15049TIP3   OH266637   0.632   5.459   2.660  0.1465 -0.0089  0.6711
15049TIP3    H166638   0.538   5.461   2.640  0.3376 -0.5185 -0.3160
15049TIP3    H266639   0.637   5.465   2.755 -0.9226 -0.7683  0.7774
15050TIP3   OH266640   4.109   4.881   6.149  0.4022 -0.1919  0.4947
15050TIP3    H166641   4.152   4.822   6.211 -1.5286 -0.9558  1.1536
15050TIP3    H266642   4.072   4.950   6.203 -3.0846 -1.9495  0.5165
15051TIP3   OH266643   2.716   0.511   1.212 -0.1542  0.3730 -0.0247
15051TIP3    H166644   2.667   0.489   1.291 -0.9162  0.8425 -0.3595
15051TIP3    H266645   2.808   0.504   1.238 -0.4006  0.4122  0.8665
15052TIP3   OH266646   6.710   2.972  14.783  0.1335 -0.5307 -0.1742
15052TIP3    H166647   6.654   2.895  14.789 -0.6933  0.0465 -0.3181
15052TIP3    H266648   6.775   2.950  14.716  0.6576 -1.5564  0.6511
15053TIP3   OH266649   6.433   2.482   4.287 -0.6400  0.0827  0.7501
15053TIP3    H166650   6.504   2.418   4.280  0.5242  1.4458 -0.1897
15053TIP3    H266651   6.452   2.546   4.219 -2.5678  0.6911  0.7509
15054TIP3   OH266652   0.592   5.199   4.698 -0.1340 -0.1715  0.0034
15054TIP3    H166653   0.669   5.218   4.644  0.6891 -2.3508  0.3608
15054TIP3    H266654   0.519   5.237   4.650  0.8074 -0.6100 -1.8167
15055TIP3   OH266655   0.636   0.706   1.842 -0.5694 -0.3799 -0.9678
15055TIP3    H166656   0.638   0.771   1.913 -0.0246 -1.5368  0.0921
15055TIP3    H266657   0.655   0.756   1.763  2.3535  0.3727  0.1452
15056TIP3   OH266658   3.504   5.445   6.188 -0.1112  0.5118  0.3148
15056TIP3    H166659   3.531   5.377   6.126 -1.1852  0.4875 -0.1461
15056TIP3    H266660   3.536   5.415   6.273 -0.1883 -0.3486  0.0417
15057TIP3   OH266661   4.550   3.807  13.938  0.0080 -0.2998 -0.4876
15057TIP3    H166662   4.472   3.854  13.965  1.0714  1.5943 -0.6056
15057TIP3    H266663   4.616   3.831  14.003  0.6698 -1.2996 -0.7844
15058TIP3   OH266664   0.678   1.535  14.192  0.3528 -0.5862 -0.1012
15058TIP3    H166665   0.676   1.630  14.177  0.0736 -0.8509 -1.7717
15058TIP3    H266666   0.741   1.502  14.129  2.9765 -1.1612  2.6981
15059TIP3   OH266667   3.601   2.530   1.494  0.1557  0.0576 -0.2477
15059TIP3    H166668   3.565   2.617   1.510 -0.8017 -0.3580 -0.0992
15059TIP3    H266669   3.530   2.470   1.518  0.6392 -0.7450 -0.8033
15060TIP3   OH266670   5.073   2.191   2.051  0.1270  0.0804  0.0796
15060TIP3    H166671   5.109   2.258   1.992 -0.2342 -0.2784 -0.5466
15060TIP3    H266672   5.149   2.156   2.097  0.5321 -0.3452 -0.9024
15061TIP3   OH266673   3.517   5.739  13.681  0.4132  0.4158  1.1541
15061TIP3    H166674   3.431   5.730  13.640  1.6772  0.1709 -1.6353
15061TIP3    H266675   3.514   5.823  13.726 -1.6787 -0.1605  2.1162
15062TIP3   OH266676   6.469   6.274  12.129 -0.0897  0.6587 -0.1765
15062TIP3    H166677   6.562   6.282  12.149 -0.1430  1.8539 -0.3205
15062TIP3    H266678   6.466   6.267  12.034 -0.0365 -1.5162 -0.0410
15063TIP3   OH266679   4.593   4.926   2.712  0.3994  0.3271 -0.3348
15063TIP3    H166680   4.524   4.895   2.654 -0.9672  0.8403  0.9923
15063TIP3    H266681   4.625   4.847   2.756 -1.5303  0.4464  1.3709
15064TIP3   OH266682   0.628   1.820   2.384  0.0599  0.1739  0.6116
15064TIP3    H166683   0.717   1.833   2.350 -0.4144  0.5837 -0.4855
15064TIP3    H266684   0.640   1.813   2.479  1.5710 -2.3496  0.2982
15065TIP3   OH266685   4.159   1.329  13.945 -0.1467 -0.5986  0.2467
15065TIP3    H166686   4.182   1.392  13.876  0.2745  1.7054  2.3913
15065TIP3    H266687   4.071   1.299  13.921 -0.0055  0.1393 -1.2961
15066TIP3   OH266688   3.239   5.722  12.669  0.3170 -0.1733  0.3758
15066TIP3    H166689   3.161   5.751  12.717  1.3668  3.1658  0.2012
15066TIP3    H266690   3.303   5.700  12.737  0.3813  0.4609  0.5240
15067TIP3   OH266691   6.055   3.719   4.811  0.2602  0.1002  0.3377
15067TIP3    H166692   5.973   3.721   4.761  0.3689  0.6829  0.1785
15067TIP3    H266693   6.106   3.793   4.777  0.5190  0.2278  0.9925
15068TIP3   OH266694   6.197   4.612  13.799 -0.3128 -0.0393 -0.4003
15068TIP3    H166695   6.286   4.626  13.769  0.4213  2.9946  2.9457
15068TIP3    H266696   6.191   4.517  13.813  2.8006 -0.1114  0.6132
15069TIP3   OH266697   5.556   0.203  12.804 -0.2542  0.1567 -0.0460
15069TIP3    H166698   5.464   0.189  12.782 -0.0321  0.3157 -1.1224
15069TIP3    H266699   5.556   0.282  12.858 -0.6538  0.6711 -0.7935
15070TIP3   OH266700   1.950   6.738  17.224  0.0822  0.2339  0.1113
15070TIP3    H166701   2.045   6.747  17.219 -0.0369  0.8066 -1.3528
15070TIP3    H266702   1.916   6.827  17.214 -0.6366 -0.0957 -0.4490
15071TIP3   OH266703   0.761   0.651  16.017  0.3272  0.1852  0.0504
15071TIP3    H166704   0.838   0.703  15.995  1.0554 -1.3076 -1.0165
15071TIP3    H266705   0.729   0.619  15.932 -1.6006  0.9495  0.4482
15072TIP3   OH266706   4.247   0.469   3.388  0.6099  0.2839  0.2322
15072TIP3    H166707   4.176   0.422   3.345  1.9163 -0.2801 -1.3323
15072TIP3    H266708   4.204   0.523   3.454 -1.1194 -1.3634  0.4824
15073TIP3   OH266709   1.293   2.472  16.666  0.3919  0.3016 -0.0695
15073TIP3    H166710   1.211   2.424  16.655  0.5981 -0.0672 -0.0188
15073TIP3    H266711   1.345   2.417  16.724  1.3276 -0.2941 -1.4318
15074TIP3   OH266712   4.043   6.624  13.497 -0.0171  0.0854  0.4933
15074TIP3    H166713   4.072   6.702  13.544  0.6878 -0.0582  0.2969
15074TIP3    H266714   4.092   6.625  13.415 -1.5359  0.5553 -0.4353
15075TIP3   OH266715   0.804   0.632   0.024  0.0842  0.2215 -0.1911
15075TIP3    H166716   0.801   0.547  -0.022  1.8858  0.3509 -0.5991
15075TIP3    H266717   0.773   0.612   0.112  0.3688 -0.8430 -0.3176
15076TIP3   OH266718   0.958   3.006   5.544  0.2584 -0.2088  0.0774
15076TIP3    H166719   1.031   3.054   5.581  0.2783 -0.9020  0.9606
15076TIP3    H266720   0.992   2.968   5.463  1.1465 -1.2270  0.9074
15077TIP3   OH266721   6.572   2.888   2.354  0.4510 -0.3846  0.1590
15077TIP3    H166722   6.535   2.801   2.341 -0.6137 -0.0480  0.9406
15077TIP3    H266723   6.553   2.910   2.446 -0.6461  1.3022 -0.4412
15078TIP3   OH266724   0.191   4.008   1.951 -0.1534  0.3356 -0.7836
15078TIP3    H166725   0.105   4.041   1.923 -1.4417 -1.9264  0.3329
15078TIP3    H266726   0.172   3.923   1.990  2.9832 -1.7104 -3.4210
15079TIP3   OH266727   0.556   6.716  14.731  0.0251 -0.0174  0.2561
15079TIP3    H166728   0.500   6.706  14.653 -0.2336  0.3954  0.3879
15079TIP3    H266729   0.610   6.637  14.731 -0.1997 -0.1780 -0.1617
15080TIP3   OH266730   4.588   5.519   1.361  0.2766  0.1676 -0.2997
15080TIP3    H166731   4.509   5.466   1.368 -0.5466  1.2725 -0.9994
15080TIP3    H266732   4.659   5.459   1.384 -0.7435 -0.8793  0.1834
15081TIP3   OH266733   6.240   6.333   2.670  0.5312 -0.1189 -0.0386
15081TIP3    H166734   6.249   6.396   2.742  1.4226  0.2350 -0.4499
15081TIP3    H266735   6.295   6.260   2.694 -1.0001 -1.0406  0.7390
15082TIP3   OH266736   4.416   1.212  16.366 -0.5148  0.0341 -0.4575
15082TIP3    H166737   4.371   1.296  16.375  1.0673  0.7461  1.0352
15082TIP3    H266738   4.458   1.198  16.451 -0.9253 -2.3757 -0.6375
15083TIP3   OH266739   2.784   0.874   6.358 -0.1022 -0.6775 -0.2332
15083TIP3    H166740   2.812   0.958   6.323 -2.8964  0.2804 -0.3336
15083TIP3    H266741   2.863   0.836   6.396  1.1769  2.1057  0.0403
15084TIP3   OH266742   4.693   3.110   2.470 -0.3285 -0.2534 -0.2661
15084TIP3    H166743   4.702   3.015   2.466 -1.8910 -0.4609  0.6465
15084TIP3    H266744   4.598   3.124   2.475 -0.1065  1.3523 -0.4393
15085TIP3   OH266745   2.086   4.312  11.236  0.2669  0.2704 -0.1454
15085TIP3    H166746   2.121   4.258  11.307 -0.3399  1.4881  1.1196
15085TIP3    H266747   2.044   4.250  11.177 -0.8173 -0.6275  1.5047
15086TIP3   OH266748   3.235   0.840   1.729 -0.4424  0.3002 -0.3991
15086TIP3    H166749   3.326   0.841   1.759 -0.3827  0.9758 -0.5753
15086TIP3    H266750   3.183   0.852   1.808 -0.3972 -0.4828 -0.2484
15087TIP3   OH266751   1.636   0.115   6.206 -0.3130 -0.3710 -0.7757
15087TIP3    H166752   1.637   0.088   6.114  0.0641 -0.3856 -0.7647
15087TIP3    H266753   1.645   0.034   6.255 -0.5922 -0.3713 -0.7229
15088TIP3   OH266754   5.976   0.365  14.020  0.1118 -0.0212  0.1586
15088TIP3    H166755   5.964   0.279  13.979 -1.0370 -0.1521  0.7609
15088TIP3    H266756   5.916   0.365  14.095  0.3674  1.1685  0.3752
15089TIP3   OH266757   6.327   0.596  11.462  0.0933 -0.0824  0.0184
15089TIP3    H166758   6.346   0.683  11.426 -0.0886  0.8110  1.9900
15089TIP3    H266759   6.258   0.561  11.406 -0.6581  1.5606 -0.1186
15090TIP3   OH266760   2.362   5.654  13.969 -0.4034 -0.4265 -0.8738
15090TIP3    H166761   2.394   5.684  13.884 -1.0952  0.7623 -0.7327
15090TIP3    H266762   2.374   5.729  14.027 -0.1422 -1.1593  0.0215
15091TIP3   OH266763   1.161   5.750   2.748  0.0629 -0.0189 -0.5968
15091TIP3    H166764   1.124   5.725   2.663  0.7020 -0.5437 -0.7139
15091TIP3    H266765   1.253   5.767   2.731  0.1328  0.1591 -0.0630
15092TIP3   OH266766   0.653   6.473   2.137  0.0022  0.6450 -0.3274
15092TIP3    H166767   0.689   6.460   2.225  0.4373  1.3666 -0.4029
15092TIP3    H266768   0.629   6.565   2.134  0.7233  0.7961 -1.2482
15093TIP3   OH266769   4.239   5.177   5.693 -0.8037  0.0854 -0.5224
15093TIP3    H166770   4.333   5.161   5.689 -0.2692  2.8258 -0.1599
15093TIP3    H266771   4.206   5.112   5.755  1.0021 -0.2739  0.0936
15094TIP3   OH266772   1.766   3.331   5.417  0.2490  0.0056  0.4989
15094TIP3    H166773   1.838   3.332   5.480 -0.3359  1.0845  1.1468
15094TIP3    H266774   1.745   3.423   5.402 -0.5076 -0.2847 -0.2641
15095TIP3   OH266775   1.116   1.027  17.063 -0.4249  0.6975 -0.1511
15095TIP3    H166776   1.099   0.957  17.125 -0.5167 -0.0396 -1.0017
15095TIP3    H266777   1.094   1.107  17.111  2.0807  0.3372  1.6878
15096TIP3   OH266778   0.082   2.039  13.576  0.1548 -0.3510 -0.3784
15096TIP3    H166779   0.125   1.957  13.601  1.1274  0.8820  2.2828
15096TIP3    H266780   0.098   2.048  13.483  2.1323 -1.9903 -0.2229
15097TIP3   OH266781   3.373   1.950  11.830  0.0296 -0.0044 -0.0849
15097TIP3    H166782   3.330   1.906  11.903 -1.1973  1.5879  0.1798
15097TIP3    H266783   3.457   1.979  11.865 -1.3405  2.4509  1.3283
15098TIP3   OH266784   5.426   1.753   2.650  0.3087  0.2018 -0.5087
15098TIP3    H166785   5.495   1.741   2.584  1.9559  0.5416  1.1314
15098TIP3    H266786   5.418   1.848   2.660 -1.4727  0.2193 -1.7616
15099TIP3   OH266787   5.512   0.796   2.297 -0.0109  0.6000 -0.8998
15099TIP3    H166788   5.550   0.738   2.364 -0.8081 -1.4782 -2.1878
15099TIP3    H266789   5.588   0.836   2.254  0.5326  1.0367  0.4533
15100TIP3   OH266790   5.240   3.308  11.866 -0.2176 -0.4054 -0.5090
15100TIP3    H166791   5.284   3.225  11.846 -0.1140 -0.3405 -0.5580
15100TIP3    H266792   5.197   3.332  11.784 -0.2310 -0.4017 -0.5007
15101TIP3   OH266793   5.945   4.862  14.458 -0.0191 -0.3052 -0.3790
15101TIP3    H166794   5.899   4.939  14.492 -1.3073  0.1231 -2.9556
15101TIP3    H266795   5.907   4.788  14.506 -0.3939  0.4491  0.4978
15102TIP3   OH266796   3.751   0.428   1.906 -0.9373 -0.4371  0.1286
15102TIP3    H166797   3.807   0.406   1.980  1.8071 -2.4086 -2.4110
15102TIP3    H266798   3.681   0.363   1.908 -0.8333 -0.5321  0.9280
15103TIP3   OH266799   4.411   3.882  11.646  0.1473 -0.2476  0.0077
15103TIP3    H166800   4.374   3.795  11.663  2.5754 -0.7766  3.1211
15103TIP3    H266801   4.444   3.911  11.732  0.6437  3.1457 -1.2642
15104TIP3   OH266802   0.132   2.785   3.784 -0.2944 -0.8527 -0.4275
15104TIP3    H166803   0.047   2.794   3.828 -0.7637  1.7518 -1.7798
15104TIP3    H266804   0.191   2.842   3.832  0.6002 -2.2445  0.1710
15105TIP3   OH266805   0.766   3.701   2.000 -0.0785  0.0486  0.1413
15105TIP3    H166806   0.806   3.649   2.069 -0.8915  0.1294  0.6820
15105TIP3    H266807   0.683   3.657   1.982 -0.2423  0.4940 -0.2146
15106TIP3   OH266808   2.721   6.321  14.983  0.1938  0.5556  0.7780
15106TIP3    H166809   2.639   6.368  15.002  0.4295  0.7476  1.3504
15106TIP3    H266810   2.784   6.360  15.044  0.6394  0.2066  0.5349
15107TIP3   OH266811   4.978   2.812  13.706 -0.0676 -0.0945  0.1116
15107TIP3    H166812   5.046   2.858  13.755 -0.8190  0.1462  0.9353
15107TIP3    H266813   4.966   2.730  13.753 -0.2742 -0.1856 -0.0982
15108TIP3   OH266814   6.694   3.180  11.224 -0.3064  0.4017  0.6465
15108TIP3    H166815   6.663   3.102  11.178  1.5113  0.2718 -0.4471
15108TIP3    H266816   6.703   3.153  11.315 -0.1844 -0.5219  0.3615
15109TIP3   OH266817   1.770   2.496   0.467  0.3176  0.4830 -0.3155
15109TIP3    H166818   1.706   2.559   0.501  0.4101  0.6211 -0.3987
15109TIP3    H266819   1.725   2.452   0.395  0.5587  1.0620 -0.8193
15110TIP3   OH266820   4.439   5.676  14.087 -0.4591  0.0004  0.4703
15110TIP3    H166821   4.441   5.639  14.176 -1.1701  2.7586  1.6715
15110TIP3    H266822   4.358   5.727  14.085  0.9096  2.1368 -0.8851
15111TIP3   OH266823   2.227   6.755  17.210  0.2504 -0.1135  0.1870
15111TIP3    H166824   2.236   6.801  17.127 -0.2702  0.8287  0.6436
15111TIP3    H266825   2.313   6.763  17.252 -0.1893  1.5402  0.8130
15112TIP3   OH266826   3.360   6.062  16.234 -0.3295 -0.0310  0.0299
15112TIP3    H166827   3.321   5.998  16.174  1.6602 -0.5652 -0.7236
15112TIP3    H266828   3.295   6.072  16.304 -1.4390 -1.5187 -0.7652
15113TIP3   OH266829   4.679   2.619   4.798 -0.1199 -0.3607 -0.9109
15113TIP3    H166830   4.618   2.546   4.790  1.5489 -1.7563 -1.3227
15113TIP3    H266831   4.626   2.691   4.830 -1.8958 -1.6472 -0.8654
15114TIP3   OH266832   0.809   3.815   1.395 -0.3463 -0.6298 -0.4013
15114TIP3    H166833   0.737   3.764   1.432 -0.2300 -0.8502 -0.4736
15114TIP3    H266834   0.886   3.759   1.407 -0.0241  0.0049  0.5395
15115TIP3   OH266835   1.384   3.473   5.190 -0.3734  0.0994 -0.1687
15115TIP3    H166836   1.422   3.486   5.103  1.9205  1.9908  1.0393
15115TIP3    H266837   1.338   3.555   5.208 -3.9752 -1.6515 -1.0222
15116TIP3   OH266838   4.616   0.111  15.413 -0.3477 -0.3420  0.4320
15116TIP3    H166839   4.608   0.132  15.506 -1.8046  0.4469  0.1446
15116TIP3    H266840   4.626   0.016  15.410  0.0335 -0.3383  1.3995
15117TIP3   OH266841   5.166   2.864  16.384  0.7801  0.0765 -0.2375
15117TIP3    H166842   5.117   2.944  16.365 -3.0402 -0.9864  4.1781
15117TIP3    H266843   5.212   2.882  16.466  3.1355 -0.9820 -1.2707
15118TIP3   OH266844   1.740   5.651   3.232  0.6334 -0.0910  0.1323
15118TIP3    H166845   1.757   5.569   3.278 -0.9068 -0.2147  0.5078
15118TIP3    H266846   1.712   5.625   3.144 -2.8982 -0.1611  1.1727
15119TIP3   OH266847   4.239   6.153  11.898  0.7702 -0.7784  0.3991
15119TIP3    H166848   4.264   6.069  11.937 -1.8947 -2.0360 -0.5176
15119TIP3    H266849   4.173   6.188  11.958  0.8678  0.0048  0.0522
15120TIP3   OH266850   0.960   4.724  12.265  0.0267 -0.1956  0.3421
15120TIP3    H166851   1.033   4.682  12.220 -1.1747 -0.3781 -1.4620
15120TIP3    H266852   0.896   4.654  12.279 -0.2215  0.1653  1.0606
15121TIP3   OH266853   0.016   3.884  12.491  0.1469  0.4314  0.1965
15121TIP3    H166854   0.055   3.934  12.563  1.3514 -0.6268  0.3064
15121TIP3    H266855   0.082   3.817  12.470 -1.4048 -1.0696  0.0196
15122TIP3   OH266856   3.772   3.445  16.072  0.2910 -0.1298 -0.5153
15122TIP3    H166857   3.810   3.532  16.081  1.0455 -0.4387 -0.6264
15122TIP3    H266858   3.800   3.415  15.986  1.6533 -1.2324  0.2884
15123TIP3   OH266859   1.107   1.372  14.168 -0.3149  0.1195 -0.5004
15123TIP3    H166860   1.107   1.282  14.137 -2.0093 -0.3283  0.7265
15123TIP3    H266861   1.194   1.405  14.146  1.0775 -2.4571  0.8838
15124TIP3   OH266862   5.620   3.044   4.904  0.5900 -0.5220 -0.1933
15124TIP3    H166863   5.550   3.107   4.918  0.9779 -0.0794 -0.2357
15124TIP3    H266864   5.647   3.058   4.813  1.2116 -0.2065  0.0384
15125TIP3   OH266865   4.912   0.595   1.971 -0.4065  0.6372  0.4485
15125TIP3    H166866   4.872   0.646   2.041 -2.7596  0.7131 -0.8711
15125TIP3    H266867   4.927   0.509   2.010  0.0896  1.2306  1.5924
15126TIP3   OH266868   5.658   0.646   4.183 -0.2124  0.7166 -0.5361
15126TIP3    H166869   5.643   0.688   4.267  0.1131  0.3673 -0.3030
15126TIP3    H266870   5.576   0.602   4.162  0.8157 -2.1878  1.2877
15127TIP3   OH266871   3.753   6.389  11.685 -0.1426 -0.2840  0.1887
15127TIP3    H166872   3.805   6.327  11.634 -0.0482 -0.4645  0.5058
15127TIP3    H266873   3.673   6.340  11.707 -0.6095  0.1077 -0.6055
15128TIP3   OH266874   4.967   5.508   0.511 -0.1104  0.0077  0.6260
15128TIP3    H166875   5.036   5.452   0.545  0.9990  0.8074 -0.2837
15128TIP3    H266876   4.941   5.561   0.586 -0.5380 -1.0788  1.2588
15129TIP3   OH266877   2.841   1.999   2.868  0.4101  0.0210 -0.5959
15129TIP3    H166878   2.874   2.088   2.859 -2.1732  0.9447 -1.3733
15129TIP3    H266879   2.765   1.996   2.810  0.4758 -2.7118 -0.6045
15130TIP3   OH266880   6.293   4.050   3.300 -0.0587 -0.8954 -0.3135
15130TIP3    H166881   6.343   4.118   3.345  1.7120 -2.8397  0.6953
15130TIP3    H266882   6.269   3.988   3.368  0.4357 -2.5548 -1.6231
15131TIP3   OH266883   4.545   5.642  17.161  0.1993  0.2396  0.4322
15131TIP3    H166884   4.546   5.549  17.137  1.6650 -0.0921  1.7184
15131TIP3    H266885   4.461   5.674  17.127  0.1701 -1.2767 -1.0267
15132TIP3   OH266886   1.578   1.896   1.283  0.3308 -0.1522 -0.3389
15132TIP3    H166887   1.567   1.842   1.205  1.8593  0.7535 -1.2181
15132TIP3    H266888   1.571   1.986   1.251  1.0365  0.2223  0.5492
15133TIP3   OH266889   1.566   0.729   2.905  0.1713  0.2798  0.1794
15133TIP3    H166890   1.499   0.797   2.908  0.7123  0.8962 -1.0666
15133TIP3    H266891   1.641   0.771   2.862  0.7862 -0.8738  0.0949
15134TIP3   OH266892   5.723   1.233   2.196  0.4788 -0.4730  0.1852
15134TIP3    H166893   5.775   1.177   2.253 -0.5822 -0.6672  0.9749
15134TIP3    H266894   5.776   1.312   2.185  0.9738 -0.7025  0.9145
15135TIP3   OH266895   4.615   5.930  11.148  0.0568  0.6927 -0.1486
15135TIP3    H166896   4.685   5.951  11.086 -2.0845  0.3310 -2.7709
15135TIP3    H266897   4.654   5.949  11.234  2.2420  3.8117 -1.6836
15136TIP3   OH266898   4.737   5.540  14.579 -0.2860  0.2530 -0.2037
15136TIP3    H166899   4.812   5.511  14.632 -2.0140  0.1831  2.2776
15136TIP3    H266900   4.775   5.600  14.515  2.0019 -0.3307  0.5476
15137TIP3   OH266901   5.457   5.042   0.162  0.6475  0.0972 -0.7419
15137TIP3    H166902   5.369   5.018   0.131  0.4839 -1.4635  0.8402
15137TIP3    H266903   5.451   5.135   0.181 -0.9112 -0.1480  0.0927
15138TIP3   OH266904   6.186   6.674   1.680 -0.1459 -0.0643 -0.4511
15138TIP3    H166905   6.197   6.752   1.734  0.1867  0.2338 -0.9436
15138TIP3    H266906   6.219   6.700   1.594  1.0782 -1.1312 -0.3144
15139TIP3   OH266907   1.747   4.009  15.606  0.9788 -0.6515  0.4512
15139TIP3    H166908   1.740   3.921  15.567 -1.4669  0.5933 -2.1392
15139TIP3    H266909   1.762   4.066  15.531 -3.4391  1.8128  1.2920
15140TIP3   OH266910   1.658   5.158  12.303 -0.2172 -0.3099  0.1265
15140TIP3    H166911   1.661   5.165  12.208  1.9337 -1.2462  0.1052
15140TIP3    H266912   1.700   5.238  12.334 -0.0019 -0.4771  0.2658
15141TIP3   OH266913   3.287   5.027  13.739 -0.2027  0.1993 -0.1183
15141TIP3    H166914   3.375   4.998  13.762 -0.0633 -0.9701 -2.0634
15141TIP3    H266915   3.230   4.958  13.773 -0.2747  0.3179  0.0018
15142TIP3   OH266916   5.231   5.890  12.270 -0.3802  0.3296  0.0463
15142TIP3    H166917   5.161   5.947  12.302  0.9427  1.7719  0.4814
15142TIP3    H266918   5.213   5.878  12.177 -3.1325 -2.1973  0.8549
15143TIP3   OH266919   4.137   2.304  11.843  1.2710 -0.3494  0.4644
15143TIP3    H166920   4.182   2.386  11.862  1.2620 -0.0733 -0.7275
15143TIP3    H266921   4.189   2.238  11.890  1.2361  0.3250  1.4789
15144TIP3   OH266922   3.509   0.304   1.722 -0.4691 -0.0415 -0.2445
15144TIP3    H166923   3.566   0.369   1.681 -0.8432  0.6920  0.3885
15144TIP3    H266924   3.423   0.321   1.685 -0.2656 -1.2430 -1.3097
15145TIP3   OH266925   6.496   4.629  10.274 -0.1160  0.1477 -0.0046
15145TIP3    H166926   6.587   4.654  10.263  0.1089 -0.9279 -0.6157
15145TIP3    H266927   6.467   4.601  10.187 -0.4532 -1.3627  0.5672
15146TIP3   OH266928   4.699   4.863  16.447  0.5263 -0.0864 -0.3903
15146TIP3    H166929   4.630   4.913  16.405  0.6735 -0.4234 -1.0306
15146TIP3    H266930   4.655   4.788  16.486  0.4973 -0.1620 -0.5707
15147TIP3   OH266931   1.608   6.793   1.771  0.2178 -0.5428 -0.2313
15147TIP3    H166932   1.671   6.846   1.723  0.3529 -0.9242 -0.4785
15147TIP3    H266933   1.535   6.853   1.790  0.0472 -0.4635 -1.1388
15148TIP3   OH266934   2.040   1.753  15.293 -0.1210 -0.2993 -0.3936
15148TIP3    H166935   2.088   1.811  15.352  2.5303 -2.0317 -0.7750
15148TIP3    H266936   2.078   1.666  15.309 -4.9581 -2.2793  1.2139
15149TIP3   OH266937   4.006   0.721   1.083 -0.3800 -0.6531 -0.1573
15149TIP3    H166938   3.923   0.763   1.108 -0.3486 -0.0379 -1.0739
15149TIP3    H266939   4.068   0.748   1.150 -0.4726  0.4167 -0.4906
15150TIP3   OH266940   1.661   5.769   6.097 -0.8202  0.8101  0.0884
15150TIP3    H166941   1.653   5.853   6.141 -0.4517 -1.4628  4.8269
15150TIP3    H266942   1.754   5.760   6.078 -0.6205  0.7660  1.0785
15151TIP3   OH266943   2.618   0.890   2.857  0.5713  0.2095  0.0244
15151TIP3    H166944   2.691   0.830   2.843  0.1650  0.3864 -3.0692
15151TIP3    H266945   2.659   0.977   2.858  0.8447  0.0771  2.0375
15152TIP3   OH266946   0.911   2.972   6.052  0.0876  0.2837  0.6359
15152TIP3    H166947   0.916   2.891   6.104 -1.7851  0.7018  1.5173
15152TIP3    H266948   0.955   3.038   6.105 -2.0241  0.7628  1.8627
15153TIP3   OH266949   2.534   4.970  13.663  0.2708  0.3524 -0.3136
15153TIP3    H166950   2.480   4.956  13.740 -0.8626  0.4291 -1.0834
15153TIP3    H266951   2.491   4.919  13.594  1.7362 -0.4108 -0.7058
15154TIP3   OH266952   2.779   3.666  14.507  0.0732 -0.1087 -0.1983
15154TIP3    H166953   2.870   3.646  14.529  0.0554  0.3386  0.3040
15154TIP3    H266954   2.738   3.581  14.491  1.0398 -0.2190 -2.2812
15155TIP3   OH266955   4.202   6.604  13.273 -0.3344 -0.1029 -0.0018
15155TIP3    H166956   4.273   6.543  13.294  0.8896  1.5552  0.8617
15155TIP3    H266957   4.244   6.670  13.218 -1.5586  0.1620 -0.6232
15156TIP3   OH266958   2.610   0.674  13.546 -0.5726  0.7280  0.1622
15156TIP3    H166959   2.603   0.768  13.560  0.4847  0.8069  0.1990
15156TIP3    H266960   2.701   0.660  13.519  0.0879 -0.6306  2.9554
15157TIP3   OH266961   4.868   4.156  10.953 -0.5317 -0.0763  0.0234
15157TIP3    H166962   4.832   4.186  10.869 -3.4122 -0.9903  0.8914
15157TIP3    H266963   4.874   4.234  11.007  1.1143  0.4777 -0.9269
15158TIP3   OH266964   1.177   0.679   0.208 -0.1983  0.0866  0.3831
15158TIP3    H166965   1.093   0.643   0.236  0.1145 -1.3458 -0.4665
15158TIP3    H266966   1.190   0.644   0.119  0.0748  2.3826 -0.5193
15159TIP3   OH266967   5.699   3.548   4.406 -0.2346 -0.2566  0.5284
15159TIP3    H166968   5.619   3.523   4.451 -0.2664 -0.5107  0.3334
15159TIP3    H266969   5.720   3.473   4.350 -2.2767  1.5398 -2.7928
15160TIP3   OH266970   1.218   3.772   4.565  0.0493  0.6020  0.2816
15160TIP3    H166971   1.263   3.692   4.591  1.7851  1.5795  0.3054
15160TIP3    H266972   1.131   3.742   4.538  0.1025 -1.0956  1.8570
15161TIP3   OH266973   5.020   3.667   4.227  0.0354  0.4087 -0.0621
15161TIP3    H166974   5.044   3.706   4.142 -0.8385 -0.0115 -0.5042
15161TIP3    H266975   4.937   3.709   4.250  0.5541  0.9402  0.8689
15162TIP3   OH266976   0.037   5.097  15.451 -0.1016 -0.8102  0.3440
15162TIP3    H166977   0.092   5.064  15.522 -1.9139 -2.5906  0.9565
15162TIP3    H266978   0.058   5.041  15.377  3.3188  2.3227 -1.2700
15163TIP3   OH266979   1.829   2.811   1.136 -0.2854 -0.7447  0.2637
15163TIP3    H166980   1.904   2.786   1.082 -0.1578 -1.4279  0.7535
15163TIP3    H266981   1.755   2.767   1.094 -0.3517 -0.4292  0.0417
15164TIP3   OH266982   4.550   2.716   2.245 -0.1170  0.6235 -0.2414
15164TIP3    H166983   4.461   2.747   2.260 -0.2013 -0.2422  1.1423
15164TIP3    H266984   4.539   2.628   2.211  0.1770  1.2567 -2.0264
15165TIP3   OH266985   3.182   3.873  17.028  0.1663 -0.1263  0.4687
15165TIP3    H166986   3.214   3.842  16.943 -1.1863 -2.6784  0.8167
15165TIP3    H266987   3.259   3.869  17.085  0.1332 -2.7102  0.4133
15166TIP3   OH266988   1.350   3.816   4.799 -0.2420  0.3524  0.0994
15166TIP3    H166989   1.418   3.882   4.782  1.4843 -1.6129 -0.8512
15166TIP3    H266990   1.296   3.817   4.720  0.9811 -0.7353 -0.7827
15167TIP3   OH266991   1.861   4.078  16.921  0.5367  0.1608 -0.1576
15167TIP3    H166992   1.860   4.012  16.989  0.5293 -1.8966 -2.0933
15167TIP3    H266993   1.888   4.159  16.965 -0.5797 -0.8708  2.4550
15168TIP3   OH266994   2.637   1.642  14.865 -0.0600 -0.8347  0.3988
15168TIP3    H166995   2.561   1.631  14.810 -0.5791  1.3191  0.6267
15168TIP3    H266996   2.650   1.737  14.870  1.7077 -1.0998  1.6019
15169TIP3   OH266997   3.279   5.711   4.180 -0.0407 -0.3939 -0.5328
15169TIP3    H166998   3.352   5.715   4.119  1.2208  2.6106  1.0697
15169TIP3    H266999   3.201   5.719   4.124  0.9835 -0.2907 -1.9714
15170TIP3   OH267000   5.614   3.285  14.445 -0.2412  0.2465 -0.0950
15170TIP3    H167001   5.593   3.296  14.538 -0.2955  0.4882 -0.1337
15170TIP3    H267002   5.587   3.368  14.405 -0.9793 -0.1672 -0.4660
15171TIP3   OH267003   2.884   5.146  17.188  0.5222  0.7915  0.1754
15171TIP3    H167004   2.927   5.224  17.153  1.4621  0.6791  1.0359
15171TIP3    H267005   2.954   5.080  17.189 -0.0458  0.1937  0.2700
15172TIP3   OH267006   4.874   3.423  15.881 -0.2362 -0.1483  0.2060
15172TIP3    H167007   4.914   3.423  15.794 -2.0901 -0.0888 -0.6583
15172TIP3    H267008   4.879   3.514  15.910  0.8195 -0.2549  0.3730
15173TIP3   OH267009   1.468   5.923   3.171 -0.1231  0.6458  0.0671
15173TIP3    H167010   1.552   5.968   3.170  1.0215 -1.4203  0.6145
15173TIP3    H267011   1.423   5.957   3.249  0.2281  1.6875 -0.1810
15174TIP3   OH267012   1.315   1.244   1.379  0.3114 -0.3074 -0.4315
15174TIP3    H167013   1.251   1.310   1.407  0.8638 -0.5131  1.3360
15174TIP3    H267014   1.357   1.215   1.459  4.8760  2.0643 -1.8022
15175TIP3   OH267015   5.742   3.328   4.943 -0.0327 -0.1350 -0.1552
15175TIP3    H167016   5.816   3.303   4.888  0.1775  0.3808 -0.1153
15175TIP3    H267017   5.740   3.262   5.013  1.9763  1.2667  1.2882
15176TIP3   OH267018   0.818   0.406   2.163 -0.4974 -0.3380 -0.0756
15176TIP3    H167019   0.799   0.316   2.189 -0.5197  0.0547  1.3223
15176TIP3    H267020   0.896   0.429   2.212 -0.1798  0.2299 -0.8392
15177TIP3   OH267021   4.839   6.016   0.793 -0.2414  0.2629  0.3493
15177TIP3    H167022   4.824   5.993   0.885 -1.4791 -1.4419 -0.2658
15177TIP3    H267023   4.888   5.942   0.757 -1.8413 -0.1845 -0.9604
15178TIP3   OH267024   5.333   4.843   4.527 -0.5020  0.3355  0.3506
15178TIP3    H167025   5.312   4.814   4.615 -0.0056  0.7982  0.6240
15178TIP3    H267026   5.421   4.810   4.511 -1.0139 -0.7078 -0.4015
15179TIP3   OH267027   0.392   3.253  12.183 -0.2881 -0.6837 -0.4493
15179TIP3    H167028   0.439   3.176  12.215 -0.5602 -1.4899 -1.9776
15179TIP3    H267029   0.453   3.325  12.198 -0.9264 -0.7792  3.1663
15180TIP3   OH267030   3.173   3.386  14.121  0.0338 -0.4698  0.4001
15180TIP3    H167031   3.209   3.460  14.169  0.8531  0.7149 -1.9371
15180TIP3    H267032   3.089   3.368  14.163  0.8451  0.3457  2.4031
15181TIP3   OH267033   1.843   1.561   6.133 -0.1063  0.5078  0.5195
15181TIP3    H167034   1.771   1.535   6.189 -0.5187  1.2620  0.3482
15181TIP3    H267035   1.859   1.486   6.077 -0.1523  0.0071  1.1800
15182TIP3   OH267036   2.267   6.081   0.426 -0.0446 -0.2622 -0.0137
15182TIP3    H167037   2.323   6.036   0.362  0.9842 -0.8341  1.2627
15182TIP3    H267038   2.184   6.035   0.421 -0.6179  0.9310 -2.3151
15183TIP3   OH267039   1.800   6.801  12.187 -0.2948  0.6557 -0.1191
15183TIP3    H167040   1.825   6.713  12.157 -1.1358  1.3120 -2.8771
15183TIP3    H267041   1.853   6.815  12.265  0.0380 -2.2114  0.2359
15184TIP3   OH267042   4.162   5.374   3.909 -0.7386 -0.0955 -0.3547
15184TIP3    H167043   4.154   5.465   3.939 -0.7596 -0.0719 -0.4309
15184TIP3    H267044   4.170   5.381   3.814  3.7348  0.0987 -0.0732
15185TIP3   OH267045   0.204   1.676   0.791 -0.5412  0.1904 -0.6439
15185TIP3    H167046   0.247   1.753   0.753 -0.9049  0.8088  0.1875
15185TIP3    H267047   0.269   1.606   0.783  0.4456  0.9988  0.1330
15186TIP3   OH267048   2.088   3.236   5.978 -0.2408  0.1260 -0.2494
15186TIP3    H167049   2.016   3.226   6.041  0.7615  1.3798  1.1272
15186TIP3    H267050   2.166   3.248   6.032  0.7858  0.2631 -1.7339
15187TIP3   OH267051   1.119   1.647   3.909  0.2461  0.1110  0.3797
15187TIP3    H167052   1.063   1.642   3.831  1.3155 -1.4243 -0.3345
15187TIP3    H267053   1.062   1.621   3.981 -0.6612  1.1841  0.0580
15188TIP3   OH267054   6.454   1.026   1.637  0.1024 -0.0328  0.3578
15188TIP3    H167055   6.382   0.981   1.592  1.2134  0.0296 -1.5419
15188TIP3    H267056   6.463   1.109   1.591  0.9910  0.2259  0.9814
15189TIP3   OH267057   5.438   0.627   2.082 -0.3752 -0.0124 -0.2100
15189TIP3    H167058   5.400   0.554   2.130  1.2389  0.0368  1.1907
15189TIP3    H267059   5.448   0.697   2.147 -0.3343  0.8779 -1.1424
15190TIP3   OH267060   4.811   2.367   1.310 -0.0105 -0.0559 -0.3643
15190TIP3    H167061   4.737   2.316   1.278  0.6540 -0.8122 -0.7382
15190TIP3    H267062   4.780   2.457   1.313 -0.2850 -0.0417 -2.5818
15191TIP3   OH267063   6.196   5.412  14.015  0.3708  0.2617 -0.3590
15191TIP3    H167064   6.242   5.425  13.933  0.6438 -0.7354 -0.3761
15191TIP3    H267065   6.220   5.488  14.069  1.0631  0.3607 -0.8006
15192TIP3   OH267066   5.271   4.795   3.571 -0.1713  0.3605 -0.1020
15192TIP3    H167067   5.243   4.791   3.663 -0.4323  1.3673 -0.1419
15192TIP3    H267068   5.367   4.797   3.576 -0.2074  4.5664  0.3275
15193TIP3   OH267069   6.811   2.063  15.439 -0.4347 -0.1763  0.6797
15193TIP3    H167070   6.906   2.070  15.451 -0.3866  0.5399 -0.0502
15193TIP3    H267071   6.774   2.121  15.506 -0.3389 -0.0578  0.6287
15194TIP3   OH267072   0.535   3.158   4.307  0.3608 -0.2973  0.8291
15194TIP3    H167073   0.521   3.169   4.213 -0.2184 -0.7845  0.8573
15194TIP3    H267074   0.487   3.078   4.330 -0.5603  0.5189  1.7857
15195TIP3   OH267075   1.484   5.095   1.688 -0.2806  0.4216 -0.0642
15195TIP3    H167076   1.525   5.024   1.737 -2.5442  0.1206  1.4444
15195TIP3    H267077   1.512   5.080   1.597 -0.7550 -2.4427  0.2190
15196TIP3   OH267078   3.287   2.823   4.510 -0.1514 -0.5663 -0.4282
15196TIP3    H167079   3.378   2.791   4.507 -0.8858 -2.7612 -0.3087
15196TIP3    H267080   3.267   2.827   4.604 -0.2899 -0.4107 -0.4650
15197TIP3   OH267081   1.459   0.585   5.220 -0.0295 -0.1475  0.4850
15197TIP3    H167082   1.407   0.661   5.195  0.8819 -0.3308 -2.0443
15197TIP3    H267083   1.405   0.509   5.199  0.9273 -0.3155 -1.4087
15198TIP3   OH267084   2.837   0.088   1.160  0.0190  0.6873  0.2733
15198TIP3    H167085   2.748   0.123   1.151  0.2407  1.7798  1.9976
15198TIP3    H267086   2.874   0.092   1.072 -1.6136  0.2952 -0.4417
15199TIP3   OH267087   5.130   4.833  15.015  0.6659 -0.6417  0.2956
15199TIP3    H167088   5.216   4.841  15.058  0.3807 -0.8759  0.9116
15199TIP3    H267089   5.073   4.798  15.083  0.1551 -0.7978 -0.2167
15200TIP3   OH267090   5.637   0.970  10.800 -0.6348 -0.4427  0.2455
15200TIP3    H167091   5.629   0.995  10.708 -0.5865  1.0585  0.6373
15200TIP3    H267092   5.698   1.034  10.837 -2.0154  0.0573  1.7235
15201TIP3   OH267093   4.188   3.384  14.024  0.2788  0.1080 -0.7261
15201TIP3    H167094   4.221   3.390  13.935 -0.1973  0.6588 -0.8699
15201TIP3    H267095   4.170   3.291  14.038  1.0501 -0.0753 -0.9443
15202TIP3   OH267096   2.225   1.729   1.520 -0.3540 -0.7263  0.4174
15202TIP3    H167097   2.251   1.801   1.578 -0.8427  0.4475 -0.7921
15202TIP3    H267098   2.163   1.677   1.572 -3.3347  2.1468 -0.0887
15203TIP3   OH267099   5.993   5.135   4.821  0.7437 -0.5677 -0.0495
15203TIP3    H167100   6.060   5.204   4.824  0.2097  0.0336 -1.5050
15203TIP3    H267101   5.921   5.174   4.772 -0.1648 -1.6589  0.4055
15204TIP3   OH267102   3.282   0.481   0.016 -0.0907 -0.3033  0.1401
15204TIP3    H167103   3.261   0.403  -0.037 -1.3220 -0.6455  1.1163
15204TIP3    H267104   3.293   0.551  -0.048  1.8726 -1.4355 -0.8293
15205TIP3   OH267105   1.586   1.073   2.177  0.0963 -0.8416 -0.3511
15205TIP3    H167106   1.494   1.100   2.179 -0.6043 -2.9701 -1.6905
15205TIP3    H267107   1.632   1.149   2.141 -0.8609  0.8704  1.9115
15206TIP3   OH267108   0.405   4.564   3.891 -0.6684  0.1805 -0.2731
15206TIP3    H167109   0.482   4.612   3.862 -0.6334 -0.3766 -1.0900
15206TIP3    H267110   0.373   4.519   3.813 -0.7276 -1.1085  0.4780
15207TIP3   OH267111   2.154   3.296  14.464  0.3120 -0.2331  0.3011
15207TIP3    H167112   2.087   3.295  14.396  0.6904 -0.4974 -0.0782
15207TIP3    H267113   2.141   3.379  14.510  0.7438  0.4771 -0.8113
15208TIP3   OH267114   1.070   4.541  16.382 -0.5503 -0.4600  0.1643
15208TIP3    H167115   1.122   4.555  16.461 -0.8729  0.3881  0.2330
15208TIP3    H267116   1.132   4.554  16.310 -0.4865 -0.2626  0.2566
15209TIP3   OH267117   0.938   6.490   5.128  0.0952 -0.1720 -0.0202
15209TIP3    H167118   0.881   6.422   5.164  1.3860 -0.5871  1.2948
15209TIP3    H267119   1.022   6.445   5.114  0.0875  0.4148 -1.9812
15210TIP3   OH267120   3.563   2.636  14.077  0.0102  0.4510 -0.1571
15210TIP3    H167121   3.537   2.703  14.013 -0.1619  0.1811 -0.3709
15210TIP3    H267122   3.481   2.590  14.097 -0.0300  0.8411  0.6176
15211TIP3   OH267123   6.410   5.336   4.844 -0.0640  0.4986  0.4584
15211TIP3    H167124   6.423   5.417   4.796  1.7214 -0.0819 -0.0790
15211TIP3    H267125   6.334   5.295   4.802  1.0988  0.2986 -1.4996
15212TIP3   OH267126   5.846   4.208  11.954  0.3629  0.0486 -0.0283
15212TIP3    H167127   5.754   4.181  11.946  0.7927 -1.6143  0.4814
15212TIP3    H267128   5.860   4.215  12.048  0.5496  1.1318 -0.1238
15213TIP3   OH267129   3.611   1.452  12.982  0.5087  0.1045 -0.1587
15213TIP3    H167130   3.599   1.447  13.077  1.8955  1.8841  0.1329
15213TIP3    H267131   3.526   1.428  12.945 -0.3327  0.4240  1.5435
15214TIP3   OH267132   5.961   1.190  14.111  0.5000  0.3005 -0.2703
15214TIP3    H167133   5.929   1.100  14.102  0.8979  0.2196 -0.9468
15214TIP3    H267134   5.954   1.227  14.023  0.1287  1.0068  0.0540
15215TIP3   OH267135   2.243   3.393   1.634  0.3025  0.3066 -0.5370
15215TIP3    H167136   2.176   3.404   1.567  0.0183  0.5994 -0.2061
15215TIP3    H267137   2.198   3.414   1.716  0.3613 -1.1125 -0.1440
15216TIP3   OH267138   0.018   2.231  14.895 -0.0961  0.5115 -0.1216
15216TIP3    H167139   0.036   2.158  14.835  1.1844  0.4967  0.2680
15216TIP3    H267140  -0.073   2.217  14.923  0.1126 -0.9090 -0.0931
15217TIP3   OH267141   2.020   1.430  16.110  0.1403  0.0061 -0.3801
15217TIP3    H167142   2.041   1.502  16.050 -0.2720  0.5772  0.1438
15217TIP3    H267143   2.090   1.431  16.175 -0.0414  0.1552 -0.1841
15218TIP3   OH267144   2.113   1.418  16.546 -0.2345 -0.1629  0.4957
15218TIP3    H167145   2.199   1.377  16.543 -0.5270 -0.6476 -1.4914
15218TIP3    H267146   2.122   1.498  16.494 -1.1736 -0.5790 -0.3142
15219TIP3   OH267147   2.485   5.795  12.484 -0.1506  0.1195 -0.6676
15219TIP3    H167148   2.515   5.842  12.561  2.3086 -0.0431 -1.4955
15219TIP3    H267149   2.404   5.752  12.512  0.1977  0.8387  1.5182
15220TIP3   OH267150   0.669   2.734   6.250 -0.2971  0.5329 -0.2083
15220TIP3    H167151   0.754   2.736   6.205 -0.8814  2.8003 -1.3242
15220TIP3    H267152   0.675   2.803   6.316 -0.4052 -0.9742  1.3806
15221TIP3   OH267153   2.001   3.747   0.542  0.4918  0.1837 -0.2857
15221TIP3    H167154   1.969   3.662   0.512 -1.0202  0.7440 -0.2945
15221TIP3    H267155   1.927   3.786   0.590  0.3687  2.4554 -2.2169
15222TIP3   OH267156   0.251   6.661  12.853 -0.1022  0.3379  0.2627
15222TIP3    H167157   0.211   6.747  12.852  1.9386  1.3172  0.2346
15222TIP3    H267158   0.189   6.606  12.900 -1.6066  1.7219 -0.0763
15223TIP3   OH267159   2.963   4.759   2.198  0.3135  0.5456  0.7124
15223TIP3    H167160   2.993   4.689   2.140 -1.4444 -0.5541  1.0752
15223TIP3    H267161   3.027   4.761   2.269  0.6862 -0.3127  0.4021
15224TIP3   OH267162   1.413   0.165  12.772  0.4630 -0.6520 -0.4853
15224TIP3    H167163   1.443   0.228  12.838  0.1045 -0.7729 -0.2050
15224TIP3    H267164   1.486   0.104  12.762  0.4982 -0.6631 -0.1621
15225TIP3   OH267165   5.331   0.455  17.086  0.2335  0.0924 -0.2399
15225TIP3    H167166   5.330   0.400  17.007 -3.4106  1.8247 -1.4999
15225TIP3    H267167   5.273   0.410  17.148  2.0554 -0.5782  1.0192
15226TIP3   OH267168   3.393   0.145  12.708  0.6432 -0.4019  0.0773
15226TIP3    H167169   3.388   0.064  12.758 -0.2655 -0.5697 -0.2789
15226TIP3    H267170   3.371   0.119  12.618 -0.3883  0.3760  0.1059
15227TIP3   OH267171   6.328   0.913   3.953  0.4239 -0.0415  0.0390
15227TIP3    H167172   6.288   0.900   4.039  0.4457  0.7006  0.1619
15227TIP3    H267173   6.417   0.877   3.963  0.4457  0.0924  0.3405
15228TIP3   OH267174   3.616   0.502   1.569  0.1944 -0.0964  0.1188
15228TIP3    H167175   3.583   0.576   1.518 -0.1994 -1.4229 -1.5878
15228TIP3    H267176   3.709   0.498   1.549  0.1061 -0.4074 -0.2336
15229TIP3   OH267177   2.471   2.374   5.766 -0.4248 -0.2944  0.5681
15229TIP3    H167178   2.502   2.463   5.751  0.9459 -0.7463  0.6004
15229TIP3    H267179   2.399   2.383   5.828 -0.2546  0.7843  0.6183
15230TIP3   OH267180   3.688   1.594   3.701  0.6369  0.6809 -0.7074
15230TIP3    H167181   3.607   1.637   3.728  0.3836  0.0971 -0.5313
15230TIP3    H267182   3.687   1.510   3.747  1.1806  0.5319 -0.9654
15231TIP3   OH267183   1.337   5.683  11.457 -0.1013 -0.2775  0.1388
15231TIP3    H167184   1.304   5.649  11.373 -1.2578 -0.9514  0.8461
15231TIP3    H267185   1.426   5.649  11.463  0.2851  0.4566 -1.1919
15232TIP3   OH267186   0.165   4.034  15.741 -0.6733  0.3114  0.0992
15232TIP3    H167187   0.210   3.997  15.665  0.6378  2.4691 -0.1980
15232TIP3    H267188   0.186   4.127  15.738  1.4308  0.0840  4.4718
15233TIP3   OH267189   0.663   4.465   6.267  0.4440 -0.3485  0.2377
15233TIP3    H167190   0.723   4.391   6.268  0.5601 -0.2461  0.8785
15233TIP3    H267191   0.719   4.542   6.261  0.3886 -0.2451  0.9962
15234TIP3   OH267192   1.775   1.804   3.831  0.2549  0.1375  0.5549
15234TIP3    H167193   1.706   1.738   3.826  2.4872 -2.1300 -2.8226
15234TIP3    H267194   1.731   1.887   3.812 -2.0636 -0.7975  1.7084
15235TIP3   OH267195   3.933   5.174  14.262  0.5837 -0.7861  0.1750
15235TIP3    H167196   4.027   5.154  14.263  0.5468 -0.9030  1.6959
15235TIP3    H267197   3.905   5.149  14.174  1.5133 -2.9644  0.4688
15236TIP3   OH267198   2.442   2.799   0.305  0.7618 -0.0148 -0.0428
15236TIP3    H167199   2.461   2.882   0.347  1.2673  0.1822 -0.6426
15236TIP3    H267200   2.368   2.816   0.248  1.0346  0.0947 -0.3675
15237TIP3   OH267201   0.513   3.783   0.127  0.2501 -0.4750  1.0075
15237TIP3    H167202   0.460   3.711   0.092  1.2585 -0.9654  0.4414
15237TIP3    H267203   0.601   3.766   0.093 -0.2057  3.0557 -2.2348
15238TIP3   OH267204   6.468   0.804  11.766  0.0377 -0.1632  0.5469
15238TIP3    H167205   6.515   0.841  11.841  0.8249  0.7321 -0.3685
15238TIP3    H267206   6.515   0.839  11.690 -0.7415 -1.0788 -0.3530
15239TIP3   OH267207   0.863   5.044  14.600  0.4097 -0.2931 -0.4921
15239TIP3    H167208   0.837   4.974  14.539 -0.8061  0.4770 -0.8861
15239TIP3    H267209   0.915   5.103  14.546  2.9877 -1.8013  0.2828
15240TIP3   OH267210   5.450   5.869  11.780  0.1604 -0.6782 -0.7097
15240TIP3    H167211   5.521   5.877  11.716  0.2755 -0.1111 -0.5165
15240TIP3    H267212   5.478   5.923  11.854 -0.4782 -0.4570 -0.6275
15241TIP3   OH267213   2.554   6.625  11.879  0.0678 -0.1575 -0.6694
15241TIP3    H167214   2.520   6.556  11.935  0.2951 -0.6691 -1.1502
15241TIP3    H267215   2.567   6.583  11.794 -1.5897  0.9331 -1.5016
15242TIP3   OH267216   5.816   2.947  12.685 -0.8755  0.1902  0.4768
15242TIP3    H167217   5.752   2.878  12.670  1.0297 -1.2480 -1.1274
15242TIP3    H267218   5.818   2.996  12.603  0.7270 -0.3196  0.2024
15243TIP3   OH267219   1.161   5.887  11.555  0.0916  0.5743 -0.2466
15243TIP3    H167220   1.168   5.831  11.632 -1.1042  3.7010  2.2678
15243TIP3    H267221   1.244   5.874  11.508  0.5819 -1.8536  1.2078
15244TIP3   OH267222   4.643   1.834  16.351  0.0788  0.5675 -0.4201
15244TIP3    H167223   4.691   1.917  16.351 -0.5104  0.9183 -2.2999
15244TIP3    H267224   4.568   1.849  16.294 -3.4934  0.6549  3.9982
15245TIP3   OH267225   0.748   4.517  14.785  0.3582 -0.1014  0.3141
15245TIP3    H167226   0.827   4.534  14.837  0.7857  3.4767 -1.3795
15245TIP3    H267227   0.689   4.590  14.805 -1.1540 -0.9150 -1.0205
15246TIP3   OH267228   6.483   4.912  14.239  0.0557 -0.1544  0.2118
15246TIP3    H167229   6.413   4.976  14.251 -0.6923 -1.1268  1.1550
15246TIP3    H267230   6.455   4.858  14.165 -0.2209 -0.5719  0.6185
15247TIP3   OH267231   4.266   5.365   3.584 -0.1696 -0.3119  0.0906
15247TIP3    H167232   4.334   5.318   3.631 -0.1428  0.6232  1.0272
15247TIP3    H267233   4.256   5.319   3.501 -0.8406 -2.5534  1.3776
15248TIP3   OH267234   4.104   2.212  13.755 -0.1816  0.2860 -0.6081
15248TIP3    H167235   4.151   2.280  13.708 -1.4964  0.3577 -1.8671
15248TIP3    H267236   4.012   2.236  13.746 -0.8314 -2.6298 -2.7145
15249TIP3   OH267237   1.936   4.444  16.921  0.0890 -0.1201 -0.3465
15249TIP3    H167238   1.941   4.402  17.008 -1.4383  1.0505  0.3129
15249TIP3    H267239   2.019   4.493  16.914  0.2021 -0.1838  0.4709
15250TIP3   OH267240   5.741   1.817  11.011 -0.8521  0.3244 -0.4129
15250TIP3    H167241   5.800   1.885  10.977 -0.0943 -0.5774 -0.9219
15250TIP3    H267242   5.723   1.761  10.936 -0.1887 -0.9676  0.3832
15251TIP3   OH267243   5.242   3.314  13.449  0.3804 -0.3795  0.3461
15251TIP3    H167244   5.218   3.251  13.517  2.2941 -0.7384  0.7011
15251TIP3    H267245   5.189   3.288  13.373  1.0046 -2.2950  0.5468
15252TIP3   OH267246   1.986   2.127  15.439  0.5850  0.6613  0.3605
15252TIP3    H167247   2.049   2.078  15.385 -0.4514  0.4729 -0.6988
15252TIP3    H267248   1.945   2.060  15.494 -0.1344  0.4770 -0.3940
15253TIP3   OH267249   3.186   2.540  14.825 -0.3090  0.3312  0.0314
15253TIP3    H167250   3.097   2.542  14.789 -0.6401 -1.3703  0.7088
15253TIP3    H267251   3.174   2.534  14.920  0.5580  1.9029  0.2690
15254TIP3   OH267252   2.193   4.640   1.733  0.0617 -0.2781  0.0308
15254TIP3    H167253   2.203   4.676   1.645 -2.5094 -2.0948 -1.0878
15254TIP3    H267254   2.166   4.714   1.787 -1.2416  0.2662 -1.3528
15255TIP3   OH267255   5.132   5.227  12.829  0.2842 -0.2820  0.0700
15255TIP3    H167256   5.095   5.146  12.863  0.1304 -1.5850 -3.0302
15255TIP3    H267257   5.120   5.291  12.899 -2.7272 -2.0698  1.2596
15256TIP3   OH267258   2.732   6.566   4.494 -0.0000 -0.3018 -0.1427
15256TIP3    H167259   2.778   6.626   4.436 -0.2259  1.0595  1.0585
15256TIP3    H267260   2.687   6.623   4.556 -1.3862 -1.6805  0.1382
15257TIP3   OH267261   3.052   6.740   1.839 -0.3520  0.2804 -0.0484
15257TIP3    H167262   3.024   6.711   1.926 -2.4986  0.1799 -0.7610
15257TIP3    H267263   3.100   6.665   1.803 -0.9338 -0.2939  0.3731
15258TIP3   OH267264   3.238   1.429   5.217  0.0618  0.1304 -0.2396
15258TIP3    H167265   3.183   1.352   5.203  2.3911 -1.7537  0.6345
15258TIP3    H267266   3.253   1.431   5.312  0.3334  1.4493 -0.3042
15259TIP3   OH267267   0.972   1.025   0.527  0.0909 -0.4515  0.0958
15259TIP3    H167268   1.052   1.072   0.549 -1.2311  1.4698  0.9698
15259TIP3    H267269   0.917   1.032   0.605 -0.6024 -2.5227 -0.1617
15260TIP3   OH267270   5.454   1.760  16.715 -0.1654 -0.3152 -0.1537
15260TIP3    H167271   5.524   1.696  16.701 -2.4654 -2.3796 -2.8769
15260TIP3    H267272   5.475   1.831  16.654  1.0079  0.3696  1.0228
15261TIP3   OH267273   0.422   3.480   0.712  0.2823  0.1091 -0.1148
15261TIP3    H167274   0.380   3.562   0.736  1.5491  0.2890  1.6214
15261TIP3    H267275   0.493   3.506   0.653  1.7500  0.4764  1.7684
15262TIP3   OH267276   4.857   0.334  16.583  0.3933  0.2589  0.3917
15262TIP3    H167277   4.793   0.350  16.515  1.2409  1.1283 -0.2127
15262TIP3    H267278   4.819   0.372  16.662 -0.9221 -1.4124  0.5871
15263TIP3   OH267279   2.988   5.509  10.654  0.9813 -0.1308 -0.6276
15263TIP3    H167280   3.082   5.495  10.646  1.2300  0.7907  0.5684
15263TIP3    H267281   2.971   5.508  10.749  0.2339  2.4099 -0.6936
15264TIP3   OH267282   4.857   0.401   1.247 -0.2604  0.4158 -0.6173
15264TIP3    H167283   4.945   0.429   1.274 -0.9390 -0.4478  2.6148
15264TIP3    H267284   4.798   0.453   1.301 -1.6895 -1.0323 -0.7657
15265TIP3   OH267285   5.253   0.588   1.144  0.9459 -0.1046 -0.6226
15265TIP3    H167286   5.176   0.611   1.092 -0.2679  2.5661  2.1422
15265TIP3    H267287   5.257   0.493   1.141 -3.1558 -0.4128  0.0097
15266TIP3   OH267288   6.287   0.234  12.566  0.1603  0.0892  0.8306
15266TIP3    H167289   6.364   0.226  12.621  0.5362  0.9352  0.4461
15266TIP3    H267290   6.234   0.301  12.609 -0.6813 -0.9671  1.4551
15267TIP3   OH267291   0.654   1.665  16.397  0.2126  0.5016 -0.1984
15267TIP3    H167292   0.732   1.685  16.449  0.2409 -0.0039 -0.0428
15267TIP3    H267293   0.659   1.571  16.382 -0.7318  0.3599  0.4009
15268TIP3   OH267294   5.454   4.463  12.298 -0.0076  0.2733 -0.0262
15268TIP3    H167295   5.419   4.552  12.305  0.2374  0.2154  1.9391
15268TIP3    H267296   5.377   4.409  12.280 -0.1676  0.8433 -1.1442
15269TIP3   OH267297   4.880   2.396   3.457  0.6824 -0.1447  0.5338
15269TIP3    H167298   4.840   2.321   3.501  1.9185 -0.7682  0.6360
15269TIP3    H267299   4.966   2.363   3.429  2.2356  1.9037  2.6761
15270TIP3   OH267300   4.471   0.295  14.436  0.2444  0.1470 -0.1417
15270TIP3    H167301   4.515   0.333  14.359 -1.6595  1.8139 -0.4482
15270TIP3    H267302   4.390   0.258  14.401  0.0488 -0.3812  0.8544
15271TIP3   OH267303   0.335   1.237   1.788 -0.1533 -0.3545 -0.7255
15271TIP3    H167304   0.415   1.256   1.739  1.3599 -2.8748  0.6380
15271TIP3    H267305   0.314   1.318   1.833  1.7364  0.3264 -1.0052
15272TIP3   OH267306   5.393   2.549  14.066  0.6117 -0.5114  0.0294
15272TIP3    H167307   5.379   2.547  14.161 -1.1088 -0.3775 -0.2167
15272TIP3    H267308   5.370   2.638  14.040  0.1941 -0.8185 -0.6492
15273TIP3   OH267309   2.539   2.687   0.067  0.1521 -0.4767 -0.5435
15273TIP3    H167310   2.524   2.714   0.157  0.5996 -1.3490 -0.2009
15273TIP3    H267311   2.463   2.720   0.019 -0.1235 -0.0689  0.1655
15274TIP3   OH267312   2.200   5.866  13.840 -0.0664 -0.0003  0.9086
15274TIP3    H167313   2.107   5.859  13.816 -0.5667  2.2536  2.0147
15274TIP3    H267314   2.220   5.783  13.883 -1.2441 -0.9832 -0.3802
15275TIP3   OH267315   1.933   2.994   5.575 -0.3632  0.3366  0.2669
15275TIP3    H167316   1.890   3.047   5.642 -1.9712 -0.0399 -0.4168
15275TIP3    H267317   2.026   2.997   5.596 -0.9457 -0.8143  3.2494
15276TIP3   OH267318   4.020   5.449   3.541  0.0007  0.0083 -0.7958
15276TIP3    H167319   3.990   5.376   3.488  1.4289  0.0195 -1.6645
15276TIP3    H267320   4.107   5.423   3.571  0.0829  0.9016 -0.2384
15277TIP3   OH267321   5.160   5.095   1.705  0.2356 -0.4484  0.2172
15277TIP3    H167322   5.101   5.046   1.648 -0.5601  1.0751 -0.3012
15277TIP3    H267323   5.248   5.073   1.672 -0.1096 -1.4119 -0.0855
15278TIP3   OH267324   3.588   5.653  14.298 -0.1671 -0.2665 -0.6762
15278TIP3    H167325   3.558   5.606  14.376  2.9156  0.5222  1.0906
15278TIP3    H267326   3.650   5.592  14.257 -1.4660 -0.5112 -2.3366
15279TIP3   OH267327   0.344   0.696   7.056 -0.6353  0.3616  0.0610
15279TIP3    H167328   0.257   0.699   7.015 -1.2322  1.7817  1.3861
15279TIP3    H267329   0.365   0.602   7.058 -2.1304 -0.0072 -0.2997
15280TIP3   OH267330   0.643   3.845  11.031 -0.1691 -0.3643 -0.1473
15280TIP3    H167331   0.582   3.773  11.047  1.3395 -1.4176  1.0758
15280TIP3    H267332   0.628   3.906  11.103 -1.6406  0.7266 -1.3315
15281TIP3   OH267333   2.223   1.129   2.607  0.4788 -0.1840  0.2738
15281TIP3    H167334   2.298   1.124   2.666 -0.3574 -1.4680  1.2571
15281TIP3    H267335   2.253   1.086   2.526  0.8024 -0.6839  0.6580
15282TIP3   OH267336   5.561   5.598  14.322 -0.0054  0.0394  0.2307
15282TIP3    H167337   5.541   5.548  14.401  2.3635 -0.2232  0.7195
15282TIP3    H267338   5.644   5.641  14.342  1.1871 -0.8906 -2.4976
15283TIP3   OH267339   4.359   4.283  15.685  0.3036 -0.0222 -0.2863
15283TIP3    H167340   4.441   4.322  15.715  1.1186 -1.7896 -0.1472
15283TIP3    H267341   4.386   4.208  15.632 -1.2120 -1.9862  1.6277
15284TIP3   OH267342   4.361   1.796   2.799 -0.0495  0.0426 -0.3531
15284TIP3    H167343   4.330   1.821   2.712  0.0592  0.8955 -0.1536
15284TIP3    H267344   4.282   1.769   2.846 -0.4021  1.3838 -0.1224
15285TIP3   OH267345   4.475   1.145  14.001  0.9475  0.7735  0.1245
15285TIP3    H167346   4.459   1.215  13.938 -0.0935  0.4885  0.0649
15285TIP3    H267347   4.427   1.172  14.080 -0.3340 -0.3665 -0.2435
15286TIP3   OH267348   4.875   4.633   4.298  0.0552  0.4000  0.4485
15286TIP3    H167349   4.851   4.725   4.312 -2.3707  0.0850 -1.2324
15286TIP3    H267350   4.792   4.586   4.307  0.8028 -1.2937 -1.2344
15287TIP3   OH267351   1.108   5.186   3.515 -0.4147 -0.8959 -0.4320
15287TIP3    H167352   1.146   5.272   3.496 -0.4447 -0.7724  0.0788
15287TIP3    H267353   1.115   5.138   3.432 -0.2844 -0.4440 -0.6817
15288TIP3   OH267354   2.360   6.658   1.257 -0.7504 -0.5288 -0.0635
15288TIP3    H167355   2.449   6.629   1.237 -0.3347  0.0297  0.9626
15288TIP3    H267356   2.361   6.752   1.241 -1.9277 -0.9131 -2.7537
15289TIP3   OH267357   3.421   2.484  11.996  0.1403 -0.8546  0.3333
15289TIP3    H167358   3.481   2.470  12.069  0.6339 -1.0189 -0.0950
15289TIP3    H267359   3.446   2.418  11.932  0.5448  0.0905 -0.5026
15290TIP3   OH267360   5.343   5.095   2.807  0.1250 -0.2247 -0.4991
15290TIP3    H167361   5.254   5.077   2.775 -0.3798 -0.9508  1.2485
15290TIP3    H267362   5.388   5.011   2.796  0.8793  0.3848 -2.2225
15291TIP3   OH267363   5.383   2.688  16.299 -0.0665  0.3092  0.4294
15291TIP3    H167364   5.450   2.719  16.361 -1.4139  0.7754  1.6671
15291TIP3    H267365   5.313   2.753  16.305  0.4160  1.2142 -2.7572
15292TIP3   OH267366   0.408   0.498  15.061  0.3089 -0.8677 -0.4940
15292TIP3    H167367   0.350   0.532  15.130  1.4384  0.8170 -0.3642
15292TIP3    H267368   0.490   0.544  15.074  1.2537 -2.2198 -1.5756
15293TIP3   OH267369   2.768   3.514   2.061 -0.1095  0.1513  0.1759
15293TIP3    H167370   2.768   3.517   2.156 -0.9374  1.2993  0.1546
15293TIP3    H267371   2.796   3.602   2.034  1.0107 -0.4465 -0.6403
15294TIP3   OH267372   3.036   3.319  12.677 -0.3995  0.4930 -0.0044
15294TIP3    H167373   2.957   3.373  12.682 -0.1975  0.9394 -1.5212
15294TIP3    H267374   3.105   3.380  12.649  0.4996  0.1182  1.3410
15295TIP3   OH267375   3.503   5.025   0.884 -0.3398  0.3487  0.5820
15295TIP3    H167376   3.552   5.007   0.804  2.2447  3.6577  1.3043
15295TIP3    H267377   3.417   4.987   0.869  0.6607 -0.6557 -3.0194
15296TIP3   OH267378   1.980   2.075  11.700 -0.5551  0.2195  0.2282
15296TIP3    H167379   1.996   2.033  11.784  1.9394 -3.0792 -1.7702
15296TIP3    H267380   1.885   2.075  11.690 -0.7899 -0.8640  2.2723
15297TIP3   OH267381   3.555   1.723   3.183 -0.0252 -0.2542 -0.0305
15297TIP3    H167382   3.483   1.703   3.124  1.4239 -1.2271 -1.5320
15297TIP3    H267383   3.623   1.759   3.126  1.1712 -0.6203  1.1355
15298TIP3   OH267384   0.299   4.541   3.184  0.3668 -0.2112  0.3041
15298TIP3    H167385   0.272   4.563   3.095  0.2237  0.6371  0.5485
15298TIP3    H267386   0.390   4.514   3.175 -0.0676 -1.5176 -0.2935
15299TIP3   OH267387   3.210   1.646  10.592  0.1169 -0.3257  0.3219
15299TIP3    H167388   3.127   1.661  10.547  0.7369 -1.2281 -1.1784
15299TIP3    H267389   3.277   1.664  10.525  1.1633  1.0629  1.7034
15300TIP3   OH267390   1.366   3.657  15.877  0.8758  0.6705  0.0017
15300TIP3    H167391   1.308   3.593  15.837  3.6652 -1.2637 -1.1187
15300TIP3    H267392   1.308   3.723  15.914 -2.0009 -1.3360 -0.8092
15301TIP3   OH267393   2.770   2.160  15.784  0.2463 -0.7540  0.3101
15301TIP3    H167394   2.696   2.179  15.727  2.2965  0.8514 -1.9456
15301TIP3    H267395   2.812   2.083  15.744  0.5788 -0.8089  0.7572
15302TIP3   OH267396   4.840   4.232   5.302 -0.2301  0.3541 -0.1583
15302TIP3    H167397   4.874   4.305   5.250 -0.6392  0.2576 -0.5692
15302TIP3    H267398   4.771   4.270   5.356 -0.0126  0.3948  0.0901
15303TIP3   OH267399   4.920   2.970   6.045 -0.4176 -0.5186 -0.2178
15303TIP3    H167400   4.996   2.918   6.072  0.8598  1.8180  0.8733
15303TIP3    H267401   4.845   2.918   6.072  0.8145 -2.0397  0.3661
15304TIP3   OH267402   1.229   2.107  10.987  0.4600  0.4074 -0.4144
15304TIP3    H167403   1.298   2.045  10.963  2.6179  2.0904  1.2878
15304TIP3    H267404   1.211   2.154  10.905  3.0535  1.5687 -0.3790
15305TIP3   OH267405   1.794   3.422  11.238 -0.2126  0.1240  0.0142
15305TIP3    H167406   1.768   3.493  11.178  0.7725  1.4663  1.1475
15305TIP3    H267407   1.786   3.343  11.185 -0.7761  1.1273 -1.4582
15306TIP3   OH267408   0.406   0.756   6.160 -0.3787  0.2247  0.3400
15306TIP3    H167409   0.493   0.731   6.191 -0.1855 -0.8119 -0.9842
15306TIP3    H267410   0.345   0.723   6.226 -0.0628 -3.0030 -0.8978
15307TIP3   OH267411   0.259   6.114   5.927  0.4427  0.0090  0.3181
15307TIP3    H167412   0.187   6.177   5.919  0.4510 -0.3012 -2.8249
15307TIP3    H267413   0.325   6.147   5.866  2.1801 -0.7516  1.7891
15308TIP3   OH267414   4.680   3.699  12.111  0.3277  0.0570 -0.0843
15308TIP3    H167415   4.756   3.641  12.106  0.9510  0.7863  0.7875
15308TIP3    H267416   4.668   3.715  12.205 -0.4817  0.4940 -0.2582
15309TIP3   OH267417   3.467   3.264   7.117 -0.2771  0.9419  0.0020
15309TIP3    H167418   3.551   3.221   7.135 -0.4754  1.1991  1.5928
15309TIP3    H267419   3.409   3.193   7.089 -0.3190  0.3190  1.6356
15310TIP3   OH267420   5.738   4.599  13.470  0.3588  0.8778  0.1013
15310TIP3    H167421   5.743   4.649  13.388  0.2549  0.1608 -0.3490
15310TIP3    H267422   5.822   4.616  13.513  0.9179  0.2850 -0.7348
15311TIP3   OH267423   4.210   2.386   0.072  0.3520 -0.0474 -0.0316
15311TIP3    H167424   4.233   2.294   0.060 -1.0236 -0.7940  2.7204
15311TIP3    H267425   4.293   2.428   0.095  0.7668 -0.8598 -0.0119
15312TIP3   OH267426   1.228   4.472  11.382 -0.3230 -0.0791  0.2772
15312TIP3    H167427   1.218   4.488  11.288  0.6852  3.0453  0.6436
15312TIP3    H267428   1.143   4.492  11.419 -1.0609 -2.4452 -0.0713
15313TIP3   OH267429   5.655   3.890   0.150 -0.3091  0.1819 -0.0592
15313TIP3    H167430   5.674   3.981   0.127  1.2391 -0.0513  0.2695
15313TIP3    H267431   5.740   3.851   0.167 -1.0703 -0.9180  1.3754
15314TIP3   OH267432   3.006   5.196   1.375  0.0296  0.4319 -0.2557
15314TIP3    H167433   3.024   5.119   1.322 -1.6243  0.4489 -0.8794
15314TIP3    H267434   3.003   5.163   1.465  0.6162  0.0133 -0.3856
15315TIP3   OH267435   6.741   3.365   2.108  0.3253  0.3693 -0.3268
15315TIP3    H167436   6.753   3.446   2.059  1.1498  0.0003 -0.7318
15315TIP3    H267437   6.663   3.324   2.069 -0.6566  1.4146  0.5004
15316TIP3   OH267438   3.961   2.780   6.349 -0.2213  0.0858 -0.5938
15316TIP3    H167439   4.009   2.718   6.404 -0.1526 -1.2486 -2.1218
15316TIP3    H267440   3.878   2.794   6.395  0.3709  0.0283  0.5135
15317TIP3   OH267441   5.743   0.740  12.659 -0.6895  0.4139 -0.3474
15317TIP3    H167442   5.667   0.773  12.609 -0.1774  2.3936  0.1340
15317TIP3    H267443   5.809   0.808  12.649 -0.6456  0.9854  3.2233
15318TIP3   OH267444   5.396   0.841   5.067  0.0207 -0.3106 -0.3445
15318TIP3    H167445   5.472   0.877   5.021  0.1958  2.7982  2.2026
15318TIP3    H267446   5.431   0.765   5.114  1.3962  0.5589  0.0927
15319TIP3   OH267447   1.442   2.589  14.204 -0.0717 -0.1309 -0.0858
15319TIP3    H167448   1.379   2.639  14.153  0.9337 -0.0715 -1.2909
15319TIP3    H267449   1.515   2.649  14.218  0.4381 -0.7319 -0.1285
15320TIP3   OH267450   1.744   5.328  11.313  0.1478 -0.5471  0.2750
15320TIP3    H167451   1.777   5.406  11.268 -1.7712 -0.1614 -0.5163
15320TIP3    H267452   1.732   5.264  11.243 -1.7844 -0.3124  0.3610
15321TIP3   OH267453   4.390   4.754   1.762  0.1366 -0.5672  0.4480
15321TIP3    H167454   4.420   4.686   1.702  0.5610  1.0740 -1.2391
15321TIP3    H267455   4.406   4.718   1.849  0.1979 -2.6788 -0.4100
15322TIP3   OH267456   2.841   2.707   1.109 -0.4529  0.0748 -0.3379
15322TIP3    H167457   2.916   2.648   1.119  0.7497  1.7435  1.0337
15322TIP3    H267458   2.775   2.672   1.168 -0.1020 -0.4371 -0.2424
15323TIP3   OH267459   4.272   2.762   3.077  0.4398 -0.3978  0.0957
15323TIP3    H167460   4.184   2.801   3.083  0.6408  0.6927 -2.9796
15323TIP3    H267461   4.326   2.815   3.135 -0.2859  0.9786 -0.4706
15324TIP3   OH267462   3.407   4.389   2.484  0.2461  0.7927 -0.4145
15324TIP3    H167463   3.318   4.374   2.515  0.0003  0.1979 -1.3791
15324TIP3    H267464   3.454   4.309   2.507  0.8267  1.5405  1.0840
15325TIP3   OH267465   0.414   6.497   3.980  0.6573  0.3959  0.2387
15325TIP3    H167466   0.341   6.525   4.035  0.1891  0.7243 -0.5322
15325TIP3    H267467   0.374   6.481   3.894  1.8791  2.9999 -0.8674
15326TIP3   OH267468   2.069   3.412   4.352  0.0816 -0.6091  0.1001
15326TIP3    H167469   1.990   3.420   4.299  0.7014  0.3889 -0.6761
15326TIP3    H267470   2.070   3.491   4.406  0.8472 -0.3514 -0.2925
15327TIP3   OH267471   4.689   0.582  11.272  0.0958 -0.4758  0.2476
15327TIP3    H167472   4.615   0.525  11.249  0.2579 -0.9335  0.8382
15327TIP3    H267473   4.696   0.644  11.199  0.3417 -1.6443 -0.7433
15328TIP3   OH267474   1.107   5.933   1.679  1.3825 -0.5582  0.7335
15328TIP3    H167475   1.124   6.019   1.642 -0.3920  0.3109  1.8789
15328TIP3    H267476   1.057   5.887   1.612 -1.9667  1.0653  2.0129
15329TIP3   OH267477   4.233   5.780  17.131  0.0057 -0.6089  0.3435
15329TIP3    H167478   4.233   5.808  17.222  1.4814 -0.9663  0.4579
15329TIP3    H267479   4.142   5.756  17.114 -0.4160  0.1017  1.5153
15330TIP3   OH267480   5.967   6.268  12.296  0.0681 -0.3154 -0.1132
15330TIP3    H167481   5.958   6.176  12.317  0.3821 -0.5680 -1.0386
15330TIP3    H267482   5.955   6.314  12.379  1.7066 -1.2906  0.6840
15331TIP3   OH267483   0.423   1.405   3.402 -0.2229 -0.0707  0.4071
15331TIP3    H167484   0.411   1.315   3.431 -1.6544  0.6141  2.0584
15331TIP3    H267485   0.517   1.414   3.386 -0.2500 -2.2355 -1.1456
15332TIP3   OH267486   1.925   5.856   3.225 -0.1009 -0.2347  0.3370
15332TIP3    H167487   1.925   5.860   3.129 -1.3298  1.4587  0.3844
15332TIP3    H267488   1.867   5.783   3.247  1.0738 -1.3589 -0.2072
15333TIP3   OH267489   3.329   2.929  12.449  0.0820 -0.3259 -0.0148
15333TIP3    H167490   3.284   2.856  12.407 -0.7536 -0.2811  0.7763
15333TIP3    H267491   3.396   2.956  12.387  0.0547 -1.4332 -0.5259
15334TIP3   OH267492   2.251   5.281   3.203 -0.6591  0.1194  0.5627
15334TIP3    H167493   2.311   5.239   3.142  1.4183  2.5629  0.8748
15334TIP3    H267494   2.191   5.331   3.148 -0.3603  0.3012  0.4031
15335TIP3   OH267495   4.085   5.948  16.095  0.7172  0.5612 -0.1274
15335TIP3    H167496   4.029   5.952  16.172  0.7021 -1.5053  0.0059
15335TIP3    H267497   4.024   5.950  16.021  0.4645 -1.2586  0.0096
15336TIP3   OH267498   3.315   1.789   1.226  0.8272 -0.3702  0.0247
15336TIP3    H167499   3.388   1.729   1.242  0.2788 -0.6568  1.5202
15336TIP3    H267500   3.284   1.813   1.313  0.4146  1.3251 -0.5811
15337TIP3   OH267501   3.270   6.109   6.830  0.3722  0.1100 -0.4013
15337TIP3    H167502   3.224   6.189   6.805 -1.1071 -1.2196 -2.0130
15337TIP3    H267503   3.281   6.060   6.749  0.1399 -1.8987  0.7359
15338TIP3   OH267504   0.261   1.050   4.478  0.1295  0.2110 -0.4623
15338TIP3    H167505   0.272   1.135   4.522  2.1668  0.8256 -2.0492
15338TIP3    H267506   0.167   1.044   4.460 -0.3966  1.0096  1.7982
15339TIP3   OH267507   0.599   2.387  14.372 -0.2263  0.6585  0.2918
15339TIP3    H167508   0.669   2.354  14.429 -1.1380 -0.7142  0.6368
15339TIP3    H267509   0.532   2.418  14.433  0.0818  2.0236 -0.0391
15340TIP3   OH267510   1.368   6.461  12.790 -0.5243  0.1764  0.2464
15340TIP3    H167511   1.445   6.418  12.826  1.1007  2.5791 -0.2523
15340TIP3    H267512   1.403   6.527  12.731 -2.9638  1.3839  0.0982
15341TIP3   OH267513   1.117   3.714   4.932  0.5173  0.4659  0.2965
15341TIP3    H167514   1.199   3.683   4.893  0.2042 -0.2726  0.2355
15341TIP3    H267515   1.141   3.737   5.022  1.0565  1.3925 -0.0727
15342TIP3   OH267516   1.575   6.602   0.056  0.1661 -0.0449  0.0232
15342TIP3    H167517   1.581   6.534  -0.011  0.3561  1.2368 -1.2640
15342TIP3    H267518   1.546   6.555   0.134  1.4180 -1.8120 -0.5459
15343TIP3   OH267519   6.412   2.678   3.487  0.2079 -0.3039 -0.0483
15343TIP3    H167520   6.458   2.605   3.445 -0.2222 -0.9426  0.5830
15343TIP3    H267521   6.447   2.756   3.444  1.9554 -0.7663  0.5053
15344TIP3   OH267522   6.778   6.087   1.693  0.4824  0.2582  0.5335
15344TIP3    H167523   6.784   5.999   1.729 -0.3568  0.0935  0.2615
15344TIP3    H267524   6.780   6.145   1.769 -0.2096 -0.0433  0.7766
15345TIP3   OH267525   3.084   1.670  12.038 -0.1617  0.2732 -0.3505
15345TIP3    H167526   3.053   1.761  12.028 -0.6190 -0.0302 -1.8561
15345TIP3    H267527   3.009   1.624  12.076 -0.9892 -0.0791 -2.3266
15346TIP3   OH267528   4.858   0.093   5.207  0.1644  0.1736  0.8116
15346TIP3    H167529   4.859   0.018   5.147  0.0141  2.4061 -2.0869
15346TIP3    H267530   4.926   0.074   5.271 -0.0283 -2.5395  0.2645
15347TIP3   OH267531   6.637   1.141  12.193 -0.1552  0.1522 -0.0482
15347TIP3    H167532   6.684   1.213  12.234  1.0607  0.0052 -1.1494
15347TIP3    H267533   6.584   1.183  12.125 -1.4237  0.2847  1.0004
15348TIP3   OH267534   0.232   5.431   3.385  0.0272  0.6119  0.1411
15348TIP3    H167535   0.274   5.364   3.439  0.5469  0.5741 -0.3087
15348TIP3    H267536   0.151   5.389   3.354  0.1874  0.3054  0.1303
15349TIP3   OH267537   2.561   4.923   0.641 -0.7930 -0.8925  0.0421
15349TIP3    H167538   2.619   4.971   0.700 -0.3343 -0.8570 -0.4276
15349TIP3    H267539   2.570   4.968   0.557  0.2042 -2.2151 -0.5887
15350TIP3   OH267540   0.701   5.726  16.945  0.2167  0.8129 -0.3914
15350TIP3    H167541   0.655   5.810  16.931 -0.1970  0.1868 -3.2736
15350TIP3    H267542   0.636   5.671  16.989  0.7090  2.1938  2.1017
15351TIP3   OH267543   6.693   2.036   4.414  0.4048 -0.2074  0.1924
15351TIP3    H167544   6.759   2.085   4.364  1.5711 -1.5970  0.3406
15351TIP3    H267545   6.620   2.025   4.353  0.3274  1.2620 -0.0041
15352TIP3   OH267546   1.602   1.614   2.811 -0.2469 -0.3770  0.2560
15352TIP3    H167547   1.657   1.546   2.850 -0.1160 -1.1279 -1.2004
15352TIP3    H267548   1.513   1.584   2.825 -0.2766  0.4269  1.8767
15353TIP3   OH267549   1.325   5.292   4.854  0.0754  0.2640 -0.3453
15353TIP3    H167550   1.331   5.196   4.845  0.3425  0.3613 -1.2230
15353TIP3    H267551   1.233   5.312   4.839  0.2478  0.2728 -1.3780
15354TIP3   OH267552   4.765   4.895  11.342 -0.1865 -0.5870 -0.2385
15354TIP3    H167553   4.857   4.918  11.334 -0.4913 -0.0446 -2.4033
15354TIP3    H267554   4.758   4.809  11.301 -0.4584 -1.1506  0.9512
15355TIP3   OH267555   4.172   4.518  17.160 -1.2088  0.3198 -0.3329
15355TIP3    H167556   4.111   4.568  17.215 -0.2381  2.3927 -1.0829
15355TIP3    H267557   4.148   4.542  17.070 -1.2950 -1.2804 -0.7539
15356TIP3   OH267558   4.631   4.886  15.505  0.3235  0.0316  0.3825
15356TIP3    H167559   4.628   4.982  15.499  1.5184  0.0535 -0.0050
15356TIP3    H267560   4.541   4.860  15.524  0.5155  1.4462  3.4687
15357TIP3   OH267561   2.445   5.159  11.544  0.2939 -1.0466 -0.3386
15357TIP3    H167562   2.503   5.179  11.618  0.3386  2.4090 -1.2386
15357TIP3    H267563   2.505   5.134  11.474  0.5807  0.6875 -0.7146
15358TIP3   OH267564   5.983   4.950   2.809 -0.0875 -0.3163 -0.0977
15358TIP3    H167565   6.022   4.864   2.826 -0.0298 -0.4203 -0.7604
15358TIP3    H267566   5.898   4.947   2.854 -0.1839 -0.7995 -0.3096
15359TIP3   OH267567   6.410   2.676   1.560 -0.1414  0.1500 -0.7765
15359TIP3    H167568   6.317   2.653   1.553 -0.2587  0.4709 -0.2954
15359TIP3    H267569   6.453   2.625   1.491 -0.7456  0.4050 -1.3426
15360TIP3   OH267570   3.086   0.873  11.363  0.2216 -0.1493  0.6935
15360TIP3    H167571   3.033   0.797  11.387  0.1891 -0.6338 -0.8727
15360TIP3    H267572   3.100   0.864  11.269  0.5322  1.5870  0.5553
15361TIP3   OH267573   4.044   5.073  15.634  0.1356  0.5329  0.2370
15361TIP3    H167574   4.047   5.125  15.554 -1.6190 -0.3862 -0.4638
15361TIP3    H267575   4.064   5.135  15.704  2.4630  1.1795 -0.9549
15362TIP3   OH267576   1.174   6.349  12.323 -0.1970 -0.3225 -0.4760
15362TIP3    H167577   1.249   6.313  12.370 -0.1696 -0.6691 -0.7891
15362TIP3    H267578   1.195   6.339  12.231 -1.2843 -1.8211 -0.5882
15363TIP3   OH267579   5.333   6.286   1.126  0.1047 -0.1133  0.3274
15363TIP3    H167580   5.246   6.297   1.163  0.3453  0.0901  0.8439
15363TIP3    H267581   5.320   6.236   1.045 -0.4522 -0.3299  0.5548
15364TIP3   OH267582   3.292   3.536   0.482 -0.0906 -0.3851  0.1600
15364TIP3    H167583   3.250   3.561   0.400  3.1294 -1.1224 -1.8307
15364TIP3    H267584   3.226   3.485   0.529 -2.4121  1.1487 -1.3666
15365TIP3   OH267585   5.157   4.174   3.819 -0.0344 -0.0607 -0.5523
15365TIP3    H167586   5.226   4.227   3.859  1.2036 -0.4222 -2.1876
15365TIP3    H267587   5.201   4.097   3.784 -1.5890 -1.3830  0.3094
15366TIP3   OH267588   3.296   0.285  16.672 -0.0188 -0.0182  0.2699
15366TIP3    H167589   3.252   0.312  16.753 -0.8003  1.0235 -0.4833
15366TIP3    H267590   3.225   0.254  16.616  0.5920 -1.3183  0.2009
15367TIP3   OH267591   6.757   0.550   4.996  0.5579  0.5896 -0.3345
15367TIP3    H167592   6.812   0.611   5.045 -0.6083  1.6759 -0.3676
15367TIP3    H267593   6.679   0.540   5.050 -0.4149  1.2176 -1.5975
15368TIP3   OH267594   5.906   1.278   0.103  0.0202  0.2434 -0.3704
15368TIP3    H167595   5.816   1.305   0.125  1.6191  2.8391  3.7074
15368TIP3    H267596   5.913   1.189   0.137 -1.0370 -0.0818 -0.9501
15369TIP3   OH267597   3.890   4.880  16.105  0.2525  0.0336  0.2758
15369TIP3    H167598   3.890   4.972  16.078  0.8529 -0.0497 -0.0082
15369TIP3    H267599   3.820   4.875  16.170  0.3587  0.7411  0.4562
15370TIP3   OH267600   1.947   1.799  13.134 -0.2999 -0.2037 -0.0875
15370TIP3    H167601   1.919   1.884  13.099 -1.4421 -0.7305 -0.4727
15370TIP3    H267602   1.953   1.812  13.229 -1.5312  0.0210 -0.0315
15371TIP3   OH267603   2.713   4.573   4.019 -0.6602  0.0988 -0.0095
15371TIP3    H167604   2.791   4.567   4.073 -1.9446  0.9321  2.0150
15371TIP3    H267605   2.652   4.509   4.058 -1.2193 -0.0985 -1.1706
15372TIP3   OH267606   4.024   6.240  15.865  0.3926 -0.4578 -0.2237
15372TIP3    H167607   4.013   6.252  15.771  1.1929  0.1627 -0.2471
15372TIP3    H267608   3.984   6.155  15.884 -1.3418  0.2154 -0.8275
15373TIP3   OH267609   3.696   2.018   2.610  0.0454 -0.3933  0.6254
15373TIP3    H167610   3.674   1.952   2.544 -1.5749  0.8802 -0.1472
15373TIP3    H267611   3.652   1.987   2.690 -1.1729  0.0148  0.1262
15374TIP3   OH267612   4.633   4.119   3.956 -0.1888 -0.3571  0.6659
15374TIP3    H167613   4.586   4.202   3.951  0.1284 -0.2489 -1.0265
15374TIP3    H267614   4.700   4.133   4.023 -0.1833  0.7369  0.4427
15375TIP3   OH267615   4.411   0.715  17.131 -0.1388  0.4345 -0.9970
15375TIP3    H167616   4.394   0.641  17.073 -1.6331 -0.2033  0.2151
15375TIP3    H267617   4.410   0.677  17.219  0.2013  1.7101 -0.4246
15376TIP3   OH267618   5.213   5.867  11.990  0.7381  0.5433 -0.1184
15376TIP3    H167619   5.236   5.828  11.906 -0.2844  0.6244 -0.4406
15376TIP3    H267620   5.123   5.895  11.980  0.3995 -0.0075  1.2095
15377TIP3   OH267621   1.980   1.167   2.438 -0.1292 -0.1993 -0.2020
15377TIP3    H167622   2.067   1.129   2.431 -0.3259 -0.5787 -0.5715
15377TIP3    H267623   1.992   1.245   2.493  0.7893  0.9016 -1.9537
15378TIP3   OH267624   1.819   2.727  12.232 -0.2296  0.7030  0.0715
15378TIP3    H167625   1.814   2.685  12.318 -2.8593  1.9485  0.5774
15378TIP3    H267626   1.828   2.655  12.170  0.2167 -0.2847  1.2580
15379TIP3   OH267627   5.234   1.640  17.153  0.0177 -0.1346  0.0484
15379TIP3    H167628   5.268   1.562  17.111  2.9408  1.1598 -0.1205
15379TIP3    H267629   5.140   1.637  17.138  0.2787 -2.8248 -1.2529
15380TIP3   OH267630   6.309   3.397  17.205  0.1223 -0.3567  0.1205
15380TIP3    H167631   6.394   3.429  17.174 -1.2311  3.4817  0.0281
15380TIP3    H267632   6.327   3.360  17.291  1.9920 -0.2192 -0.1835
15381TIP3   OH267633   5.882   4.774   4.384 -0.1665 -0.9082  0.0772
15381TIP3    H167634   5.831   4.789   4.305 -1.3480 -0.8206  0.8372
15381TIP3    H267635   5.875   4.856   4.433  1.8739 -0.4074 -0.4436
15382TIP3   OH267636   2.686   3.532   1.331  0.2695  0.2938  0.2055
15382TIP3    H167637   2.734   3.615   1.325 -0.2373  0.5088 -1.0954
15382TIP3    H267638   2.723   3.488   1.407  0.8455  1.5293  0.6569
15383TIP3   OH267639   6.483   3.045  14.625 -0.1186 -0.0448  0.2366
15383TIP3    H167640   6.516   2.989  14.696 -0.1397  0.2495  0.4821
15383TIP3    H267641   6.515   3.133  14.648 -0.6269  0.1524  0.1995
15384TIP3   OH267642   1.670   5.024  16.923 -0.4179 -0.4804 -0.1518
15384TIP3    H167643   1.625   5.091  16.975  0.5656  1.1861 -1.4114
15384TIP3    H267644   1.746   4.999  16.976  1.0233  1.7847 -1.0706
15385TIP3   OH267645   3.563   5.778  11.582 -0.2524  0.2324  0.0773
15385TIP3    H167646   3.629   5.770  11.514  0.5345 -1.4239  1.0050
15385TIP3    H267647   3.592   5.719  11.651 -4.1336 -2.6951 -0.6478
15386TIP3   OH267648   4.159   4.146   1.542  0.1253 -0.0412 -0.2103
15386TIP3    H167649   4.173   4.109   1.629 -0.3652  0.1733 -0.0407
15386TIP3    H267650   4.103   4.222   1.557  1.6278  1.1349 -0.4830
15387TIP3   OH267651   4.198   1.193  12.264 -0.5776  0.0633  0.5202
15387TIP3    H167652   4.145   1.188  12.184 -0.3783 -0.3757  0.4135
15387TIP3    H267653   4.285   1.163  12.237 -0.4189  0.2491  0.8230
15388TIP3   OH267654   0.484   3.372   5.444  0.5049  0.3825 -0.2495
15388TIP3    H167655   0.479   3.389   5.538  1.4597 -0.3637 -0.0514
15388TIP3    H267656   0.474   3.277   5.437  2.9276  0.1353 -0.6854
15389TIP3   OH267657   2.652   0.639   6.015  0.5334 -0.3689 -0.0497
15389TIP3    H167658   2.617   0.570   6.072  1.0724 -0.0333  0.7007
15389TIP3    H267659   2.703   0.593   5.949  1.2698 -0.6627  0.7190
15390TIP3   OH267660   1.695   1.377  15.503  0.8637  0.4241 -0.4617
15390TIP3    H167661   1.667   1.432  15.576 -1.3094 -1.6403  0.3427
15390TIP3    H267662   1.765   1.322  15.539 -0.2508 -0.6374  0.1265
15391TIP3   OH267663   2.353   2.623  12.165  0.1317  0.0359  0.7171
15391TIP3    H167664   2.385   2.689  12.226 -1.7589  0.5279  1.2332
15391TIP3    H267665   2.277   2.665  12.124  0.6814 -0.7359 -1.1154
15392TIP3   OH267666   2.619   5.991   3.889  0.5111  0.4422  0.7304
15392TIP3    H167667   2.683   5.956   3.827 -0.0951 -1.0711  0.9360
15392TIP3    H267668   2.668   6.001   3.970  0.8362  0.6454  0.5127
15393TIP3   OH267669   1.598   3.791   6.362 -0.0665  0.3653 -0.3712
15393TIP3    H167670   1.569   3.851   6.293 -0.3684  0.9542  0.2628
15393TIP3    H267671   1.519   3.744   6.387 -0.0795  0.5919  0.0093
15394TIP3   OH267672   3.100   2.324  12.138 -0.1640 -0.2148  0.0803
15394TIP3    H167673   3.184   2.348  12.098 -0.6686  0.8700 -0.3595
15394TIP3    H267674   3.058   2.267  12.073 -1.0010  1.5811 -0.9983
15395TIP3   OH267675   5.242   3.702   2.790 -1.1336 -1.2033  0.0148
15395TIP3    H167676   5.180   3.639   2.753 -0.1715 -1.3555 -1.3831
15395TIP3    H267677   5.218   3.785   2.751 -0.1870 -1.3414 -0.8686
15396TIP3   OH267678   6.692   0.179  15.583  0.6349  0.0786  0.0455
15396TIP3    H167679   6.748   0.236  15.530 -0.2688  2.0292  1.1486
15396TIP3    H267680   6.613   0.167  15.530  1.0375 -0.5697 -0.4078
15397TIP3   OH267681   5.925   5.804  12.490 -0.7449  0.1360  0.2313
15397TIP3    H167682   6.001   5.747  12.485 -1.3027 -0.6570  0.5985
15397TIP3    H267683   5.960   5.889  12.517  0.0643 -0.0961 -0.0726
15398TIP3   OH267684   1.616   5.027  10.805 -0.5452  0.0497 -0.6448
15398TIP3    H167685   1.552   5.055  10.869 -0.0685  2.0614 -1.0125
15398TIP3    H267686   1.694   5.079  10.825  0.5808 -1.5132 -0.9369
15399TIP3   OH267687   2.804   3.897   0.124  0.3180  0.1082 -0.6135
15399TIP3    H167688   2.710   3.907   0.137  0.2228  1.0590 -1.9136
15399TIP3    H267689   2.834   3.985   0.100  1.4450 -0.3077 -0.7605
15400TIP3   OH267690   4.237   5.456   5.505 -0.3183  0.0249  0.8188
15400TIP3    H167691   4.266   5.465   5.414  1.0874  1.0295  1.3509
15400TIP3    H267692   4.244   5.362   5.522 -2.3638 -0.4235 -0.6614
15401TIP3   OH267693   4.380   2.975  16.489  0.8910 -0.1610 -0.4456
15401TIP3    H167694   4.347   3.020  16.567 -0.4404 -0.9647 -0.5211
15401TIP3    H267695   4.373   2.882  16.510 -0.8167 -0.4279 -2.0213
15402TIP3   OH267696   2.590   1.779  12.921 -0.0989 -0.9136  0.6481
15402TIP3    H167697   2.624   1.823  12.843 -0.6286 -0.2219  0.7979
15402TIP3    H267698   2.554   1.850  12.975 -1.4192 -1.5799  0.6632
15403TIP3   OH267699   4.526   5.116  16.723 -0.8803 -0.1121  0.2133
15403TIP3    H167700   4.556   5.155  16.641 -1.0363  0.3428  0.3712
15403TIP3    H267701   4.431   5.118  16.717 -0.9377  2.5468  1.6291
15404TIP3   OH267702   5.525   1.620   3.028  0.1327  0.2549 -0.4076
15404TIP3    H167703   5.468   1.665   2.966  0.6754 -0.2952 -1.3217
15404TIP3    H267704   5.505   1.660   3.113 -2.0583 -0.3686 -0.5953
15405TIP3   OH267705   5.356   5.623   4.391  0.0030  0.0179  0.3675
15405TIP3    H167706   5.436   5.669   4.363 -0.7549  0.2539 -1.4517
15405TIP3    H267707   5.373   5.531   4.370 -1.2412  0.4161 -2.5470
15406TIP3   OH267708   6.332   4.834  13.598  0.1321 -0.6485 -0.2194
15406TIP3    H167709   6.272   4.906  13.616  1.4334 -0.2944  3.0071
15406TIP3    H267710   6.412   4.877  13.566  1.0976 -0.5212  2.2075
15407TIP3   OH267711   5.382   4.244  15.174  0.5052  0.3071 -0.8312
15407TIP3    H167712   5.467   4.263  15.135  0.4337  0.1337 -1.0735
15407TIP3    H267713   5.321   4.247  15.101  0.3930 -0.1500 -0.7589
15408TIP3   OH267714   0.674   1.830   0.559 -0.1027  1.2416 -0.0637
15408TIP3    H167715   0.650   1.737   0.559 -0.4933  1.3393 -0.5243
15408TIP3    H267716   0.769   1.830   0.569 -0.0943  0.7882 -0.1317
15409TIP3   OH267717   4.189   1.342   1.076  0.5750  0.6487 -0.0400
15409TIP3    H167718   4.102   1.322   1.041  0.0079  3.0002 -0.0775
15409TIP3    H267719   4.235   1.259   1.076 -0.7548 -0.1304 -2.6554
15410TIP3   OH267720   0.312   0.846   0.913  0.1400  0.1747 -0.3922
15410TIP3    H167721   0.251   0.774   0.902  1.4200 -1.0586  0.4806
15410TIP3    H267722   0.382   0.811   0.968 -1.1227  3.2176  3.3809
15411TIP3   OH267723   4.609   5.206   6.008 -0.3850  0.2037  0.5731
15411TIP3    H167724   4.672   5.264   6.050  0.1183 -0.2405  0.4323
15411TIP3    H267725   4.646   5.118   6.018 -0.4798  0.0430 -0.4013
15412TIP3   OH267726   2.591   1.984  15.914  0.3051  0.0425  0.2484
15412TIP3    H167727   2.649   2.060  15.925  1.2385 -0.4446 -1.1359
15412TIP3    H267728   2.510   2.021  15.879  0.6082  0.4442 -0.0323
15413TIP3   OH267729   2.956   6.646  14.868 -0.0471  0.4954 -0.5313
15413TIP3    H167730   2.976   6.592  14.792 -0.3957  0.7738 -0.8236
15413TIP3    H267731   3.002   6.728  14.852  1.3489 -0.0821  0.4118
15414TIP3   OH267732   1.662   1.032   4.892 -0.2312 -0.4226  0.9388
15414TIP3    H167733   1.678   1.115   4.849  2.5704 -0.8398  1.1080
15414TIP3    H267734   1.610   1.055   4.969 -3.7988  0.5203 -1.6074
15415TIP3   OH267735   0.973   4.728  14.342 -0.4497 -0.5493 -0.6597
15415TIP3    H167736   1.032   4.713  14.416 -0.2044 -0.4620 -0.8366
15415TIP3    H267737   0.894   4.764  14.382  0.6310  1.9304 -0.7079
15416TIP3   OH267738   4.998   1.164   5.483  0.1216 -0.2101 -0.4431
15416TIP3    H167739   5.010   1.230   5.415  0.9352 -1.2110 -1.2918
15416TIP3    H267740   5.080   1.115   5.484  0.1089 -0.2157  1.2633
15417TIP3   OH267741   5.087   2.984   1.147  0.3559  1.0485  0.2400
15417TIP3    H167742   5.016   3.044   1.124 -0.0689  0.4410 -0.0479
15417TIP3    H267743   5.062   2.951   1.233 -0.4344 -0.2431 -0.4762
15418TIP3   OH267744   1.860   4.743  16.638 -0.1363 -0.2442 -0.4003
15418TIP3    H167745   1.815   4.665  16.672 -0.7548  1.3040  2.4911
15418TIP3    H267746   1.790   4.799  16.606  0.2581 -0.5875 -1.8762
15419TIP3   OH267747   3.977   0.819  11.045 -0.2012 -0.9095 -0.2490
15419TIP3    H167748   4.065   0.805  11.080 -0.1316 -1.6094 -0.6924
15419TIP3    H267749   3.930   0.740  11.067  0.4690 -2.3340 -3.6225
15420TIP3   OH267750   5.832   4.190  17.151 -0.8142 -0.2295  0.0156
15420TIP3    H167751   5.815   4.105  17.111  0.9164 -0.4829 -0.2337
15420TIP3    H267752   5.802   4.180  17.242 -0.5750 -1.1238  0.0022
15421TIP3   OH267753   2.842   5.219  14.008 -0.4471 -0.2411  0.2766
15421TIP3    H167754   2.792   5.138  14.004 -1.1074  0.0613  1.8409
15421TIP3    H267755   2.829   5.261  13.923  0.5875 -2.1578 -0.8682
15422TIP3   OH267756   0.763   0.973  17.165 -0.1577 -0.0888  0.6457
15422TIP3    H167757   0.835   0.923  17.204  0.4320  0.6906  0.5711
15422TIP3    H267758   0.701   0.985  17.236  0.2206  0.0282  0.9589
15423TIP3   OH267759   5.421   6.468  16.229  0.0949  0.6456 -0.3119
15423TIP3    H167760   5.427   6.556  16.191  0.9807  1.4690  1.6790
15423TIP3    H267761   5.346   6.472  16.288  1.2342  0.6061  1.1539
15424TIP3   OH267762   3.388   3.814  16.107 -0.2570  0.0298  0.1276
15424TIP3    H167763   3.403   3.719  16.106 -0.8110 -0.0702  0.9390
15424TIP3    H267764   3.472   3.851  16.135 -0.8330 -0.4094  2.6348
15425TIP3   OH267765   4.413   5.995   2.578 -0.6673  0.0796  0.3947
15425TIP3    H167766   4.453   6.046   2.649  0.2958  2.9013 -2.1037
15425TIP3    H267767   4.479   5.929   2.556 -1.1584 -1.1198  2.3667
15426TIP3   OH267768   3.822   0.969   6.145 -0.6737 -0.1947  0.2766
15426TIP3    H167769   3.745   0.998   6.193 -0.1991 -0.0874  0.9749
15426TIP3    H267770   3.879   0.929   6.211  0.5948  1.1892  0.0648
15427TIP3   OH267771   2.307   6.176   2.660  0.0421  0.2210  0.6425
15427TIP3    H167772   2.236   6.229   2.624  0.5097  0.0721 -0.5535
15427TIP3    H267773   2.271   6.138   2.740 -0.2522  2.4345  1.5982
15428TIP3   OH267774   5.039   1.820  16.630  0.7472 -0.4037  0.2644
15428TIP3    H167775   5.019   1.912  16.645 -0.7871 -0.4718 -1.1628
15428TIP3    H267776   5.084   1.818  16.546 -0.3523 -1.0742 -0.3198
15429TIP3   OH267777   5.342   4.197   0.928  0.4926 -0.3139  0.0602
15429TIP3    H167778   5.300   4.274   0.968 -0.0735  0.5373 -2.0939
15429TIP3    H267779   5.433   4.224   0.914  1.3158 -1.4363  2.8244
15430TIP3   OH267780   4.288   5.671   0.868  0.5256 -0.6226 -0.6131
15430TIP3    H167781   4.258   5.686   0.958 -0.6257 -3.1313 -0.5483
15430TIP3    H267782   4.383   5.660   0.877  0.6123  0.5681  0.0820
15431TIP3   OH267783   2.826   0.289  13.849 -0.1246 -0.1353 -0.4567
15431TIP3    H167784   2.790   0.200  13.842  0.9611 -0.5605 -0.6265
15431TIP3    H267785   2.847   0.299  13.942  0.6545 -0.4043 -0.6065
15432TIP3   OH267786   0.204   1.891  11.693 -0.2541 -0.9301  0.7043
15432TIP3    H167787   0.295   1.866  11.706 -0.4136  0.0777  4.2155
15432TIP3    H267788   0.160   1.809  11.669  1.1614 -1.8178  1.0629
15433TIP3   OH267789   4.347   2.970  13.456 -0.0192  0.0976 -0.0736
15433TIP3    H167790   4.377   3.001  13.541  0.7947 -0.8542 -0.0064
15433TIP3    H267791   4.367   3.041  13.396  0.7631  0.1818  0.2823
15434TIP3   OH267792   2.897   0.832   2.537  0.1553 -0.0407  0.0420
15434TIP3    H167793   2.806   0.815   2.561 -1.0337 -0.3743 -4.1831
15434TIP3    H267794   2.948   0.769   2.587 -1.8926  0.1904  2.5264
15435TIP3   OH267795   4.556   6.354  16.671  0.3802 -0.3160 -0.1578
15435TIP3    H167796   4.543   6.371  16.765  0.8367 -0.2026 -0.1164
15435TIP3    H267797   4.562   6.259  16.664  1.1592 -0.2802  0.0296
15436TIP3   OH267798   3.904   4.682  14.155 -0.3183  0.1574 -0.1505
15436TIP3    H167799   3.918   4.589  14.173 -1.6104 -0.2327 -1.1037
15436TIP3    H267800   3.928   4.726  14.237 -0.2627 -1.0688  0.4980
15437TIP3   OH267801   0.817   2.242   5.996 -0.1778 -0.5666 -0.1752
15437TIP3    H167802   0.770   2.319   6.028 -1.4172 -1.2081 -0.4252
15437TIP3    H267803   0.831   2.188   6.075 -3.7746 -2.4364 -0.7244
15438TIP3   OH267804   5.997   5.371   1.284 -0.5204 -0.0675  0.7538
15438TIP3    H167805   5.933   5.440   1.264 -0.2819  0.4232  1.6599
15438TIP3    H267806   6.079   5.404   1.247 -0.5888 -0.2516  0.4397
15439TIP3   OH267807   4.650   6.349  12.843 -0.5978  0.1142 -0.1280
15439TIP3    H167808   4.727   6.343  12.786 -1.3880  1.9504 -1.4569
15439TIP3    H267809   4.664   6.283  12.910  1.9108  0.1145 -0.6149
15440TIP3   OH267810   1.828   4.764   1.550  0.1781 -0.4208 -0.0472
15440TIP3    H167811   1.815   4.830   1.481  0.0607 -1.4018 -0.9789
15440TIP3    H267812   1.796   4.683   1.511  1.5292 -1.2868  0.6097
15441TIP3   OH267813   6.278   5.135   2.355  0.3322  0.2914 -0.4764
15441TIP3    H167814   6.363   5.156   2.394  0.9308  1.5265 -2.3695
15441TIP3    H267815   6.216   5.142   2.428  2.0079 -2.0637  1.2666
15442TIP3   OH267816   6.110   2.102   5.728 -0.1163  0.0541  0.0815
15442TIP3    H167817   6.074   2.023   5.770 -0.9538  0.4648  0.1328
15442TIP3    H267818   6.036   2.140   5.681  0.8717 -0.5149 -1.9636
15443TIP3   OH267819   0.379   2.449  16.193  0.5595  0.1758 -0.1274
15443TIP3    H167820   0.462   2.443  16.240 -0.1899 -0.1705  1.1966
15443TIP3    H267821   0.345   2.536  16.214  0.4651  0.2168 -0.4465
15444TIP3   OH267822   1.889   2.282  12.784 -0.3522 -0.2027 -0.4547
15444TIP3    H167823   1.833   2.333  12.726  1.3034  2.6727  0.3535
15444TIP3    H267824   1.885   2.193  12.750 -0.8115  1.0715 -3.9334
15445TIP3   OH267825   0.228   5.374  13.525 -0.2285  0.6143 -0.1119
15445TIP3    H167826   0.176   5.317  13.581  0.2012 -0.3124 -0.6436
15445TIP3    H267827   0.259   5.317  13.454  0.9793  1.2850 -0.1426
15446TIP3   OH267828   6.739   4.303  16.530  0.5498  0.1117 -0.6512
15446TIP3    H167829   6.667   4.330  16.586 -0.8013 -0.1271 -2.2506
15446TIP3    H267830   6.762   4.216  16.562  0.5499  0.4269  0.2450
15447TIP3   OH267831   6.367   2.543  14.660  0.0518  0.2650 -0.5943
15447TIP3    H167832   6.362   2.569  14.568  0.9449  0.6708 -0.5337
15447TIP3    H267833   6.417   2.461  14.659  0.3389  0.4369 -0.4426
15448TIP3   OH267834   1.391   6.653  12.608 -0.8698 -0.2427  0.1337
15448TIP3    H167835   1.320   6.704  12.648 -1.7082 -0.4569 -1.0563
15448TIP3    H267836   1.392   6.680  12.517  0.9368  0.1274  0.2473
15449TIP3   OH267837   0.036   6.653  11.393 -0.2916 -0.7848  0.0853
15449TIP3    H167838   0.077   6.670  11.309  3.1685 -1.0630  1.5999
15449TIP3    H267839   0.015   6.559  11.391 -1.8761 -0.4137 -1.1127
15450TIP3   OH267840   2.717   4.043  14.893 -0.0218  0.2079  0.8873
15450TIP3    H167841   2.708   4.024  14.986  0.0241 -2.7908  0.3519
15450TIP3    H267842   2.809   4.066  14.881  0.2852 -0.7556  1.3817
15451TIP3   OH267843   5.174   1.696   0.573 -0.1754  0.3437  0.5605
15451TIP3    H167844   5.145   1.788   0.571 -1.6154 -0.0705  1.5197
15451TIP3    H267845   5.109   1.652   0.627  0.2468 -1.3421 -0.2752
15452TIP3   OH267846   1.195   3.493   2.480  0.1546  0.4381 -0.0281
15452TIP3    H167847   1.124   3.458   2.425 -0.0386  0.7308  0.0340
15452TIP3    H267848   1.150   3.552   2.541  0.3861  0.2161  0.3525
15453TIP3   OH267849   1.382   6.429   0.726 -0.1027  0.0345  0.1190
15453TIP3    H167850   1.320   6.357   0.718 -0.0495 -0.5109  3.7823
15453TIP3    H267851   1.330   6.504   0.754  0.9015 -0.5913  3.8506
15454TIP3   OH267852   0.639   6.132  16.111 -0.2150 -0.1390 -0.1165
15454TIP3    H167853   0.723   6.177  16.118  0.2383 -1.0427  0.4359
15454TIP3    H267854   0.649   6.054  16.166 -1.2300 -0.5368 -0.4793
15455TIP3   OH267855   6.577   5.439  12.757 -0.3256 -0.5452 -0.4368
15455TIP3    H167856   6.571   5.467  12.848 -0.4511  0.8060 -0.8491
15455TIP3    H267857   6.659   5.478  12.726 -0.3543 -0.8851 -0.9367
15456TIP3   OH267858   6.096   3.654   0.392 -0.0967  0.4458  0.4730
15456TIP3    H167859   6.020   3.712   0.386 -0.8759 -0.5646  0.4343
15456TIP3    H267860   6.102   3.631   0.485 -0.3448 -0.1253  0.3535
15457TIP3   OH267861   1.562   4.677   5.549  0.0174 -0.5167  0.5691
15457TIP3    H167862   1.608   4.610   5.499  0.4694 -0.5755  1.0648
15457TIP3    H267863   1.504   4.719   5.485  0.4385 -0.7323  0.0441
15458TIP3   OH267864   3.315   3.191  11.763  0.0664 -0.7749  0.1084
15458TIP3    H167865   3.393   3.160  11.808 -0.1617  1.3012  2.0107
15458TIP3    H267866   3.347   3.225  11.679  1.4168  1.1127  1.3405
15459TIP3   OH267867   6.504   1.105   4.162  0.7148  0.4255 -0.2321
15459TIP3    H167868   6.519   1.165   4.090  0.2806  0.0611 -0.6369
15459TIP3    H267869   6.588   1.060   4.175  1.0237  1.0833  0.0436
15460TIP3   OH267870   6.510   0.525   5.702  0.0945  0.3987 -0.3102
15460TIP3    H167871   6.579   0.551   5.641  0.4878  0.4595  0.1602
15460TIP3    H267872   6.555   0.479   5.773 -0.7313 -2.7809 -1.7560
15461TIP3   OH267873   5.378   3.268   0.336  0.0764 -0.0565 -0.4126
15461TIP3    H167874   5.327   3.337   0.294 -0.1082  0.1413  0.1338
15461TIP3    H267875   5.314   3.223   0.392  0.5408  0.2996  0.4069
15462TIP3   OH267876   5.263   2.918  16.615 -0.2634 -0.1640 -0.1338
15462TIP3    H167877   5.271   3.010  16.642 -1.1495  0.3456 -1.5149
15462TIP3    H267878   5.346   2.878  16.641  0.3247  1.1497  0.0706
15463TIP3   OH267879   3.002   1.664  14.642 -0.3852 -0.2202 -0.1175
15463TIP3    H167880   2.974   1.623  14.724 -2.0589 -0.5467 -0.8214
15463TIP3    H267881   2.952   1.618  14.575  1.4042 -0.3431 -1.3818
15464TIP3   OH267882   2.576   6.776   4.273  0.7047  0.1909  0.0141
15464TIP3    H167883   2.632   6.852   4.286 -0.5480  0.7986  2.0507
15464TIP3    H267884   2.637   6.705   4.251  2.1510  1.1020  0.9955
15465TIP3   OH267885   0.578   3.987  12.205  0.6136 -0.7474 -0.0011
15465TIP3    H167886   0.580   4.007  12.111  0.4106  1.2602  0.4094
15465TIP3    H267887   0.669   3.970  12.228  0.8832  0.3799 -0.2287
15466TIP3   OH267888   3.498   6.734  14.466 -0.0145 -0.0252  0.4058
15466TIP3    H167889   3.451   6.696  14.541 -0.2911  1.9376  1.2686
15466TIP3    H267890   3.442   6.714  14.391 -0.4415 -0.8044  0.9128
15467TIP3   OH267891   4.348   6.677  13.831 -0.5091 -0.1452  0.5017
15467TIP3    H167892   4.443   6.683  13.822 -0.6793  0.8232 -0.7842
15467TIP3    H267893   4.334   6.640  13.918  1.0250  0.7617  1.1458
15468TIP3   OH267894   3.901   5.088   5.574 -0.1453 -0.3352  0.0393
15468TIP3    H167895   3.984   5.088   5.526  1.0687  3.3107  1.9255
15468TIP3    H267896   3.846   5.149   5.526 -1.5233 -2.1956 -0.7881
15469TIP3   OH267897   0.558   0.075   4.798 -0.3024 -0.1183 -0.0115
15469TIP3    H167898   0.617   0.124   4.741 -1.0914 -1.2671 -1.8615
15469TIP3    H267899   0.605  -0.007   4.817  0.3482  0.6483  1.7753
15470TIP3   OH267900   1.386   4.210   5.200  0.8198 -0.3109 -0.6954
15470TIP3    H167901   1.338   4.293   5.193 -0.0347 -0.5982  1.2804
15470TIP3    H267902   1.388   4.176   5.111  0.9756  1.7108 -1.5009
15471TIP3   OH267903   5.719   3.823  12.904 -0.3236  0.2427  0.3855
15471TIP3    H167904   5.727   3.848  12.812  1.9666  2.9567  1.2295
15471TIP3    H267905   5.681   3.735  12.902 -0.8611  0.4731 -3.1061
15472TIP3   OH267906   2.409   0.991   1.729  0.3204  0.6175  0.1651
15472TIP3    H167907   2.317   0.962   1.736  1.0687 -1.0886  4.0453
15472TIP3    H267908   2.437   0.958   1.644 -2.3230  0.1616 -0.5974
15473TIP3   OH267909   4.196   6.267   5.259 -0.1607 -0.3125  0.0768
15473TIP3    H167910   4.143   6.340   5.289  0.2819 -0.4358  1.1779
15473TIP3    H267911   4.267   6.261   5.323 -0.4370 -1.9751  0.2513
15474TIP3   OH267912   6.093   5.229  14.753  0.4199  0.3401 -0.3593
15474TIP3    H167913   6.090   5.173  14.676 -0.2969 -3.5594  2.3425
15474TIP3    H267914   6.048   5.178  14.821 -0.5892  4.3794  2.1771
15475TIP3   OH267915   5.240   1.285  17.290 -0.1798 -0.0928 -0.1277
15475TIP3    H167916   5.226   1.195  17.261  0.3480 -0.7901  1.6774
15475TIP3    H267917   5.152   1.321  17.302 -0.3938 -0.4537 -0.6013
15476TIP3   OH267918   5.910   3.663  13.695 -0.1367 -0.6538 -0.6867
15476TIP3    H167919   5.835   3.656  13.754 -0.5678 -0.1196 -1.1642
15476TIP3    H267920   5.967   3.590  13.719 -1.1037 -1.4347 -0.7404
15477TIP3   OH267921   2.116   3.500   1.416 -0.0491  0.2159 -0.0255
15477TIP3    H167922   2.113   3.445   1.337 -1.6612 -0.1463  0.2603
15477TIP3    H267923   2.207   3.525   1.425  0.4094 -1.0079 -1.1515
15478TIP3   OH267924   6.144   4.667  13.039  0.1858  0.1677  0.5055
15478TIP3    H167925   6.237   4.683  13.049  0.0983  1.9161 -1.1419
15478TIP3    H267926   6.103   4.720  13.108  0.3238  0.8376  0.0782
15479TIP3   OH267927   3.854   3.103  11.898 -0.6829  0.0726 -0.2651
15479TIP3    H167928   3.890   3.192  11.896 -0.2224 -0.1267 -1.3141
15479TIP3    H267929   3.776   3.108  11.842  1.5413 -1.0823 -3.6494
15480TIP3   OH267930   2.848   2.448   6.162 -0.0162 -0.1873 -0.9446
15480TIP3    H167931   2.830   2.535   6.127  1.1369 -0.1025 -1.3635
15480TIP3    H267932   2.794   2.389   6.109 -1.4063  0.3390 -0.1349
15481TIP3   OH267933   2.067   1.607  15.905  0.7091 -0.0130  0.1354
15481TIP3    H167934   2.112   1.553  15.840 -0.9929 -1.8625  0.4510
15481TIP3    H267935   2.087   1.697  15.880  2.1213 -0.7633 -1.4672
15482TIP3   OH267936   2.303   3.100   2.061  0.4313  0.1852  0.1476
15482TIP3    H167937   2.355   3.095   1.981  0.7055  1.9333  0.2089
15482TIP3    H267938   2.292   3.008   2.088  1.2288 -0.3492 -1.3010
15483TIP3   OH267939   6.094   2.406  10.656 -0.1009  0.3725  0.2928
15483TIP3    H167940   6.054   2.433  10.573  1.0772  0.4093 -0.2797
15483TIP3    H267941   6.061   2.317  10.669 -1.0987  0.7377  0.3107
15484TIP3   OH267942   4.098   1.628  11.268 -0.4322 -0.4777  0.1720
15484TIP3    H167943   4.097   1.680  11.188 -2.3540 -1.8047 -0.6987
15484TIP3    H267944   4.018   1.653  11.314  0.7204  0.3725  1.7693
15485TIP3   OH267945   6.481   4.494  12.892 -0.0295 -0.0467  0.0808
15485TIP3    H167946   6.446   4.491  12.981  0.7471  0.1458  0.4011
15485TIP3    H267947   6.503   4.586  12.879  1.3706 -0.3485  0.2887
15486TIP3   OH267948   1.236   4.782  13.063 -0.0735  0.0370 -0.4681
15486TIP3    H167949   1.241   4.852  13.127  0.5746 -0.3800 -0.0657
15486TIP3    H267950   1.294   4.713  13.096  1.5296  0.4567 -2.2934
15487TIP3   OH267951   0.914   1.241   2.325  0.5709 -0.1359 -0.5709
15487TIP3    H167952   0.863   1.205   2.397  0.8600 -1.3847 -0.9879
15487TIP3    H267953   0.890   1.334   2.323 -0.1126 -0.2802  0.5514
15488TIP3   OH267954   2.529   3.013  15.946 -0.4662  0.0707  0.1646
15488TIP3    H167955   2.560   2.925  15.964  1.3613  0.5191 -0.6511
15488TIP3    H267956   2.468   3.032  16.017  1.9511 -0.4602  2.4607
15489TIP3   OH267957   0.660   6.548  11.729  0.4373  0.6994  0.3837
15489TIP3    H167958   0.605   6.470  11.733 -0.3812  1.3760  2.9523
15489TIP3    H267959   0.647   6.582  11.641 -2.0201 -0.0373  0.4373
15490TIP3   OH267960   6.121   0.289  13.593 -0.2652 -0.1741 -0.2464
15490TIP3    H167961   6.162   0.353  13.650  1.6099 -1.6515  0.1096
15490TIP3    H267962   6.189   0.265  13.530 -1.1739 -1.2223 -0.8523
15491TIP3   OH267963   1.090   2.318   4.063 -0.5909 -0.1159 -0.0067
15491TIP3    H167964   1.008   2.330   4.015 -2.0001 -1.2642  2.0555
15491TIP3    H267965   1.087   2.228   4.095  2.4945 -0.8800 -1.7013
15492TIP3   OH267966   2.491   2.904  11.516 -0.4742  0.5278 -0.1665
15492TIP3    H167967   2.404   2.940  11.535 -0.7750 -0.1508 -0.2331
15492TIP3    H267968   2.492   2.893  11.421 -1.1005 -1.3863  0.0124
15493TIP3   OH267969   3.780   6.513   2.849 -0.2380  0.0761  0.0699
15493TIP3    H167970   3.775   6.589   2.907 -1.4472  0.4052 -0.4340
15493TIP3    H267971   3.873   6.499   2.835  0.1409 -0.6781  2.9578
15494TIP3   OH267972   2.466   4.802   5.731  0.7893 -0.1536  0.3871
15494TIP3    H167973   2.507   4.733   5.783 -2.8332 -2.2327  0.7204
15494TIP3    H267974   2.426   4.755   5.657  2.0142  2.2005 -1.8276
15495TIP3   OH267975   0.982   0.729   5.206  0.4263  0.5132 -0.6653
15495TIP3    H167976   0.954   0.750   5.117 -0.5060  0.5166 -0.3742
15495TIP3    H267977   1.025   0.810   5.237 -0.0584  0.8169 -0.7865
15496TIP3   OH267978   5.306   5.368  15.786 -0.2789  0.1109  0.1585
15496TIP3    H167979   5.330   5.439  15.727 -0.0985 -0.6816 -0.7345
15496TIP3    H267980   5.362   5.381  15.862  1.9195 -0.8000 -1.2488
15497TIP3   OH267981   0.305   2.630   3.207 -0.1099 -0.5429 -0.1770
15497TIP3    H167982   0.223   2.585   3.189 -1.1201  0.5498  1.5551
15497TIP3    H267983   0.355   2.569   3.262 -0.5685 -0.4485  0.3482
15498TIP3   OH267984   0.240   0.644   3.085 -0.1901  0.5242  0.3968
15498TIP3    H167985   0.153   0.646   3.046 -1.8078 -0.2869  3.8022
15498TIP3    H267986   0.254   0.733   3.117 -0.8221  0.0367  2.0432
15499TIP3   OH267987   4.340   2.913   4.389  0.6401 -0.1157 -0.0125
15499TIP3    H167988   4.427   2.896   4.425  1.0294  0.0280 -0.8673
15499TIP3    H267989   4.302   2.979   4.447  1.3220  0.2246  0.0543
15500TIP3   OH267990   6.305   2.353   4.493  0.6186  0.7413 -0.1873
15500TIP3    H167991   6.366   2.327   4.561  2.0192  0.4597 -1.5180
15500TIP3    H267992   6.333   2.442   4.468  0.2276  0.7759 -0.5080
15501TIP3   OH267993   5.310   2.736  16.901  0.1106 -0.3140  0.1188
15501TIP3    H167994   5.236   2.788  16.869 -1.1360  0.7214  4.4167
15501TIP3    H267995   5.276   2.647  16.909 -0.4486 -0.0064  1.2651
15502TIP3   OH267996   1.237   6.362  16.522  0.2385  0.2713 -0.1043
15502TIP3    H167997   1.265   6.352  16.614  0.5971  0.9671 -0.1345
15502TIP3    H267998   1.247   6.274  16.485  4.0931  0.8136 -0.5582
15503TIP3   OH267999   4.718   6.679   5.671  0.4330 -0.6702 -0.2619
15503TIP3    H168000   4.798   6.641   5.707 -0.7638 -2.1817  0.8772
15503TIP3    H268001   4.706   6.761   5.719  0.8813 -0.8330  0.1253
15504TIP3   OH268002   1.906   2.855  14.067  0.0573  0.3353  0.1607
15504TIP3    H168003   1.835   2.814  14.019 -0.2850 -0.4401  1.3216
15504TIP3    H268004   1.910   2.944  14.032  0.0191 -0.3017 -1.5093
15505TIP3   OH268005   4.350   2.609  17.206  0.7075  0.2589 -0.4189
15505TIP3    H168006   4.357   2.592  17.300 -1.2951 -0.6141 -0.3986
15505TIP3    H268007   4.436   2.587  17.171  1.4868  0.6074  1.2099
15506TIP3   OH268008   6.429   0.825  12.448 -0.4414  0.3499  0.1396
15506TIP3    H168009   6.354   0.817  12.390  0.6264 -1.3945 -1.0860
15506TIP3    H268010   6.504   0.799  12.393  0.8776  0.8404  1.6706
15507TIP3   OH268011   6.646   5.624  10.656  0.4199  0.1754  0.0870
15507TIP3    H168012   6.578   5.675  10.613 -1.6864 -1.9361  0.7591
15507TIP3    H268013   6.618   5.533  10.645  4.3952 -0.9323 -1.6830
15508TIP3   OH268014   1.822   4.506   6.341 -0.4065  0.1187 -0.0148
15508TIP3    H168015   1.837   4.451   6.417 -1.0966 -0.2545 -0.1450
15508TIP3    H268016   1.815   4.445   6.268  0.0338  0.4599 -0.3483
15509TIP3   OH268017   4.966   6.427  13.529  0.2590 -0.3762  0.2138
15509TIP3    H168018   4.988   6.339  13.499  0.9941 -1.0740  2.6491
15509TIP3    H268019   4.963   6.480  13.450 -0.0901 -2.5629 -1.2780
15510TIP3   OH268020   0.340   1.159   2.122  0.1427 -0.3778 -0.0666
15510TIP3    H168021   0.313   1.225   2.058  1.7735  0.2280 -0.1447
15510TIP3    H268022   0.310   1.194   2.206 -1.2925 -0.7974 -0.3812
15511TIP3   OH268023   3.354   6.278   5.051  0.6682  0.0294  0.1031
15511TIP3    H168024   3.394   6.220   4.986 -1.0000 -0.5253 -0.4393
15511TIP3    H268025   3.318   6.219   5.117  0.3049  0.4999  0.3273
15512TIP3   OH268026   4.531   5.991   5.851 -0.3050  0.1305 -0.2224
15512TIP3    H168027   4.596   5.940   5.802 -0.0231 -0.7744  1.0774
15512TIP3    H268028   4.450   5.941   5.842 -0.2593 -0.0204  0.2253
15513TIP3   OH268029   4.596   5.191  12.188  0.4938 -0.2591  0.2188
15513TIP3    H168030   4.519   5.239  12.158 -0.3459 -2.8386 -2.0376
15513TIP3    H268031   4.662   5.207  12.121  1.8211  1.5478  1.9014
15514TIP3   OH268032   2.284   5.797   4.085  0.2859 -0.0924  0.1352
15514TIP3    H168033   2.238   5.720   4.119  1.8063 -0.7063  0.8250
15514TIP3    H268034   2.311   5.771   3.996  0.3482 -0.1655  0.1758
15515TIP3   OH268035   6.352   0.359   4.053  0.0737  0.4346 -0.0747
15515TIP3    H168036   6.375   0.310   3.974  0.9982 -0.1524  0.5485
15515TIP3    H268037   6.257   0.350   4.061  0.3809 -2.3193  0.7357
15516TIP3   OH268038   3.582   4.532  13.147 -0.2467  0.5388  0.4254
15516TIP3    H168039   3.637   4.467  13.105 -0.0404 -0.1762  1.7736
15516TIP3    H268040   3.644   4.594  13.187 -0.4389  1.2841 -0.4142
15517TIP3   OH268041   4.710   3.495  12.540  0.4619  0.4023  0.0575
15517TIP3    H168042   4.797   3.521  12.571  1.1802 -1.1251 -0.5935
15517TIP3    H268043   4.654   3.501  12.617  1.0301  1.9057  0.3675
15518TIP3   OH268044   6.029   1.977  11.624  0.5897  0.5326 -0.0140
15518TIP3    H168045   6.084   2.028  11.565 -0.0245  2.0677  0.7349
15518TIP3    H268046   6.003   1.900  11.572  1.8073  0.7841 -1.0136
15519TIP3   OH268047   1.778   1.404   5.692 -0.6857  0.1160  0.2943
15519TIP3    H168048   1.837   1.385   5.765  1.0471 -0.7119 -1.2630
15519TIP3    H268049   1.799   1.494   5.668 -2.0460  0.7719  1.5038
15520TIP3   OH268050   2.628   5.378  11.425  0.3269  0.5201 -0.6031
15520TIP3    H168051   2.562   5.434  11.384 -0.9004 -1.0815 -0.8804
15520TIP3    H268052   2.625   5.297  11.374  3.0142  0.6494 -1.0456
15521TIP3   OH268053   4.675   0.032  15.056 -0.6223 -0.0400  0.3441
15521TIP3    H168054   4.607   0.001  15.116  0.7636 -1.7046  1.0949
15521TIP3    H268055   4.675   0.127  15.067 -0.7482 -0.2724  2.6093
15522TIP3   OH268056   2.573   2.229   0.808  0.0879  0.4602  0.5586
15522TIP3    H168057   2.489   2.210   0.850  0.4634  1.3693  1.7593
15522TIP3    H268058   2.638   2.194   0.869  0.5920  0.1318 -0.1694
15523TIP3   OH268059   6.071   4.980  12.678  0.0680 -0.1646  0.0937
15523TIP3    H168060   5.978   4.961  12.663 -0.3378  0.2812  1.9558
15523TIP3    H268061   6.096   5.036  12.604 -0.6128 -1.9320 -1.5002
15524TIP3   OH268062   3.013   1.652  15.990  0.7940  0.2508 -0.0092
15524TIP3    H168063   2.943   1.715  15.972  1.0400  0.3731 -0.5292
15524TIP3    H268064   3.036   1.667  16.082 -2.4579 -2.3023  1.3737
15525TIP3   OH268065   3.205   2.902  13.664  0.4348  0.2230  0.3475
15525TIP3    H168066   3.141   2.963  13.702  2.9553  2.4956  1.0669
15525TIP3    H268067   3.233   2.944  13.582  2.9027  0.5524  1.3243
15526TIP3   OH268068   5.041   4.153   0.328  0.1304 -1.0082  0.3111
15526TIP3    H168069   4.989   4.101   0.266 -0.9974 -0.6604  0.9544
15526TIP3    H268070   5.131   4.126   0.311  0.0567  0.5508 -2.8732
15527TIP3   OH268071   5.175   4.449   0.768 -0.5806 -0.0623  0.5321
15527TIP3    H168072   5.125   4.404   0.836 -2.1228  0.4019 -0.2540
15527TIP3    H268073   5.128   4.428   0.687  0.4661  0.4619 -0.2121
15528TIP3   OH268074   3.571   4.045  15.805  0.3833 -0.1749 -0.2278
15528TIP3    H168075   3.533   4.078  15.887  2.0474  1.6582 -0.1548
15528TIP3    H268076   3.651   4.000  15.833 -0.0012 -1.1704 -0.6974
15529TIP3   OH268077   1.593   5.556  10.827  0.1063  0.7017 -0.0612
15529TIP3    H168078   1.509   5.588  10.793 -0.7459 -0.5739  0.7975
15529TIP3    H268079   1.569   5.488  10.890  1.7930  0.3262  0.2020
15530TIP3   OH268080   2.431   1.026   6.474  0.0212 -0.1527  0.0217
15530TIP3    H168081   2.491   1.031   6.549  2.7984 -1.9506 -2.0130
15530TIP3    H268082   2.429   1.115   6.439  2.6213 -0.3582 -0.7225
15531TIP3   OH268083   5.884   3.273  13.246 -0.2309 -0.9663  0.7275
15531TIP3    H168084   5.800   3.314  13.267 -0.6153 -2.6373  2.7105
15531TIP3    H268085   5.917   3.242  13.331  1.2581 -2.3968 -0.3395
15532TIP3   OH268086   0.687   2.110   1.799  0.2473  0.1715  0.3083
15532TIP3    H168087   0.741   2.036   1.769  1.1816  1.3007 -0.8294
15532TIP3    H268088   0.680   2.098   1.894  1.3913 -0.7149  0.2831
15533TIP3   OH268089   0.441   0.969  13.622 -0.4573  0.6328  0.5843
15533TIP3    H168090   0.451   1.002  13.712 -1.9965 -0.0139  1.0096
15533TIP3    H268091   0.359   1.008  13.591 -0.1047  0.5813 -0.4200
15534TIP3   OH268092   2.843   6.199   2.153 -0.0773 -0.7255  0.3785
15534TIP3    H168093   2.811   6.142   2.084 -0.6353  0.5531 -0.4218
15534TIP3    H268094   2.802   6.284   2.136 -0.4072 -0.4524  2.4018
15535TIP3   OH268095   1.099   1.936   3.819 -0.1234 -0.0929  0.2805
15535TIP3    H168096   1.103   1.873   3.891 -0.0508 -1.1498 -0.6478
15535TIP3    H268097   1.031   1.998   3.846 -0.1414 -0.5085  1.2332
15536TIP3   OH268098   0.622   3.978  11.902  0.2992  0.4583 -0.1661
15536TIP3    H168099   0.684   3.920  11.858  0.3631  1.1781 -1.0365
15536TIP3    H268100   0.537   3.935  11.890  0.5462 -0.2444  0.5435
15537TIP3   OH268101   4.396   4.361   6.063  0.0298  0.3165  0.4182
15537TIP3    H168102   4.318   4.306   6.067 -0.3805  0.9547  1.4363
15537TIP3    H268103   4.442   4.343   6.145  0.5433  0.5492  0.1849
15538TIP3   OH268104   5.532   1.671   1.473  0.5483 -0.1973 -0.2816
15538TIP3    H168105   5.540   1.660   1.568 -1.3483  0.8214  0.0416
15538TIP3    H268106   5.588   1.746   1.453 -1.0719  1.2656  0.4850
15539TIP3   OH268107   2.577   2.743   4.721  0.8884 -0.0394  0.2181
15539TIP3    H168108   2.482   2.743   4.712  0.9673  2.7275 -1.0384
15539TIP3    H268109   2.592   2.776   4.809  0.7001  2.0526 -0.5049
15540TIP3   OH268110   2.071   0.056  11.487 -0.2459 -0.2015 -0.0185
15540TIP3    H168111   1.988   0.102  11.478  0.2280  0.3550 -1.8556
15540TIP3    H268112   2.061  -0.022  11.433  0.5641  0.0737 -0.5752
15541TIP3   OH268113   5.735   5.151   3.515 -0.2660 -0.2833 -0.0674
15541TIP3    H168114   5.676   5.082   3.546 -0.3675  0.5450  1.6530
15541TIP3    H268115   5.679   5.228   3.508 -0.0878 -0.2786 -1.6983
15542TIP3   OH268116   3.316   5.170  11.183 -0.5315  0.4519  0.2234
15542TIP3    H168117   3.355   5.098  11.233  0.5487  1.6522  1.1573
15542TIP3    H268118   3.331   5.146  11.092 -0.4999 -0.6800  0.5193
15543TIP3   OH268119   3.417   0.340  14.048  0.3416  0.9689 -0.9198
15543TIP3    H168120   3.482   0.330  13.978 -0.8036 -0.6494 -1.7940
15543TIP3    H268121   3.337   0.302  14.011 -0.5688  1.1154  0.8719
15544TIP3   OH268122   4.954   3.442  14.090  0.0735 -0.3879  0.1259
15544TIP3    H168123   4.952   3.534  14.063  0.2125  0.1171  1.7201
15544TIP3    H268124   4.888   3.437  14.160  1.9830 -0.8249  1.9628
15545TIP3   OH268125   2.978   1.388   5.625 -0.1553  0.3164  0.4025
15545TIP3    H168126   3.060   1.396   5.673 -0.3683  2.4183  0.4616
15545TIP3    H268127   2.981   1.460   5.561 -0.9739 -0.9204 -1.0591
15546TIP3   OH268128   0.881   6.237  15.904  0.1003  0.1446  0.4259
15546TIP3    H168129   0.915   6.158  15.944  1.8397 -0.2744 -1.7662
15546TIP3    H268130   0.885   6.303  15.973  0.0959 -1.2836  1.8142
15547TIP3   OH268131   4.005   2.796  14.205 -0.3950 -1.0439  0.4589
15547TIP3    H168132   3.911   2.812  14.195 -0.2034 -0.6186 -0.8428
15547TIP3    H268133   4.033   2.859  14.271 -0.2365  2.0066 -2.3563
15548TIP3   OH268134   2.555   1.544  15.569 -0.1733  0.0161  0.0021
15548TIP3    H168135   2.516   1.608  15.510  0.4744  0.4115  0.0043
15548TIP3    H268136   2.645   1.533  15.538  0.6603  1.4002  1.8626
15549TIP3   OH268137   3.697   3.469  14.204  1.0573  0.2843  0.4443
15549TIP3    H168138   3.699   3.383  14.247 -0.0415  0.4577  0.8819
15549TIP3    H268139   3.784   3.480  14.167  1.1731 -1.0733  0.2917
15550TIP3   OH268140   3.782   1.193   4.419 -0.5906 -0.1422  0.6624
15550TIP3    H168141   3.820   1.276   4.448 -0.7740 -0.0961  0.7684
15550TIP3    H268142   3.688   1.209   4.416 -0.5564 -0.0764 -0.1787
15551TIP3   OH268143   4.116   3.910   0.015  0.6503  0.5626 -0.2944
15551TIP3    H168144   4.125   3.820  -0.017  0.2432  0.7687 -1.0096
15551TIP3    H268145   4.027   3.913   0.051  0.9659  0.4457  0.5041
15552TIP3   OH268146   1.849   3.407   1.843 -0.0607  0.3517  1.1157
15552TIP3    H168147   1.792   3.448   1.778  0.3001  0.4357  0.8490
15552TIP3    H268148   1.811   3.433   1.927  0.1174  1.1896  0.9503
15553TIP3   OH268149   1.494   6.590   6.875 -0.1793  0.2198  0.3847
15553TIP3    H168150   1.428   6.526   6.902 -1.0847  1.1118  0.3172
15553TIP3    H268151   1.444   6.660   6.834  0.9819  0.0135 -1.4255
15554TIP3   OH268152   1.380   5.835   2.433  0.1683  0.0098 -0.2545
15554TIP3    H168153   1.427   5.843   2.516  1.0695  0.2996 -0.7762
15554TIP3    H268154   1.447   5.805   2.371 -0.4881 -0.1796 -0.8729
15555TIP3   OH268155   0.120   1.353  14.377 -0.2153 -0.0837  0.3200
15555TIP3    H168156   0.171   1.402  14.441  0.3860 -1.8811  1.2843
15555TIP3    H268157   0.131   1.399  14.295 -1.0746  2.3483  1.5190
15556TIP3   OH268158   0.758   1.069   6.693  0.5789 -0.4422  0.5810
15556TIP3    H168159   0.814   1.037   6.764 -0.0590  1.1385  1.8187
15556TIP3    H268160   0.669   1.048   6.722  0.2074  1.6993  1.0184
15557TIP3   OH268161   0.426   2.454   3.369  1.0261  0.0043  0.4030
15557TIP3    H168162   0.377   2.461   3.451  0.8030  1.1156  0.1899
15557TIP3    H268163   0.452   2.362   3.364  1.0388 -0.0751  1.7116
15558TIP3   OH268164   1.289   5.369  16.146 -0.0034  0.0089  0.1610
15558TIP3    H168165   1.270   5.306  16.077  1.2278 -2.6076  2.1199
15558TIP3    H268166   1.316   5.448  16.100  0.1901 -1.4751 -2.3582
15559TIP3   OH268167   5.189   0.680  15.584 -0.0587 -0.5483  0.4987
15559TIP3    H168168   5.280   0.703  15.566 -0.4943  0.9813  0.1975
15559TIP3    H268169   5.181   0.589  15.556  1.2870 -0.5839  0.2166
15560TIP3   OH268170   1.902   4.047  14.698 -0.2765  0.2494 -0.4363
15560TIP3    H168171   1.882   4.128  14.744 -0.3663  0.9793 -1.7476
15560TIP3    H268172   1.997   4.046  14.688 -0.3065  0.3876 -0.7561
15561TIP3   OH268173   2.244   2.280   3.044  0.2807 -0.3523  0.2041
15561TIP3    H168174   2.184   2.335   2.993  0.6662 -0.6519 -0.5821
15561TIP3    H268175   2.223   2.300   3.135 -0.7724 -0.1839 -0.0605
15562TIP3   OH268176   6.786   2.269   0.674  0.0750  0.0093  0.2831
15562TIP3    H168177   6.846   2.204   0.636 -0.1339 -0.7055  1.1682
15562TIP3    H268178   6.843   2.327   0.724  0.3224  0.8075 -0.8973
15563TIP3   OH268179   1.643   0.689   0.167  0.5050 -0.0360  1.0171
15563TIP3    H168180   1.664   0.702   0.259  1.1904 -1.1133  1.0203
15563TIP3    H268181   1.577   0.756   0.148 -0.9510 -0.9553  2.7279
15564TIP3   OH268182   0.380   2.645  14.037  0.0564  0.3970 -0.0672
15564TIP3    H168183   0.443   2.716  14.022 -0.4402  0.7870 -0.3236
15564TIP3    H268184   0.398   2.582  13.967 -1.7522  1.8620 -1.9302
15565TIP3   OH268185   5.201   0.659   3.879 -0.2150 -0.0140 -0.4899
15565TIP3    H168186   5.182   0.750   3.858 -0.3693  0.3317  1.0542
15565TIP3    H268187   5.270   0.664   3.945 -0.6653 -0.9875  0.0580
15566TIP3   OH268188   1.045   3.039  15.322  0.3490  0.0641  0.4285
15566TIP3    H168189   0.953   3.066  15.328  0.8651  1.7201  1.2749
15566TIP3    H268190   1.066   3.047  15.229 -0.0846  0.6573  0.3768
15567TIP3   OH268191   2.027   3.132   1.261  0.1243  0.0409  0.2229
15567TIP3    H168192   2.090   3.080   1.312 -0.7514 -0.1697  1.0935
15567TIP3    H268193   2.075   3.212   1.238  1.2936 -0.8765 -0.6271
15568TIP3   OH268194   1.719   5.007  14.839 -0.3218 -0.0102 -0.3916
15568TIP3    H168195   1.806   4.973  14.860 -0.2352 -0.0475 -0.8076
15568TIP3    H268196   1.734   5.098  14.816 -0.1555 -0.4218 -2.0489
15569TIP3   OH268197   5.196   6.119   0.837 -0.5966 -0.3831 -0.3167
15569TIP3    H168198   5.155   6.035   0.857  0.2820 -0.8824 -0.6094
15569TIP3    H268199   5.288   6.098   0.824  0.0777  0.9664  1.9482
15570TIP3   OH268200   3.800   5.941   4.542  0.5733  0.4562  0.2802
15570TIP3    H168201   3.735   5.933   4.471  0.5932  0.9633  0.2039
15570TIP3    H268202   3.790   6.031   4.573  1.5741  0.6820 -0.0515
15571TIP3   OH268203   1.447   3.735   0.088  0.0950  0.4818  0.0545
15571TIP3    H168204   1.446   3.784   0.170  0.2625  1.3728 -0.4597
15571TIP3    H268205   1.535   3.751   0.052 -0.4363  1.2149 -0.9440
15572TIP3   OH268206   5.324   1.033  15.526  0.5878 -0.4092  0.6939
15572TIP3    H168207   5.326   1.123  15.495 -0.8794 -0.7052 -0.3252
15572TIP3    H268208   5.322   0.980  15.446 -1.0356 -1.2594  1.2801
15573TIP3   OH268209   0.785   5.148  14.316  0.0926  0.5155 -0.4620
15573TIP3    H168210   0.880   5.138  14.312  0.0677  0.6344 -1.4679
15573TIP3    H268211   0.752   5.095  14.243 -0.5151  1.8421 -1.1525
15574TIP3   OH268212   1.902   2.207   2.492  0.1006  0.2805 -0.0589
15574TIP3    H168213   1.836   2.152   2.535 -1.0775  0.8845 -1.0858
15574TIP3    H268214   1.852   2.277   2.451  1.1520 -0.6481 -2.9969
15575TIP3   OH268215   4.756   5.176   3.195 -0.2710 -0.1999  0.2777
15575TIP3    H168216   4.798   5.158   3.111 -0.8076 -0.2697  0.0269
15575TIP3    H268217   4.830   5.191   3.255  0.1173 -0.4847 -0.1232
15576TIP3   OH268218   4.175   2.032   4.376 -0.1855  0.0410 -0.2223
15576TIP3    H168219   4.217   1.947   4.363 -2.0854 -1.0633  0.6133
15576TIP3    H268220   4.226   2.092   4.323  1.6344 -1.4923 -0.2647
15577TIP3   OH268221   3.694   0.627   0.326 -0.2591 -0.3618 -0.2658
15577TIP3    H168222   3.740   0.696   0.374 -1.0310 -0.7940  1.1252
15577TIP3    H268223   3.747   0.548   0.341 -0.8466 -0.6320  0.4406
15578TIP3   OH268224   3.742   5.090  11.588 -0.5116 -0.1713  0.2796
15578TIP3    H168225   3.744   5.184  11.605  1.9565 -0.1614  0.0726
15578TIP3    H268226   3.745   5.049  11.674 -1.0688 -0.0668  0.3492
15579TIP3   OH268227   5.004   1.643  14.159  0.7032  0.0766 -0.1980
15579TIP3    H168228   5.006   1.695  14.239 -3.2595  1.2532 -0.7354
15579TIP3    H268229   4.982   1.555  14.189 -2.6273  0.8807 -0.0105
15580TIP3   OH268230   4.786   2.819   2.347 -0.9757  0.0649  0.0159
15580TIP3    H168231   4.707   2.791   2.301 -0.8232  0.3694 -0.4244
15580TIP3    H268232   4.843   2.742   2.346 -1.3729 -0.2396  0.5688
15581TIP3   OH268233   2.235   1.067   2.071  0.2551  0.2123 -0.1030
15581TIP3    H168234   2.324   1.094   2.048 -1.0678  2.9649 -2.2597
15581TIP3    H268235   2.234   0.972   2.055  3.1507 -0.1210  1.2953
15582TIP3   OH268236   1.310   2.465  12.610 -0.0867 -0.0245  0.5459
15582TIP3    H168237   1.262   2.413  12.546 -1.8555  0.0833  1.7503
15582TIP3    H268238   1.358   2.529  12.558 -1.8034  0.3148 -0.6463
15583TIP3   OH268239   0.171   6.342   0.293 -0.3276  0.2534  0.1085
15583TIP3    H168240   0.193   6.379   0.379  2.5764 -0.4738 -0.2430
15583TIP3    H268241   0.205   6.406   0.231 -0.6386 -0.1756 -0.5012
15584TIP3   OH268242   5.531   5.321  11.068  0.3040  0.6587 -0.5823
15584TIP3    H168243   5.537   5.344  11.160  1.8743  1.1611 -0.8057
15584TIP3    H268244   5.591   5.381  11.023  0.8052 -0.6617 -1.7324
15585TIP3   OH268245   3.826   1.935  12.115  0.0654 -0.0170 -0.4607
15585TIP3    H168246   3.855   1.943  12.206 -0.5992 -1.1929 -0.1350
15585TIP3    H268247   3.906   1.943  12.063  0.6946 -1.1293  0.3216
15586TIP3   OH268248   2.659   0.965   6.643  0.7215  0.0660 -0.0119
15586TIP3    H168249   2.701   0.888   6.605  1.4378  0.0108  0.8548
15586TIP3    H268250   2.728   1.004   6.698 -0.8369 -0.9104  2.7247
15587TIP3   OH268251   3.171   2.079  11.444  0.4216  0.0561  0.9630
15587TIP3    H168252   3.077   2.094  11.454  0.4941  2.0421 -1.0341
15587TIP3    H268253   3.211   2.165  11.455  1.4405  0.3740 -3.9591
15588TIP3   OH268254   3.119   4.267  12.051  0.2226  0.1051  0.1151
15588TIP3    H168255   3.152   4.210  12.121  1.4412  2.0770  1.2239
15588TIP3    H268256   3.159   4.234  11.971  0.8382 -0.6472  0.7286
15589TIP3   OH268257   2.567   1.907  14.962  0.1924 -0.7663 -0.1730
15589TIP3    H168258   2.609   1.899  15.048  0.0354 -1.0728 -0.1267
15589TIP3    H268259   2.526   1.994  14.964 -0.5524 -1.1345  0.3862
15590TIP3   OH268260   2.442   4.964  10.612  0.0090  0.3434  0.0096
15590TIP3    H168261   2.426   4.874  10.585 -1.0584  0.3720  0.5379
15590TIP3    H268262   2.436   5.015  10.532  2.5551 -0.2734 -0.6327
15591TIP3   OH268263   4.349   1.071   2.532  0.3164  0.0493 -0.4773
15591TIP3    H168264   4.427   1.123   2.512  0.7093  0.1205  1.1585
15591TIP3    H268265   4.310   1.052   2.447  0.9705  1.7869 -1.1820
15592TIP3   OH268266   0.663   2.001  13.883 -0.2076  0.0118 -0.2686
15592TIP3    H168267   0.583   2.019  13.833 -0.2208  0.3094 -0.1431
15592TIP3    H268268   0.726   1.969  13.818  0.4741  2.4525 -0.8656
15593TIP3   OH268269   1.279   1.075   2.044 -0.2548 -0.0730 -0.5519
15593TIP3    H168270   1.184   1.071   2.041 -0.2971  0.7189 -0.2781
15593TIP3    H268271   1.307   1.027   1.966 -0.8672 -0.6576 -0.4137
15594TIP3   OH268272   0.656   1.710   3.290 -0.0442 -0.3466 -0.2962
15594TIP3    H168273   0.594   1.774   3.256 -3.5862 -3.0789  0.6783
15594TIP3    H268274   0.679   1.655   3.215  0.5089  0.1152 -0.4678
15595TIP3   OH268275   6.455   2.108  17.165 -0.3689  0.4806 -0.2490
15595TIP3    H168276   6.551   2.113  17.155 -0.5312  0.3666 -2.0570
15595TIP3    H268277   6.442   2.040  17.231  0.7504 -1.2496 -1.7500
15596TIP3   OH268278   5.999   0.680  10.791  0.0325 -0.2919  0.3547
15596TIP3    H168279   5.969   0.647  10.706 -0.3224 -1.4250  0.9027
15596TIP3    H268280   6.070   0.621  10.815  1.6457  1.3770 -0.1705
15597TIP3   OH268281   2.531   4.849  13.318 -0.1426 -0.5514 -0.5592
15597TIP3    H168282   2.593   4.874  13.386  1.7822 -0.7210 -2.2310
15597TIP3    H268283   2.515   4.756  13.332  0.3057 -0.5996 -0.3788
15598TIP3   OH268284   4.703   2.050  15.442  0.2362 -0.8300  0.2412
15598TIP3    H168285   4.701   2.003  15.358  0.3710 -1.5749  0.6555
15598TIP3    H268286   4.611   2.062  15.465  0.0371  3.0589 -2.0548
15599TIP3   OH268287   6.623   0.866  13.583  0.2184  0.4378 -0.1587
15599TIP3    H168288   6.632   0.863  13.487 -1.8964  1.7650 -0.4235
15599TIP3    H268289   6.665   0.785  13.613  1.8191  0.5042 -2.1247
15600TIP3   OH268290   1.992   3.896   3.196  0.0338 -0.6400 -0.7454
15600TIP3    H168291   2.069   3.848   3.163  0.8230  0.3544 -0.3934
15600TIP3    H268292   2.022   3.935   3.278 -1.0008 -0.6175 -0.3719
15601TIP3   OH268293   2.187   3.148  15.788  0.1088  0.8768  0.4695
15601TIP3    H168294   2.160   3.222  15.734  0.7602  0.8019  0.0478
15601TIP3    H268295   2.187   3.183  15.877  1.9177  1.8200  0.1145
15602TIP3   OH268296   2.526   6.144   2.905 -0.1700 -0.6689  0.0750
15602TIP3    H168297   2.619   6.121   2.898 -0.2865 -1.1083 -0.0723
15602TIP3    H268298   2.480   6.062   2.886 -0.5806 -0.6075  0.7751
15603TIP3   OH268299   5.337   4.748  16.119  0.1559  0.0357 -0.0131
15603TIP3    H168300   5.427   4.722  16.096  0.2661 -0.1275  0.5860
15603TIP3    H268301   5.342   4.767  16.213  0.0573  2.1451 -0.4207
15604TIP3   OH268302   1.699   4.062   6.061  0.0841 -0.9204 -0.1292
15604TIP3    H168303   1.759   4.072   6.135  0.6721 -0.8039 -0.6257
15604TIP3    H268304   1.615   4.041   6.102 -0.8853  4.2692  0.9016
15605TIP3   OH268305   2.607   3.632   3.334  0.3831  1.1243  0.1854
15605TIP3    H168306   2.592   3.715   3.378  1.1774  1.5309 -0.3067
15605TIP3    H268307   2.617   3.654   3.242 -3.3730  0.0652 -0.5841
15606TIP3   OH268308   5.058   0.054   1.164 -0.1902  0.3383 -0.3839
15606TIP3    H168309   4.964   0.063   1.147 -0.1003  0.7036 -0.7136
15606TIP3    H268310   5.074  -0.040   1.166 -0.4518  0.2828 -0.9576
15607TIP3   OH268311   4.037   2.645   5.012 -0.2485 -0.3161  0.1598
15607TIP3    H168312   4.020   2.625   5.103 -0.6371 -0.7303 -0.0040
15607TIP3    H268313   4.003   2.570   4.963  0.5318 -0.3921 -0.2829
15608TIP3   OH268314   5.915   1.504   3.788  0.4070 -0.0078  0.0924
15608TIP3    H168315   5.851   1.564   3.827  0.2009 -0.1060 -0.0983
15608TIP3    H268316   5.964   1.559   3.727 -0.2485 -0.1891 -0.6070
15609TIP3   OH268317   4.130   3.432   1.704  0.5688 -0.1953 -0.4075
15609TIP3    H168318   4.102   3.502   1.646 -0.2295  0.4293  0.7040
15609TIP3    H268319   4.202   3.390   1.658  1.6609  1.9270 -0.7194
15610TIP3   OH268320   0.231   1.629   3.480  0.5338 -0.2159  0.0850
15610TIP3    H168321   0.294   1.558   3.470  1.0778  0.1318  0.9536
15610TIP3    H268322   0.245   1.661   3.570  1.8712  2.4453 -1.0118
15611TIP3   OH268323   5.547   1.040   2.729  0.6497 -0.4278 -0.1664
15611TIP3    H168324   5.548   1.120   2.677  2.1454 -0.7052 -0.5788
15611TIP3    H268325   5.588   1.064   2.812  2.0657 -1.0146 -0.6822
15612TIP3   OH268326   3.436   5.284  17.248 -0.3154  0.2404 -0.3156
15612TIP3    H168327   3.485   5.359  17.282 -0.5222 -0.1758  0.9175
15612TIP3    H268328   3.373   5.323  17.186 -0.5167  1.1050  0.4153
15613TIP3   OH268329   4.002   4.363  16.864  0.5155  0.1103  0.6795
15613TIP3    H168330   4.020   4.281  16.911  1.2792  0.7405  1.5075
15613TIP3    H268331   3.993   4.336  16.772  1.2069 -0.8441  0.8805
15614TIP3   OH268332   4.285   6.571   0.577 -0.5323 -0.6996 -0.5567
15614TIP3    H168333   4.364   6.610   0.614  0.5216 -1.7103 -1.6877
15614TIP3    H268334   4.242   6.529   0.652 -0.5835  0.7982  0.2647
15615TIP3   OH268335   6.034   3.632  16.684  0.1492 -0.3249 -0.5534
15615TIP3    H168336   6.098   3.702  16.697 -0.1550  0.1072 -1.3233
15615TIP3    H268337   6.046   3.606  16.593  0.5997 -1.6297 -0.1340
15616TIP3   OH268338   0.291   5.491  16.948 -0.2760 -0.1045 -0.3709
15616TIP3    H168339   0.219   5.550  16.971  0.9928  2.0433 -1.7344
15616TIP3    H268340   0.260   5.404  16.974 -2.1933  1.1467  1.6911
15617TIP3   OH268341   3.517   6.639   0.751  0.5063 -0.0810  0.4476
15617TIP3    H168342   3.566   6.590   0.685 -0.4394  0.6198 -0.7765
15617TIP3    H268343   3.558   6.613   0.834  0.4019 -2.4803 -0.2180
15618TIP3   OH268344   6.591   5.452  15.745 -0.5740  0.3345 -0.0815
15618TIP3    H168345   6.640   5.388  15.692  0.5142  2.6875 -2.0098
15618TIP3    H268346   6.501   5.443  15.716 -0.2571  0.3864 -1.1180
15619TIP3   OH268347   5.223   4.839   5.468 -0.1827 -0.6718  0.1250
15619TIP3    H168348   5.303   4.866   5.512 -0.4765 -0.1844  0.3596
15619TIP3    H268349   5.161   4.910   5.484 -0.0591 -0.1261 -1.7151
15620TIP3   OH268350   2.660   4.414   3.794 -0.9651 -0.2539 -0.2453
15620TIP3    H168351   2.682   4.506   3.810 -0.7190 -0.4534  0.5711
15620TIP3    H268352   2.660   4.374   3.880  1.0064 -1.5026 -0.7928
15621TIP3   OH268353   3.910   2.383   2.774  0.0784  0.4024  0.2136
15621TIP3    H168354   3.977   2.353   2.836  0.3588  1.1932  0.2972
15621TIP3    H268355   3.828   2.372   2.822  0.0415 -1.4949 -0.2398
15622TIP3   OH268356   1.211   3.389  14.093  0.1128 -0.3382 -0.4082
15622TIP3    H168357   1.169   3.473  14.110 -0.9191 -0.9203 -0.0611
15622TIP3    H268358   1.259   3.369  14.174  2.6671  1.2306 -1.4631
15623TIP3   OH268359   2.493   1.717   2.477 -0.6158  0.2127  0.2274
15623TIP3    H168360   2.543   1.790   2.441  0.2404 -0.4974 -0.0667
15623TIP3    H268361   2.414   1.712   2.424 -0.6731  0.9262  0.2491
15624TIP3   OH268362   2.330   1.827   2.082 -0.6363 -0.8427 -0.4607
15624TIP3    H168363   2.305   1.783   2.163 -0.4762 -2.7279 -1.4088
15624TIP3    H268364   2.424   1.809   2.072  0.0600  2.0124  0.5158
15625TIP3   OH268365   4.536   3.295  16.565  0.0344  0.2098  0.4139
15625TIP3    H168366   4.626   3.271  16.546  0.1254  2.1204 -1.7427
15625TIP3    H268367   4.497   3.216  16.602  1.9457 -1.3597 -0.8622
15626TIP3   OH268368   6.788   6.620   1.642  0.2193 -0.2896 -0.2365
15626TIP3    H168369   6.787   6.525   1.655 -0.8123 -0.0423  1.6425
15626TIP3    H268370   6.870   6.649   1.683  1.7217 -0.6265 -2.9314
15627TIP3   OH268371   3.091   6.383   4.323  0.3055  0.0829  0.5116
15627TIP3    H168372   3.007   6.341   4.340 -0.9489  2.0621 -0.6228
15627TIP3    H268373   3.154   6.311   4.323 -1.6373 -1.6674 -0.3868
15628TIP3   OH268374   6.560   4.048  16.916 -0.2742 -0.2692 -0.2728
15628TIP3    H168375   6.569   3.957  16.890 -1.6151  0.1265 -2.2103
15628TIP3    H268376   6.642   4.090  16.888 -0.6292 -0.3914 -1.4804
15629TIP3   OH268377   5.095   2.291   2.423  0.5114  0.5852  0.0809
15629TIP3    H168378   5.047   2.332   2.351  0.2435 -0.7068 -0.4861
15629TIP3    H268379   5.156   2.231   2.380  2.1755  1.7205  0.8327
15630TIP3   OH268380   6.151   3.430   4.560  0.6181  0.6263 -0.7984
15630TIP3    H168381   6.226   3.457   4.508  1.1925  0.7400  0.0773
15630TIP3    H268382   6.086   3.499   4.547  0.5754  0.4052 -1.7463
15631TIP3   OH268383   4.195   5.080  14.818  0.3062  0.7393  0.2592
15631TIP3    H168384   4.254   5.011  14.787 -0.5174 -0.2701  0.8863
15631TIP3    H268385   4.157   5.116  14.739  1.7610  1.4135 -0.1564
15632TIP3   OH268386   4.485   0.565   1.166  0.0187  0.0809 -0.0231
15632TIP3    H168387   4.394   0.542   1.149 -0.1295  1.0923 -0.6379
15632TIP3    H268388   4.534   0.484   1.151 -0.4345  0.2315 -2.5197
15633TIP3   OH268389   4.775   2.172   4.870 -0.0647  0.0974 -0.2656
15633TIP3    H168390   4.776   2.263   4.900  0.7850 -0.4306  1.3650
15633TIP3    H268391   4.867   2.147   4.865 -0.3179 -1.1421  0.8108
15634TIP3   OH268392   2.630   5.358  11.980  0.5120 -0.2407  0.5801
15634TIP3    H168393   2.597   5.447  11.978  1.6271  0.1661 -0.9523
15634TIP3    H268394   2.725   5.368  11.973  0.7509 -1.4991  1.7565
15635TIP3   OH268395   2.538   5.719   4.389 -0.4644 -0.6574  0.2937
15635TIP3    H168396   2.583   5.699   4.471 -0.3768 -1.9011 -0.0416
15635TIP3    H268397   2.454   5.756   4.416 -0.3994 -0.9746  0.9453
15636TIP3   OH268398   6.271   3.907  16.033  0.2737  0.0698 -0.3397
15636TIP3    H168399   6.350   3.867  15.997  0.3240 -0.1068 -0.0416
15636TIP3    H268400   6.199   3.856  15.995  0.3246 -0.0995 -0.2070
15637TIP3   OH268401   2.497   1.910   1.095  0.4385 -0.7112 -0.7793
15637TIP3    H168402   2.473   1.837   1.153  0.3308  0.8368  1.1680
15637TIP3    H268403   2.592   1.919   1.107  0.0362  1.3010  1.2233
15638TIP3   OH268404   4.955   2.590  15.480 -0.1736 -0.3979 -0.1145
15638TIP3    H168405   5.018   2.607  15.551  0.9651 -0.0433 -1.1893
15638TIP3    H268406   4.905   2.515  15.511 -0.9115  0.8431  1.8570
15639TIP3   OH268407   1.814   5.559   0.335 -0.3246  0.2669  0.2861
15639TIP3    H168408   1.841   5.480   0.382 -0.5317  1.3235  2.2683
15639TIP3    H268409   1.893   5.612   0.329 -0.5140  0.5505  0.2802
15640TIP3   OH268410   3.997   3.259   1.101  0.6254 -0.7502 -0.3765
15640TIP3    H168411   3.961   3.343   1.130 -2.9179 -2.9374  1.7834
15640TIP3    H268412   3.981   3.258   1.006 -1.0382  0.1982 -0.1203
15641TIP3   OH268413   0.671   1.444   1.431  0.8169 -0.6835 -0.5369
15641TIP3    H168414   0.731   1.377   1.466  0.8073  0.6038  2.0388
15641TIP3    H268415   0.622   1.475   1.508 -0.2294  1.2309 -1.9407
15642TIP3   OH268416   0.719   0.581   4.743 -0.2057  0.0698  0.0596
15642TIP3    H168417   0.789   0.531   4.784  0.4141  1.0598  0.2163
15642TIP3    H268418   0.696   0.531   4.665  0.0227 -0.7473  0.5122
15643TIP3   OH268419   5.857   3.757  12.570  0.4033 -0.4452 -0.1156
15643TIP3    H168420   5.903   3.680  12.605 -0.3977 -0.7958  0.1687
15643TIP3    H268421   5.797   3.722  12.504  0.9227  0.0732 -0.8754
15644TIP3   OH268422   5.752   0.261  16.389 -0.3778  0.3438  0.2148
15644TIP3    H168423   5.708   0.244  16.472 -0.2018  1.0758  0.4582
15644TIP3    H268424   5.687   0.307  16.336 -0.6395 -0.5081 -0.2201
15645TIP3   OH268425   0.829   1.643  16.596  0.6264  0.3217 -0.0375
15645TIP3    H168426   0.805   1.577  16.661 -1.1226 -0.2664 -1.2512
15645TIP3    H268427   0.910   1.610  16.556  2.1955  1.1026  2.3777
15646TIP3   OH268428   1.824   1.759   2.401  0.1059  0.1150 -0.0101
15646TIP3    H168429   1.908   1.805   2.405  0.9434 -1.2706 -1.1741
15646TIP3    H268430   1.842   1.682   2.348 -1.8880 -0.2677 -0.1517
15647TIP3   OH268431   0.854   6.425  13.932 -0.3901  0.1569 -0.0380
15647TIP3    H168432   0.872   6.385  14.017  1.7388  1.3550  0.0965
15647TIP3    H268433   0.875   6.357  13.868 -0.4423 -0.2048  0.3298
15648TIP3   OH268434   0.825   6.159  13.025 -0.0604 -0.2160  0.5504
15648TIP3    H168435   0.871   6.076  13.015 -0.2249 -0.2608  0.1452
15648TIP3    H268436   0.800   6.184  12.935  1.3991  1.0738  0.4881
15649TIP3   OH268437   1.532   5.502   4.761  0.2072 -0.0808 -0.0658
15649TIP3    H168438   1.605   5.440   4.755 -0.8158 -1.1722 -1.5234
15649TIP3    H268439   1.454   5.448   4.764 -0.8599  1.0940 -3.7119
15650TIP3   OH268440   1.764   0.103  15.727 -0.3768 -0.7698 -0.4166
15650TIP3    H168441   1.694   0.099  15.662 -0.6396 -0.2542 -0.1607
15650TIP3    H268442   1.845   0.100  15.675 -0.5416  2.9432 -1.0177
15651TIP3   OH268443   1.460   0.085  15.729 -0.2849 -0.2488 -0.1566
15651TIP3    H168444   1.497   0.094  15.816  0.6141 -0.9895 -0.4523
15651TIP3    H268445   1.388   0.023  15.740 -0.0511 -0.4903  0.0257
15652TIP3   OH268446   5.609   4.215  16.315  0.4618 -0.0976 -0.2960
15652TIP3    H168447   5.648   4.300  16.295  2.0803 -0.8451 -0.3825
15652TIP3    H268448   5.522   4.236  16.350  0.5835  1.5522 -0.9324
15653TIP3   OH268449   3.604   5.961  16.194  0.7152  0.4269 -0.0949
15653TIP3    H168450   3.639   6.020  16.127  0.2930  1.9946  1.0316
15653TIP3    H268451   3.519   5.998  16.216 -0.1976 -1.4625 -0.4104
15654TIP3   OH268452   0.291   3.705   2.428 -0.0943  0.1286  0.5141
15654TIP3    H168453   0.302   3.629   2.484  0.3939  0.4748  0.8900
15654TIP3    H268454   0.349   3.688   2.353  0.4012  0.3562  0.8392
15655TIP3   OH268455   1.265   6.315   6.696  0.2846  0.3158 -0.0805
15655TIP3    H168456   1.299   6.348   6.779  0.3533  1.5731 -0.5972
15655TIP3    H268457   1.186   6.266   6.720  1.0405 -0.4552  0.8526
15656TIP3   OH268458   5.745   2.292   3.188  0.5258 -0.0788  0.6823
15656TIP3    H168459   5.704   2.377   3.203 -2.2535 -0.8562 -2.0014
15656TIP3    H268460   5.737   2.278   3.093  0.8069 -3.3654  1.0833
15657TIP3   OH268461   5.427   4.009  14.923 -0.1430  0.0162 -0.2898
15657TIP3    H168462   5.358   4.062  14.963  0.0861  0.1577 -0.0768
15657TIP3    H268463   5.508   4.046  14.959  0.2098  1.6975 -2.7069
15658TIP3   OH268464   3.179   4.779   5.944 -0.1455 -0.1409  0.1246
15658TIP3    H168465   3.234   4.806   6.018  0.7767 -3.0671  0.5698
15658TIP3    H268466   3.208   4.833   5.871  1.3152  0.3847  1.0723
15659TIP3   OH268467   3.620   3.780  11.315  0.3228  0.1658  0.0460
15659TIP3    H168468   3.630   3.828  11.398 -0.4542 -1.5674  1.1682
15659TIP3    H268469   3.530   3.799  11.287  0.3421  0.1600 -0.0193
15660TIP3   OH268470   5.109   0.666   2.604 -0.1330  0.4608  0.2932
15660TIP3    H168471   5.164   0.602   2.560 -0.9992 -0.5427  0.6540
15660TIP3    H268472   5.140   0.667   2.695 -1.0805 -0.5331  0.6349
15661TIP3   OH268473   5.877   5.510  13.096  0.2828 -0.0115 -0.2581
15661TIP3    H168474   5.860   5.423  13.133 -2.0338  0.2888 -0.5747
15661TIP3    H268475   5.931   5.493  13.019 -1.9067 -1.3971 -1.5418
15662TIP3   OH268476   0.020   1.658  11.345 -0.5215  0.5327  0.5223
15662TIP3    H168477   0.071   1.594  11.394 -1.3438 -0.3804  0.1918
15662TIP3    H268478  -0.047   1.607  11.300 -0.5586  1.4964 -0.5561
15663TIP3   OH268479   2.373   6.663   5.948 -0.1043  0.2189 -0.9687
15663TIP3    H168480   2.383   6.736   5.887  0.9139 -0.5330 -1.7149
15663TIP3    H268481   2.419   6.691   6.027  0.5519  0.2557 -1.3625
15664TIP3   OH268482   1.768   4.911  12.269  0.2396  0.1259 -0.2224
15664TIP3    H168483   1.729   4.982  12.319 -0.4539  0.8514 -1.7790
15664TIP3    H268484   1.853   4.895  12.312  0.0408  1.3158  0.6358
15665TIP3   OH268485   0.200   5.566   0.681  0.3416 -0.6367  0.5687
15665TIP3    H168486   0.274   5.520   0.640  0.2792  0.7888 -1.2249
15665TIP3    H268487   0.123   5.534   0.635  0.0217 -0.7421  1.1683
15666TIP3   OH268488   1.558   3.267   2.176 -0.2197  0.2590  0.4504
15666TIP3    H168489   1.464   3.278   2.165 -0.0434  1.4632  0.1016
15666TIP3    H268490   1.567   3.186   2.226 -1.4133 -0.1832 -0.0246
15667TIP3   OH268491   4.307   3.322   3.364 -0.9740 -0.2332  0.4498
15667TIP3    H168492   4.322   3.351   3.455  1.7720 -2.1345  0.6687
15667TIP3    H268493   4.263   3.238   3.373 -2.3385  0.4194 -0.0441
15668TIP3   OH268494   6.640   1.530  11.232 -0.3688  0.1935 -0.1420
15668TIP3    H168495   6.571   1.489  11.285 -0.6714  0.4207 -0.3577
15668TIP3    H268496   6.644   1.476  11.153  0.9354 -0.8848  0.6376
15669TIP3   OH268497   4.060   6.500   4.955 -0.1961  0.6128 -0.2228
15669TIP3    H168498   4.130   6.534   5.011 -0.4857 -1.3363  1.3891
15669TIP3    H268499   4.094   6.511   4.866  1.3880  1.3892  0.4520
15670TIP3   OH268500   3.667   4.372   2.344  0.4712  0.0915  0.4159
15670TIP3    H168501   3.588   4.406   2.386  0.7832  0.8924  0.3768
15670TIP3    H268502   3.732   4.442   2.356  1.3704 -0.8433  1.0365
15671TIP3   OH268503   3.951   6.389   1.889  0.4771 -0.0137  0.0964
15671TIP3    H168504   3.960   6.408   1.983  2.3097 -1.2035  0.1874
15671TIP3    H268505   4.035   6.416   1.852 -0.2840  0.5523 -1.2374
15672TIP3   OH268506   5.643   6.143  14.502  0.5324 -0.2316  0.1065
15672TIP3    H168507   5.617   6.132  14.410  1.4489 -1.5886 -0.0132
15672TIP3    H268508   5.675   6.233  14.507  1.7116 -0.5550 -1.2315
15673TIP3   OH268509   3.547   4.075  16.254 -0.4946  0.3097 -0.6864
15673TIP3    H168510   3.531   4.106  16.165 -0.7487  0.4204 -0.6013
15673TIP3    H268511   3.478   4.114  16.307  0.5302  1.4605 -0.1682
15674TIP3   OH268512   0.828   4.817   0.482  0.1835  0.5419  0.2232
15674TIP3    H168513   0.908   4.809   0.430 -0.3093 -2.1859 -0.1874
15674TIP3    H268514   0.761   4.846   0.419  0.1690 -0.1933 -0.1038
15675TIP3   OH268515   0.450   4.351  11.663  0.2344 -0.3510 -0.2206
15675TIP3    H168516   0.359   4.323  11.665  0.7339 -1.9829 -0.2003
15675TIP3    H268517   0.498   4.282  11.708  1.6332 -0.0371 -1.1991
15676TIP3   OH268518   2.966   0.587   2.352 -0.1106 -1.1098  0.0924
15676TIP3    H168519   2.933   0.677   2.348  0.0033 -0.8694  2.9276
15676TIP3    H268520   3.057   0.596   2.380 -0.0698 -2.0921  0.3050
15677TIP3   OH268521   1.782   2.494  10.641 -0.4844  0.1110 -0.1162
15677TIP3    H168522   1.755   2.419  10.693 -0.3052  0.4484  0.4760
15677TIP3    H268523   1.704   2.517  10.590 -0.7727 -0.0087  0.2650
15678TIP3   OH268524   1.211   2.376   2.538  0.9918 -0.1451  0.0573
15678TIP3    H168525   1.158   2.298   2.551 -1.8849  1.6994 -0.0885
15678TIP3    H268526   1.158   2.433   2.483  3.2512  1.7063 -0.3267
15679TIP3   OH268527   1.016   2.319   3.180 -0.3053 -0.0715 -0.1034
15679TIP3    H168528   0.973   2.276   3.106  0.5239 -1.9986  0.5277
15679TIP3    H268529   1.103   2.343   3.147  0.8299 -2.7709  0.8354
15680TIP3   OH268530   1.331   5.445  13.811  0.5998 -0.6731 -0.1290
15680TIP3    H168531   1.247   5.465  13.770  1.7172  2.0619 -1.1710
15680TIP3    H268532   1.381   5.400  13.743 -0.0774 -2.4900  0.5600
15681TIP3   OH268533   6.323   2.342  14.036 -0.0204 -0.6929 -0.7337
15681TIP3    H168534   6.250   2.327  13.976 -1.3684  3.5766 -0.3208
15681TIP3    H268535   6.373   2.413  13.996  0.2587  0.7633  2.1019
15682TIP3   OH268536   6.490   3.592  12.048 -0.5399  0.1821 -0.3602
15682TIP3    H168537   6.546   3.563  11.976 -2.0076 -1.2557 -0.9623
15682TIP3    H268538   6.545   3.584  12.126 -0.1052 -1.8543 -0.8465
15683TIP3   OH268539   4.328   6.186   0.051  0.0510 -0.1299 -0.2915
15683TIP3    H168540   4.360   6.198   0.141 -0.6415  1.1713 -0.1995
15683TIP3    H268541   4.405   6.163   0.000  0.3127 -1.7121  0.7909
15684TIP3   OH268542   4.108   4.616   6.346 -0.0688  0.0285 -0.1704
15684TIP3    H168543   4.086   4.701   6.384  0.9910 -0.6257  2.0047
15684TIP3    H268544   4.198   4.626   6.314 -0.0193 -0.2113 -0.1075
15685TIP3   OH268545   0.860   1.390   2.793  0.1004  0.0961  0.5116
15685TIP3    H168546   0.953   1.380   2.776 -0.3005 -1.6808 -0.9731
15685TIP3    H268547   0.841   1.326   2.862 -0.3646 -1.0893 -0.6789
15686TIP3   OH268548   6.116   4.657   3.062 -0.5483 -0.4228  0.0496
15686TIP3    H168549   6.158   4.588   3.113 -1.2336  0.2890  1.6254
15686TIP3    H268550   6.024   4.654   3.089 -0.9528 -0.1581 -1.2937
15687TIP3   OH268551   4.796   6.214  12.376  0.6867 -0.2855 -0.4705
15687TIP3    H168552   4.812   6.140  12.318 -0.8458 -1.9420  1.1545
15687TIP3    H268553   4.746   6.177  12.449 -0.0456  2.3419  0.4177
15688TIP3   OH268554   1.819   3.913  11.634  0.0976  0.2568 -0.1519
15688TIP3    H168555   1.874   3.891  11.559 -0.8846 -0.5993 -0.6200
15688TIP3    H268556   1.804   4.007  11.626  2.2140  0.6909  0.4698
15689TIP3   OH268557   4.429   5.135   2.890  0.1556 -0.1430  0.0208
15689TIP3    H168558   4.475   5.129   2.806  0.0592 -2.5113  0.0805
15689TIP3    H268559   4.343   5.096   2.873 -0.3666  0.5953  0.8978
15690TIP3   OH268560   3.740   0.933   3.412 -0.7607 -0.2093 -0.0017
15690TIP3    H168561   3.772   1.002   3.354 -1.9476  0.0564 -0.3460
15690TIP3    H268562   3.755   0.852   3.363 -1.5771 -0.0012 -0.6024
15691TIP3   OH268563   5.475   3.570   5.157 -0.1185  0.4583 -0.0482
15691TIP3    H168564   5.434   3.577   5.071  1.2926  3.8608 -0.5162
15691TIP3    H268565   5.403   3.582   5.219 -0.6200  1.4640 -0.8077
15692TIP3   OH268566   4.285   4.997  15.795 -0.5678 -0.4320  0.3360
15692TIP3    H168567   4.261   5.073  15.742  0.2769 -1.6845 -1.8785
15692TIP3    H268568   4.205   4.946  15.802 -0.3698 -0.9134 -0.8404
15693TIP3   OH268569   1.971   1.027   3.081  0.7122 -0.5018 -0.2920
15693TIP3    H168570   1.992   1.060   2.994  1.4970 -0.3538 -0.0569
15693TIP3    H268571   1.958   0.933   3.069  0.6681 -0.4569 -0.5924
15694TIP3   OH268572   4.153   4.356  15.826 -0.0017  0.1492  0.1792
15694TIP3    H168573   4.069   4.325  15.792  0.2166 -1.2026  0.8215
15694TIP3    H268574   4.218   4.309  15.774  0.3610  1.2225 -0.3456
15695TIP3   OH268575   2.213   5.059  11.863 -0.1693 -0.0709 -0.2436
15695TIP3    H168576   2.263   4.977  11.858 -0.8516 -0.5420  0.5025
15695TIP3    H268577   2.190   5.067  11.955  0.9312  1.6154 -0.0986
15696TIP3   OH268578   2.794   1.172  12.128 -0.1731  0.0518  0.4393
15696TIP3    H168579   2.820   1.159  12.037 -0.2283  0.7927  0.3157
15696TIP3    H268580   2.765   1.086  12.157  0.4304 -0.3229 -0.0552
15697TIP3   OH268581   1.564   4.678  16.138 -0.4114 -0.1733  0.0502
15697TIP3    H168582   1.625   4.646  16.071  0.8771 -1.8618  1.9585
15697TIP3    H268583   1.588   4.770  16.150  0.4606 -0.3042 -0.6305
15698TIP3   OH268584   3.911   3.290   6.001  0.5181  0.0140 -0.0887
15698TIP3    H168585   3.850   3.336   5.944  0.5814 -0.9927 -0.9687
15698TIP3    H268586   3.996   3.331   5.984  0.1842  1.0661  0.7588
15699TIP3   OH268587   5.835   0.695   4.947  0.1807 -0.7989  0.1298
15699TIP3    H168588   5.924   0.670   4.921  0.1899 -0.2080 -0.4022
15699TIP3    H268589   5.836   0.688   5.043  1.7168  2.1617  0.3676
15700TIP3   OH268590   5.962   0.457   3.481 -0.8977 -0.2534 -0.4720
15700TIP3    H168591   6.053   0.471   3.453 -1.2394 -0.5296 -1.7379
15700TIP3    H268592   5.968   0.388   3.547 -0.3194 -1.1455 -1.4378
15701TIP3   OH268593   3.793   5.841   0.003  0.0162  0.0606  0.0370
15701TIP3    H168594   3.847   5.911  -0.035  1.2446  0.1558  1.9206
15701TIP3    H268595   3.838   5.760  -0.020 -0.3513 -0.0111 -0.4498
15702TIP3   OH268596   1.579   0.382  16.227 -0.0453 -0.1325  0.5130
15702TIP3    H168597   1.643   0.404  16.295  1.1405 -1.5973 -0.1055
15702TIP3    H268598   1.626   0.395  16.145 -1.3732  1.3194 -0.0426
15703TIP3   OH268599   6.392   4.978  15.413  0.3926 -0.0260 -0.3383
15703TIP3    H168600   6.409   4.924  15.336 -1.0758  0.4172 -1.0044
15703TIP3    H268601   6.307   4.948  15.445  0.6034  0.3727  0.6238
15704TIP3   OH268602   1.024   3.046   6.513  0.4160 -0.9262  0.2951
15704TIP3    H168603   1.032   3.102   6.591  0.5089  0.7325 -0.8849
15704TIP3    H268604   1.084   2.974   6.530  0.1090 -0.8300  1.9596
15705TIP3   OH268605   3.250   6.128   3.246 -0.2366  0.4928 -0.3413
15705TIP3    H168606   3.307   6.132   3.170  0.8795 -1.1540  0.3785
15705TIP3    H268607   3.206   6.213   3.248  0.5873  0.9814 -2.1343
15706TIP3   OH268608   4.346   5.863   0.375 -0.2356  0.1988  0.2895
15706TIP3    H168609   4.379   5.950   0.352  2.2889 -0.4048  1.4713
15706TIP3    H268610   4.330   5.867   0.469 -0.5102 -0.4753  0.2745
15707TIP3   OH268611   4.689   1.930   0.136  0.3889  0.0216  0.5138
15707TIP3    H168612   4.687   1.986   0.214  1.4567  1.0173 -0.1632
15707TIP3    H268613   4.704   1.842   0.170  0.0593  0.3345  1.4889
15708TIP3   OH268614   0.682   1.191  13.308  0.0508 -0.5100 -0.0769
15708TIP3    H168615   0.597   1.234  13.318  0.0173 -0.6792  0.3853
15708TIP3    H268616   0.661   1.107  13.267  0.2602  0.4662 -2.2577
15709TIP3   OH268617   3.048   2.294   6.522  0.5737  0.3527  0.5447
15709TIP3    H168618   3.135   2.254   6.519  0.6747  0.5076  1.2499
15709TIP3    H268619   3.019   2.280   6.612  0.3327  1.2881  0.6073
15710TIP3   OH268620   3.177   6.267   2.659  0.4706  0.0049  0.3911
15710TIP3    H168621   3.255   6.265   2.603 -0.9383 -1.1165 -1.6136
15710TIP3    H268622   3.173   6.178   2.696  0.2550  0.1304  0.6685
15711TIP3   OH268623   4.919   1.489  16.907 -0.0542  0.3352 -0.2353
15711TIP3    H168624   4.899   1.580  16.924 -3.4623 -0.5040  0.4879
15711TIP3    H268625   5.009   1.478  16.939  0.9578  3.7386 -1.7155
15712TIP3   OH268626   4.895   3.049   6.378  0.3690 -0.8433  0.1083
15712TIP3    H168627   4.951   3.110   6.331  0.3432 -0.1021  1.0162
15712TIP3    H268628   4.810   3.056   6.335  0.3847 -0.2903  0.1673
15713TIP3   OH268629   2.310   2.579  13.378  0.4674  0.4062  0.5562
15713TIP3    H168630   2.392   2.551  13.339 -0.1183 -0.2571 -0.2119
15713TIP3    H268631   2.251   2.505  13.364 -0.6647  1.4356 -0.1468
15714TIP3   OH268632   0.337   5.965   1.928 -0.0363 -0.3781 -0.0228
15714TIP3    H168633   0.387   6.012   1.860 -1.2414 -0.2581 -0.8320
15714TIP3    H268634   0.383   5.987   2.010  2.1329 -1.4832 -0.9142
15715TIP3   OH268635   5.007   4.199  15.696  0.3811 -0.1094 -0.1237
15715TIP3    H168636   4.944   4.208  15.625 -0.4971  0.0200  0.6677
15715TIP3    H268637   5.027   4.105  15.699 -0.2517 -0.2360  0.0387
15716TIP3   OH268638   6.468   1.309   4.477  0.7647 -0.4047 -0.6470
15716TIP3    H168639   6.462   1.397   4.514 -2.1161  0.0105 -1.9446
15716TIP3    H268640   6.508   1.256   4.546  0.4144  1.4530  1.0170
15717TIP3   OH268641   1.987   4.031   3.659  0.0204 -0.0948  0.2746
15717TIP3    H168642   1.894   4.037   3.676  0.1913  0.7758  0.9456
15717TIP3    H268643   2.023   3.988   3.736  0.2615  0.2178  0.3400
15718TIP3   OH268644   0.430   6.163   1.770 -0.1363 -0.7252  0.3345
15718TIP3    H168645   0.363   6.232   1.782  1.0705  0.6698 -0.7769
15718TIP3    H268646   0.501   6.207   1.723  1.8277 -2.0473  2.0091
15719TIP3   OH268647   0.608   3.860  14.465  1.0102 -0.3229 -0.5981
15719TIP3    H168648   0.606   3.953  14.486  0.2206 -0.2768 -0.8707
15719TIP3    H268649   0.516   3.835  14.455  1.1444 -1.3747  0.5764
15720TIP3   OH268650   3.985   4.192   1.283 -0.1291  0.5612  0.0608
15720TIP3    H168651   4.071   4.181   1.324  0.5806 -1.3664 -1.8537
15720TIP3    H268652   4.004   4.232   1.198 -1.0618 -0.3514 -0.5897
15721TIP3   OH268653   4.733   5.376  15.952  0.9225 -0.0066 -0.0438
15721TIP3    H168654   4.682   5.426  16.016  1.2647  0.4462 -0.1208
15721TIP3    H268655   4.792   5.323  16.005 -0.0467 -0.9930  0.0638
15722TIP3   OH268656   0.087   1.661  11.636 -0.1665  0.0946 -0.0305
15722TIP3    H168657   0.007   1.663  11.687  0.6191  3.1192  1.1862
15722TIP3    H268658   0.104   1.568  11.621 -3.1479 -0.6213  0.8313
15723TIP3   OH268659   6.114   5.062   0.969 -0.0465  0.6377  0.1322
15723TIP3    H168660   6.071   5.003   1.031 -1.2474  1.3421 -0.0388
15723TIP3    H268661   6.191   5.012   0.939 -0.8451 -0.7002  0.2664
15724TIP3   OH268662   4.541   2.639  13.248  0.7805  0.1035  0.0519
15724TIP3    H168663   4.466   2.630  13.188  2.2068 -0.6697 -1.6561
15724TIP3    H268664   4.613   2.669  13.192  1.7805  0.7735  1.6652
15725TIP3   OH268665   2.550   2.780   6.126  0.6775  0.3424  0.5760
15725TIP3    H168666   2.468   2.797   6.080  1.1017 -0.6069 -0.5608
15725TIP3    H268667   2.615   2.770   6.057  1.4112 -0.6695  1.3951
15726TIP3   OH268668   3.117   0.474   4.325 -0.7731 -0.5111 -0.0403
15726TIP3    H168669   3.137   0.453   4.234  0.5657  1.8895 -0.3571
15726TIP3    H268670   3.143   0.397   4.374  2.9093 -0.1207 -1.2232
15727TIP3   OH268671   0.568   4.205   5.796  0.3736  0.4426  0.0668
15727TIP3    H168672   0.521   4.251   5.726  0.3870 -0.3851 -0.4895
15727TIP3    H268673   0.553   4.259   5.874  0.0236  1.1548 -0.4875
15728TIP3   OH268674   6.411   0.519  17.227 -0.4107 -0.1660  0.3204
15728TIP3    H168675   6.438   0.456  17.160  1.0517  1.0677 -0.2846
15728TIP3    H268676   6.400   0.467  17.306  0.5779 -1.2163 -0.2209
15729TIP3   OH268677   0.128   4.112  14.835 -0.2930 -0.2527  0.6361
15729TIP3    H168678   0.205   4.082  14.883  0.7727 -0.1870 -0.9881
15729TIP3    H268679   0.074   4.155  14.901  1.4460  0.4520  1.6496
15730TIP3   OH268680   2.672   3.161   1.385  0.0349  0.5783  0.3909
15730TIP3    H168681   2.713   3.223   1.446 -0.3126 -0.1195  1.3409
15730TIP3    H268682   2.602   3.120   1.435 -0.3873  0.1340 -0.5410
15731TIP3   OH268683   2.232   1.986  16.430 -0.4738 -0.3391 -0.4971
15731TIP3    H168684   2.143   2.007  16.402 -0.3104 -0.1116 -0.8487
15731TIP3    H268685   2.221   1.940  16.513 -0.7678  1.9343  0.7380
15732TIP3   OH268686   4.794   4.793  10.827  0.1398  0.1088  0.3773
15732TIP3    H168687   4.724   4.796  10.762 -0.0810  2.8393  0.6520
15732TIP3    H268688   4.811   4.885  10.848  1.3084 -0.6385  2.9974
15733TIP3   OH268689   4.744   3.473  16.406  0.0034 -0.4130 -0.3977
15733TIP3    H168690   4.675   3.438  16.351  1.0397  0.6133 -2.3977
15733TIP3    H268691   4.771   3.399  16.461 -1.2749 -1.3572 -1.0333
15734TIP3   OH268692   3.512   0.731   1.393 -0.1911  0.4634  0.2388
15734TIP3    H168693   3.430   0.778   1.403 -0.0222  0.7609  0.2323
15734TIP3    H268694   3.491   0.658   1.334  0.1523  2.0480 -1.8975
15735TIP3   OH268695   6.679   1.400  11.836  0.2303 -0.8006 -0.0229
15735TIP3    H168696   6.620   1.470  11.808  0.8388 -0.0270  0.6022
15735TIP3    H268697   6.760   1.416  11.788  1.0016  0.0441  1.5223
15736TIP3   OH268698   4.125   4.755   4.887  0.2745  0.2221  0.1293
15736TIP3    H168699   4.156   4.773   4.976 -0.4597 -1.5988  0.7762
15736TIP3    H268700   4.083   4.669   4.893 -3.2863  1.7577 -1.0839
15737TIP3   OH268701   2.541   6.578   3.481  0.2906 -0.0138  0.4160
15737TIP3    H168702   2.475   6.623   3.534 -0.1258  1.7505 -1.4852
15737TIP3    H268703   2.548   6.491   3.519 -1.2181  0.6499  2.2847
15738TIP3   OH268704   1.555   0.650   3.218 -0.0357 -0.1669 -0.6536
15738TIP3    H168705   1.551   0.652   3.122  1.5111  0.0869 -0.7338
15738TIP3    H268706   1.469   0.680   3.246  0.0905  1.5930 -1.9771
15739TIP3   OH268707   1.637   1.197  12.395  0.2627 -0.0876  0.3657
15739TIP3    H168708   1.561   1.139  12.399 -0.7316  1.0453 -1.7074
15739TIP3    H268709   1.710   1.138  12.376 -0.4426 -0.9123  0.1862
15740TIP3   OH268710   3.565   2.378   4.161 -0.1298  0.4181 -0.0935
15740TIP3    H168711   3.611   2.462   4.154  1.2749 -0.3992 -0.8720
15740TIP3    H268712   3.535   2.360   4.071 -1.0038  0.4022  0.1960
15741TIP3   OH268713   5.044   6.745   5.528 -0.2797 -0.1026 -0.2390
15741TIP3    H168714   4.982   6.684   5.568  0.8411  0.0567  1.7707
15741TIP3    H268715   5.016   6.831   5.558 -0.6336  0.2204 -1.4477
15742TIP3   OH268716   3.514   2.069  14.555 -0.4679 -0.2133 -0.3026
15742TIP3    H168717   3.514   1.977  14.583 -0.6852 -0.3870 -0.8550
15742TIP3    H268718   3.603   2.099  14.573 -0.8462 -0.0534  1.3845
15743TIP3   OH268719   5.172   2.921  11.550 -0.1849 -0.4009  0.6316
15743TIP3    H168720   5.217   2.907  11.633 -1.2340  0.8124  1.4385
15743TIP3    H268721   5.239   2.910  11.484  0.7595 -0.9955  1.6713
15744TIP3   OH268722   2.573   0.916  16.196  0.0734 -0.0200 -0.5881
15744TIP3    H168723   2.483   0.884  16.203  0.5867 -1.0751  1.5114
15744TIP3    H268724   2.570   1.005  16.232  0.2100 -0.7100  1.1398
15745TIP3   OH268725   2.046   1.303   4.182  0.0850  0.3285 -0.0919
15745TIP3    H168726   2.094   1.276   4.261 -0.0443 -0.5457 -0.3038
15745TIP3    H268727   2.022   1.221   4.140  1.3758  0.7886 -1.7929
15746TIP3   OH268728   6.433   1.030  15.589  0.2535 -0.2533 -0.2086
15746TIP3    H168729   6.484   1.061  15.514  0.9463  1.2008  0.8419
15746TIP3    H268730   6.342   1.040  15.563  0.4889  0.6206 -0.7105
15747TIP3   OH268731   1.778   6.080  14.768 -0.2316  0.2941 -0.3134
15747TIP3    H168732   1.821   6.111  14.847 -0.7118  0.7351 -0.2252
15747TIP3    H268733   1.702   6.031  14.799  0.1688 -0.4370 -0.4698
15748TIP3   OH268734   5.607   2.966  17.179 -0.1641 -0.3102 -0.3759
15748TIP3    H168735   5.634   3.031  17.243 -1.3622  0.0395 -0.2083
15748TIP3    H268736   5.687   2.918  17.157  0.4922  0.4284  0.3970
15749TIP3   OH268737   0.002   1.851  14.970  0.5955 -1.4393  0.0820
15749TIP3    H168738  -0.067   1.813  14.916  0.6448 -0.6362 -0.5591
15749TIP3    H268739  -0.044   1.886  15.046  0.4846 -2.2684  0.3997
15750TIP3   OH268740   0.013   2.704   3.544 -0.1776 -0.0686 -0.0535
15750TIP3    H168741  -0.063   2.669   3.591 -0.7708  0.7708 -0.3650
15750TIP3    H268742   0.079   2.716   3.612 -0.1134 -1.3610  0.1224
15751TIP3   OH268743   0.998   2.719   0.968 -0.3101  0.4749  0.1348
15751TIP3    H168744   1.020   2.805   0.931 -2.5835  0.7940 -0.5447
15751TIP3    H268745   0.965   2.738   1.056  0.5776  0.1471  0.5463
15752TIP3   OH268746   3.942   1.614   0.494  0.5221 -0.3985  0.2905
15752TIP3    H168747   3.875   1.678   0.472  1.0552  0.5480  1.3895
15752TIP3    H268748   3.948   1.558   0.416  0.2082  1.0039 -0.7610
15753TIP3   OH268749   5.472   5.168  11.911  0.4360 -0.0952  0.6297
15753TIP3    H168750   5.381   5.177  11.941  0.1567  1.1579 -0.5513
15753TIP3    H268751   5.466   5.112  11.834  0.6768 -0.1211  0.6313
15754TIP3   OH268752   6.551   0.202   0.957  0.2085 -0.2776 -0.3107
15754TIP3    H168753   6.626   0.236   1.005  0.0809  0.0786 -0.3676
15754TIP3    H268754   6.494   0.277   0.942  0.2470 -0.3795 -1.0214
15755TIP3   OH268755   0.244   6.678   4.902  0.4668 -0.1831  0.0026
15755TIP3    H168756   0.170   6.730   4.935 -0.6775  0.0092 -2.7754
15755TIP3    H268757   0.249   6.604   4.962 -1.4804  0.1971  0.6905
15756TIP3   OH268758   1.083   0.590  15.104 -0.3106  0.8490 -0.2221
15756TIP3    H168759   1.087   0.588  15.008 -0.9279  1.5949 -0.2724
15756TIP3    H268760   1.174   0.588  15.133 -0.1306  0.4221 -0.8217
15757TIP3   OH268761   3.855   2.802   5.497 -0.2135 -0.0571  0.4952
15757TIP3    H168762   3.774   2.751   5.497 -1.4949  1.9064  0.2568
15757TIP3    H268763   3.857   2.843   5.583  0.9447 -0.7085  0.7883
15758TIP3   OH268764   6.794   4.169   1.799 -0.2126  0.2279  0.0831
15758TIP3    H168765   6.768   4.175   1.707  1.9036  0.0680 -0.5495
15758TIP3    H268766   6.717   4.132   1.843 -0.2929 -2.3558 -2.1026
15759TIP3   OH268767   6.098   0.843  11.227  0.1169 -0.8312  0.3503
15759TIP3    H168768   6.169   0.882  11.175  0.5493 -1.6018  0.3652
15759TIP3    H268769   6.103   0.887  11.312  0.8237 -1.1696  0.4818
15760TIP3   OH268770   6.691   1.854  15.230  0.1103 -0.0105 -0.3116
15760TIP3    H168771   6.736   1.910  15.294 -0.7101  2.7801 -2.1018
15760TIP3    H268772   6.598   1.863  15.252 -0.1308  0.4914 -1.5138
15761TIP3   OH268773   5.010   6.275   1.657  0.1845  0.1615  0.0080
15761TIP3    H168774   5.041   6.184   1.660 -0.5388 -0.1002 -0.3106
15761TIP3    H268775   5.085   6.327   1.686  1.1441 -0.4049 -1.4011
15762TIP3   OH268776   0.827   1.243   6.510 -0.9813 -0.0594  0.2556
15762TIP3    H168777   0.835   1.331   6.547 -2.0908  0.3143 -0.3673
15762TIP3    H268778   0.802   1.189   6.584  1.0358 -0.1262  0.9322
15763TIP3   OH268779   5.454   5.447  11.716 -0.0509 -0.4111 -0.1025
15763TIP3    H168780   5.505   5.452  11.636  1.2755 -1.9570  0.6141
15763TIP3    H268781   5.363   5.445  11.687  0.3313  1.2194 -1.4452
15764TIP3   OH268782   0.763   5.212   1.776  0.1276  0.0328  0.2950
15764TIP3    H168783   0.726   5.248   1.857 -1.1887 -0.5914 -0.0154
15764TIP3    H268784   0.709   5.135   1.756  1.0343 -0.3757 -0.6652
15765TIP3   OH268785   1.010   2.442  17.081 -0.1023  0.6006 -0.0554
15765TIP3    H168786   1.096   2.479  17.065  1.7653 -1.7492  3.7622
15765TIP3    H268787   0.979   2.486  17.161 -1.2298 -0.4654  0.1194
15766TIP3   OH268788   5.842   3.624  14.772 -0.3705 -0.4605  0.3122
15766TIP3    H168789   5.795   3.704  14.748 -1.1715 -0.8814  0.4490
15766TIP3    H268790   5.882   3.594  14.690 -0.5618 -0.2353  0.1362
15767TIP3   OH268791   4.472   3.739   1.674 -0.6103  0.0182 -0.5506
15767TIP3    H168792   4.534   3.745   1.601 -0.4822 -1.0076 -0.5304
15767TIP3    H268793   4.473   3.826   1.713  0.0137  0.3137 -1.2094
15768TIP3   OH268794   2.801   5.248  14.515  0.7443 -0.2172  0.7530
15768TIP3    H168795   2.884   5.201  14.518  0.4134 -0.7797  1.2436
15768TIP3    H268796   2.790   5.271  14.423  0.7236 -1.4700  0.4283
15769TIP3   OH268797   3.982   6.050   2.227 -0.3644 -0.4547 -0.3830
15769TIP3    H168798   4.029   6.132   2.236 -2.1100  0.3131  2.0350
15769TIP3    H268799   3.926   6.062   2.150 -1.0219  0.8349  0.2918
15770TIP3   OH268800   0.798   6.325   5.674  0.5343  0.3396 -0.1759
15770TIP3    H168801   0.856   6.335   5.599  1.1024  1.3931  0.3937
15770TIP3    H268802   0.710   6.339   5.638  0.7925  0.6615 -0.6868
15771TIP3   OH268803   6.801   5.982   4.032  0.9619  0.1339  0.1396
15771TIP3    H168804   6.870   5.916   4.019  0.1302 -0.3739 -2.0152
15771TIP3    H268805   6.720   5.933   4.026  0.3220  1.3376 -1.7330
15772TIP3   OH268806   0.061   2.697   5.535 -0.6805 -0.2836 -0.0416
15772TIP3    H168807   0.144   2.652   5.552 -0.1499  0.1210 -1.4741
15772TIP3    H268808   0.033   2.728   5.621  0.6201 -0.4996  0.4734
15773TIP3   OH268809   5.731   2.305  11.350 -0.0302  0.1282 -0.3851
15773TIP3    H168810   5.661   2.284  11.411 -1.3179  0.2835 -1.7744
15773TIP3    H268811   5.703   2.386  11.308  1.0586  0.2761 -0.8468
15774TIP3   OH268812   0.707   3.547  14.485 -0.0347 -0.1630  0.5566
15774TIP3    H168813   0.801   3.541  14.470 -0.1112 -1.4645  0.5841
15774TIP3    H268814   0.673   3.597  14.410  0.6819  0.3999  0.6051
15775TIP3   OH268815   0.893   2.810   5.815  0.4049 -0.1366  0.2923
15775TIP3    H168816   0.975   2.761   5.809  1.6505  1.8421  0.5027
15775TIP3    H268817   0.906   2.869   5.890  0.1148  2.5220 -1.6878
15776TIP3   OH268818   4.250   3.426   5.275 -0.8114  0.4153  0.6367
15776TIP3    H168819   4.326   3.400   5.223 -1.7798 -1.8377  0.2504
15776TIP3    H268820   4.216   3.343   5.309 -1.8161  1.5954  2.5988
15777TIP3   OH268821   3.080   4.590   4.545 -0.3239 -0.5344 -0.2258
15777TIP3    H168822   3.093   4.550   4.459 -1.5655 -1.1066 -0.1740
15777TIP3    H268823   3.102   4.521   4.607 -1.0863 -0.6934 -0.1186
15778TIP3   OH268824   6.004   5.507  11.499 -0.3445  0.2056 -0.8146
15778TIP3    H168825   6.078   5.481  11.554  0.4659  1.3099 -1.3716
15778TIP3    H268826   5.957   5.571  11.551 -0.9026 -0.4747 -0.4738
15779TIP3   OH268827   6.219   4.745  12.633 -0.1935  0.5927 -0.2248
15779TIP3    H168828   6.146   4.797  12.668 -0.0401  0.9790 -0.4871
15779TIP3    H268829   6.227   4.773  12.542  0.1848  0.4339 -0.2402
15780TIP3   OH268830   3.319   5.777   4.907 -0.0906  0.1664  0.4305
15780TIP3    H168831   3.253   5.740   4.849 -1.3229  2.9549 -0.0560
15780TIP3    H268832   3.372   5.833   4.850 -0.0184  1.3088  1.5972
15781TIP3   OH268833   2.652   0.356  12.303  0.0923  0.1751  0.3824
15781TIP3    H168834   2.666   0.330  12.394  1.8467 -2.5967 -0.6259
15781TIP3    H268835   2.573   0.310  12.276  0.1883  0.1236  0.1851
15782TIP3   OH268836   3.853   1.976  14.397 -0.4381 -0.3515  0.3731
15782TIP3    H168837   3.831   2.064  14.369 -1.9488 -0.9798 -0.4629
15782TIP3    H268838   3.892   1.988  14.484 -1.8057  1.0366  0.8292
15783TIP3   OH268839   3.016   2.341  13.158  0.1780  0.1142 -0.1149
15783TIP3    H168840   3.073   2.289  13.216 -0.0573 -0.6513 -0.5638
15783TIP3    H268841   3.060   2.426  13.152  1.1831 -0.3996 -0.2871
15784TIP3   OH268842   1.661   3.256  10.727  0.6148  0.2975 -0.1236
15784TIP3    H168843   1.580   3.304  10.709  0.2149  0.1866  1.2838
15784TIP3    H268844   1.652   3.175  10.677  0.4615  0.8877 -1.0486
15785TIP3   OH268845   0.645   4.850   1.406 -0.1204  0.3994 -0.1491
15785TIP3    H168846   0.629   4.836   1.313  0.7404  0.2219 -0.2788
15785TIP3    H268847   0.582   4.918   1.432 -2.1484 -1.3844 -0.2564
15786TIP3   OH268848   2.295   5.243   2.918  0.2480 -0.5327  0.2403
15786TIP3    H168849   2.280   5.156   2.881 -0.2301  0.2373 -1.4154
15786TIP3    H268850   2.382   5.268   2.886  0.4435 -0.4507  0.8256
15787TIP3   OH268851   5.182   1.277  16.654 -0.0228 -0.0758  0.4552
15787TIP3    H168852   5.253   1.339  16.638 -0.4329  0.3036  0.1064
15787TIP3    H268853   5.226   1.201  16.692  0.3013  0.8892  2.0340
15788TIP3   OH268854   2.700   6.130  11.149 -0.4057  0.1325 -0.8803
15788TIP3    H168855   2.710   6.069  11.076  1.2369  0.9813 -1.4011
15788TIP3    H268856   2.781   6.182  11.148 -0.9504  1.0519  0.7127
15789TIP3   OH268857   1.926   2.202   2.925  0.3911  0.3278  0.5251
15789TIP3    H168858   1.947   2.109   2.924 -0.7547  0.0560  0.4122
15789TIP3    H268859   1.845   2.209   2.874  0.2574  1.3263  0.8554
15790TIP3   OH268860   2.075   3.541  13.534  0.2194 -0.4087 -0.0713
15790TIP3    H168861   2.169   3.559  13.526  0.1157 -0.3767 -1.1882
15790TIP3    H268862   2.062   3.457  13.490 -0.2152 -0.6027  0.4177
15791TIP3   OH268863   5.418   4.916   3.839  1.0158 -0.2357  0.1726
15791TIP3    H168864   5.354   4.846   3.855  1.6335 -0.8922 -0.1792
15791TIP3    H268865   5.384   4.991   3.887  0.2834 -0.7511  0.4704
15792TIP3   OH268866   2.393   0.708  15.454 -0.1092  0.1793 -0.4675
15792TIP3    H168867   2.378   0.798  15.483 -1.5598 -0.5561  1.1805
15792TIP3    H268868   2.432   0.665  15.530  0.6042 -0.5771 -1.2563
15793TIP3   OH268869   2.553   3.514   5.332  0.0248  0.3785  0.3311
15793TIP3    H168870   2.648   3.502   5.334  0.0034  0.1625 -0.0002
15793TIP3    H268871   2.527   3.490   5.243 -0.4561 -0.3735  0.6743
15794TIP3   OH268872   2.853   1.281  16.910  0.8865  0.8510  0.1792
15794TIP3    H168873   2.925   1.343  16.895  1.4657  0.3418  0.8367
15794TIP3    H268874   2.896   1.201  16.939 -0.0040  0.7824  1.3109
15795TIP3   OH268875   3.986   0.208  15.884  0.4851  0.0919  0.4745
15795TIP3    H168876   4.051   0.179  15.820 -1.4643 -0.7435 -1.1760
15795TIP3    H268877   3.949   0.127  15.919 -1.3064  0.5528 -0.3219
15796TIP3   OH268878   6.187   5.570   2.507 -0.2909  0.1503 -0.0802
15796TIP3    H168879   6.259   5.615   2.463  0.5311  0.3580  1.4538
15796TIP3    H268880   6.154   5.508   2.441  1.2853  0.0518 -0.7964
15797TIP3   OH268881   5.472   1.195   1.926 -0.1791  0.7742  0.2167
15797TIP3    H168882   5.447   1.199   1.834  0.6874  1.2267 -0.0119
15797TIP3    H268883   5.568   1.201   1.925 -0.2296  2.0213  1.2093
15798TIP3   OH268884   2.467   3.149   3.504 -0.2434 -0.1551  0.0451
15798TIP3    H168885   2.489   3.056   3.494 -1.8710 -0.4683 -0.7662
15798TIP3    H268886   2.550   3.195   3.488  0.2126 -1.3862 -1.2783
15799TIP3   OH268887   5.281   2.620  12.747 -0.0217  0.2940  0.7173
15799TIP3    H168888   5.224   2.653  12.678 -0.2900 -1.3370  0.1303
15799TIP3    H268889   5.319   2.698  12.788 -1.6735  1.3441  0.2581
15800TIP3   OH268890   1.588   6.705  11.406 -0.2389  0.3865  0.0262
15800TIP3    H168891   1.657   6.655  11.361 -0.1057  0.7004 -0.1149
15800TIP3    H268892   1.522   6.639  11.428 -0.9973  0.4626 -1.9449
15801TIP3   OH268893   0.480   4.160  15.857  0.1123 -0.3902  0.1344
15801TIP3    H168894   0.429   4.241  15.858 -3.1635 -2.3556  0.3256
15801TIP3    H268895   0.504   4.145  15.949 -2.2156 -1.3373  0.6284
15802TIP3   OH268896   6.142   4.993  15.549  0.1259  0.4340 -0.7826
15802TIP3    H168897   6.167   4.985  15.641 -1.6242  4.3022  0.1509
15802TIP3    H268898   6.053   4.957  15.545  0.9656 -1.6372 -1.4424
15803TIP3   OH268899   5.759   5.152   5.114 -0.9048 -0.0549  0.6937
15803TIP3    H168900   5.776   5.245   5.124 -1.7332  0.0835  0.8491
15803TIP3    H268901   5.687   5.134   5.175  1.4723 -1.4821  3.2665
15804TIP3   OH268902   2.596   1.040  12.424 -0.1042  0.5703 -0.0164
15804TIP3    H168903   2.612   1.132  12.402  0.1434  0.2360 -1.2821
15804TIP3    H268904   2.684   1.002  12.430 -0.2287  0.2642 -0.1627
15805TIP3   OH268905   6.329   4.818  10.151  0.8043  0.1723 -0.4414
15805TIP3    H168906   6.384   4.803  10.227  0.9645  0.7310 -0.4468
15805TIP3    H268907   6.375   4.885  10.100 -0.4737  1.5635  0.1860
15806TIP3   OH268908   2.973   1.498  13.409 -0.0399 -0.7638 -0.9102
15806TIP3    H168909   2.947   1.589  13.415 -0.3943 -0.9190 -0.0787
15806TIP3    H268910   3.053   1.499  13.357 -0.0712  0.0095 -0.9410
15807TIP3   OH268911   0.796   3.161   1.918  0.0298  0.5499 -0.7631
15807TIP3    H168912   0.709   3.145   1.883  0.1562  0.8136 -1.2007
15807TIP3    H268913   0.842   3.207   1.848  0.4291  0.6688 -0.4249
15808TIP3   OH268914   5.499   6.303  11.857 -0.0091 -0.6031 -0.5188
15808TIP3    H168915   5.430   6.368  11.841  0.6967  0.1881 -0.3490
15808TIP3    H268916   5.573   6.354  11.889  0.3543 -1.5631  0.1840
15809TIP3   OH268917   2.240   2.708  15.688 -0.2024 -0.5702  0.0367
15809TIP3    H168918   2.331   2.683  15.705  0.0064 -0.3148 -0.6910
15809TIP3    H268919   2.190   2.629  15.707  0.2516 -0.9472 -0.3140
15810TIP3   OH268920   3.357   3.880  16.567  0.5041  0.1430  0.6318
15810TIP3    H168921   3.444   3.840  16.559  0.1041 -1.2082  2.7197
15810TIP3    H268922   3.319   3.873  16.480  2.8373  1.6188 -0.5708
15811TIP3   OH268923   2.124   4.822   5.715 -0.4270 -0.3520 -0.0485
15811TIP3    H168924   2.107   4.820   5.621  0.2023  1.1724 -0.2085
15811TIP3    H268925   2.038   4.814   5.755 -0.7430 -0.5385 -0.7442
15812TIP3   OH268926   6.581   6.029   4.509  0.4227 -0.1152 -0.5893
15812TIP3    H168927   6.534   6.064   4.433  1.1777  0.8895 -0.5959
15812TIP3    H268928   6.539   5.944   4.526 -0.2406 -0.0093 -1.6626
15813TIP3   OH268929   6.689   3.795  15.193 -0.0957  0.1345 -0.3453
15813TIP3    H168930   6.719   3.840  15.115  1.3339 -0.5136 -0.1717
15813TIP3    H268931   6.766   3.789  15.249 -1.7068  3.2184  2.4039
15814TIP3   OH268932   4.344   4.860  16.136  0.6744  0.1850  0.0131
15814TIP3    H168933   4.374   4.785  16.085  0.3102 -0.4392  0.7088
15814TIP3    H268934   4.263   4.830  16.177  0.4996  0.9761  0.2556
15815TIP3   OH268935   4.488   3.211   1.465  0.5533 -0.0784  0.1871
15815TIP3    H168936   4.491   3.121   1.498 -1.4443 -0.3575 -0.3282
15815TIP3    H268937   4.554   3.213   1.396  2.9247 -0.2078  2.3812
15816TIP3   OH268938   0.752   0.126   2.452 -0.7165  0.5770 -0.1140
15816TIP3    H168939   0.842   0.159   2.448  0.2747 -2.1290 -1.3599
15816TIP3    H268940   0.741   0.076   2.371 -3.1952  0.4737  0.2413
15817TIP3   OH268941   2.571   3.124   0.019 -0.2313  0.1218  0.3079
15817TIP3    H168942   2.635   3.189   0.047 -0.0511 -0.0961  0.4031
15817TIP3    H268943   2.588   3.111  -0.074  0.9682 -1.1826  0.7058
15818TIP3   OH268944   5.899   5.873   3.046  0.0940  0.2654 -0.6440
15818TIP3    H168945   5.938   5.956   3.074 -0.0636  1.2364 -3.2389
15818TIP3    H268946   5.829   5.857   3.109  1.6348  0.8855  1.2843
15819TIP3   OH268947   1.194   1.215  13.462 -1.0059  0.0473 -0.3231
15819TIP3    H168948   1.210   1.308  13.481  0.2172 -0.2714  0.2492
15819TIP3    H268949   1.255   1.168  13.519 -2.1901 -1.1456  0.0058
15820TIP3   OH268950   3.314   4.688  12.034  0.3463 -0.2452  0.3298
15820TIP3    H168951   3.332   4.741  12.112  0.5683 -0.4532  0.4225
15820TIP3    H268952   3.239   4.634  12.058  0.6287 -0.5542  0.5196
15821TIP3   OH268953   2.472   4.832   1.217  0.0788 -0.0146  0.2939
15821TIP3    H168954   2.406   4.780   1.170  1.0955 -1.1531  0.0736
15821TIP3    H268955   2.473   4.916   1.172  0.1392 -0.6614 -0.9636
15822TIP3   OH268956   3.954   0.981  16.832  0.6020  0.7638 -0.3256
15822TIP3    H168957   3.881   0.919  16.824 -0.2687  2.0537 -3.0114
15822TIP3    H268958   4.027   0.938  16.788  0.2677  1.2300 -1.3412
15823TIP3   OH268959   4.754   3.740   4.130 -0.1475  1.5529 -0.4676
15823TIP3    H168960   4.701   3.769   4.205  1.0126 -3.1833  2.3971
15823TIP3    H268961   4.690   3.706   4.067 -0.8086 -0.1520  1.0933
15824TIP3   OH268962   1.374   5.580  12.795  0.7801 -0.1307  0.2074
15824TIP3    H168963   1.424   5.537  12.865 -1.6127 -1.4661  1.1543
15824TIP3    H268964   1.378   5.519  12.722  1.8496  0.4873 -0.2567
15825TIP3   OH268965   0.237   1.856  11.351  0.1400 -0.0241 -0.6243
15825TIP3    H168966   0.218   1.763  11.363 -0.1170  0.1649  0.4703
15825TIP3    H268967   0.161   1.901  11.387  1.4414  0.6668  1.3549
15826TIP3   OH268968   3.485   5.513  15.338 -0.3336 -0.0244  0.1284
15826TIP3    H168969   3.548   5.566  15.289 -0.4757 -1.7289 -1.9522
15826TIP3    H268970   3.470   5.436  15.283 -3.6493 -0.0315  0.9584
15827TIP3   OH268971   4.034   5.846  12.204 -0.2539  0.0931  0.1937
15827TIP3    H168972   4.095   5.876  12.137  1.2639 -0.0000  1.4884
15827TIP3    H268973   4.075   5.766  12.240 -0.1324  1.1030  2.4175
15828TIP3   OH268974   1.163   3.452  13.754  0.0873 -0.5435 -0.2214
15828TIP3    H168975   1.140   3.543  13.776  0.0172 -0.3658 -1.0266
15828TIP3    H268976   1.078   3.408  13.747 -0.2239  0.5999 -5.3488
15829TIP3   OH268977   3.421   5.547  14.040  0.1237  0.3859 -0.2459
15829TIP3    H168978   3.385   5.508  14.120  1.8422  0.5431  0.6270
15829TIP3    H268979   3.362   5.619  14.020 -0.1758  0.5134  1.0447
15830TIP3   OH268980   5.176   2.616  14.857  0.2589  0.1772 -0.1931
15830TIP3    H168981   5.138   2.678  14.919 -0.5352  1.0887 -1.5875
15830TIP3    H268982   5.261   2.653  14.834 -0.3342  0.8964 -1.2393
15831TIP3   OH268983   5.189   1.300   4.387  0.3041  0.0136 -0.1467
15831TIP3    H168984   5.170   1.285   4.294  0.0176  0.3453 -0.1444
15831TIP3    H268985   5.126   1.368   4.413 -0.3563 -0.8586  0.5621
15832TIP3   OH268986   3.811   1.822  12.657  0.2841  0.3575 -0.4411
15832TIP3    H168987   3.906   1.831  12.646  0.6545 -2.0247  0.5274
15832TIP3    H268988   3.787   1.748  12.601 -0.9543  0.7483 -0.4382
15833TIP3   OH268989   4.160   6.771  15.262  0.0030 -0.2355 -0.1410
15833TIP3    H168990   4.168   6.780  15.167 -0.3108  0.5126 -0.1042
15833TIP3    H268991   4.159   6.677  15.278  0.5712 -0.3623 -0.8358
15834TIP3   OH268992   3.776   6.157  13.387 -0.0057 -0.0194 -0.1230
15834TIP3    H168993   3.682   6.142  13.377 -0.3240  1.3491  0.7511
15834TIP3    H268994   3.816   6.079  13.349 -1.4558 -0.0851 -1.5846
15835TIP3   OH268995   5.136   0.443  11.059  0.0610  0.5648  0.5595
15835TIP3    H168996   5.064   0.459  10.999 -0.5437 -0.2123  1.0590
15835TIP3    H268997   5.185   0.370  11.020  0.1589  0.6170  0.5829
15836TIP3   OH268998   2.609   4.292   5.372 -0.2971 -0.3928 -0.1882
15836TIP3    H168999   2.677   4.226   5.357  0.0642  0.4566 -2.5387
15836TIP3    H269000   2.653   4.360   5.423  0.2696 -0.4389 -0.6063
15837TIP3   OH269001   4.525   5.280   3.308 -0.4068 -1.0408 -0.1765
15837TIP3    H169002   4.603   5.251   3.261 -0.5137 -0.1331 -0.9220
15837TIP3    H269003   4.463   5.306   3.239 -0.2025  1.2286  0.4695
15838TIP3   OH269004   3.683   0.152  15.459 -0.6119 -0.3741  0.0773
15838TIP3    H169005   3.747   0.111  15.516 -1.2216 -0.9197  0.3748
15838TIP3    H269006   3.653   0.082  15.402 -1.8575 -0.4205  0.7643
15839TIP3   OH269007   6.437   1.993  11.052 -0.3401  0.0561  0.0099
15839TIP3    H169008   6.359   1.991  10.998 -1.8208  1.4064  2.0272
15839TIP3    H269009   6.495   2.055  11.008 -0.8390 -0.1265 -0.9141
15840TIP3   OH269010   2.419   0.805   6.693  0.4145 -1.0182 -0.5467
15840TIP3    H169011   2.471   0.885   6.702 -1.3765  0.2064 -0.9163
15840TIP3    H269012   2.412   0.792   6.598 -1.6145 -0.0662 -0.5393
15841TIP3   OH269013   1.227   1.634  15.962  0.7792 -0.0020 -0.7117
15841TIP3    H169014   1.148   1.580  15.957  1.2376 -0.7636 -0.0510
15841TIP3    H269015   1.218   1.697  15.891 -0.9428  0.6238  0.0206
15842TIP3   OH269016   4.730   1.941   3.512  0.1039  0.0291  0.2208
15842TIP3    H169017   4.699   1.881   3.579 -1.7207  0.5446 -0.1388
15842TIP3    H269018   4.671   1.927   3.438  1.5248  0.1192 -0.9699
15843TIP3   OH269019   4.039   1.443   1.817 -0.4010  0.0568  0.3553
15843TIP3    H169020   4.031   1.537   1.801 -0.5245 -0.4932 -3.2834
15843TIP3    H269021   3.973   1.404   1.761  2.3917 -2.4110 -1.3674
15844TIP3   OH269022   1.442   0.213   3.412  0.1709 -0.0768 -0.4662
15844TIP3    H169023   1.458   0.307   3.418  1.8137 -0.3726  0.2854
15844TIP3    H269024   1.499   0.184   3.341  1.2316 -0.7948  0.6458
15845TIP3   OH269025   3.350   4.310   2.210 -0.2557 -0.5346 -0.0324
15845TIP3    H169026   3.424   4.296   2.151  0.6277 -0.2692  1.0125
15845TIP3    H269027   3.352   4.403   2.230 -2.7983  0.1174 -2.5236
15846TIP3   OH269028   0.182   2.924  14.663  0.1565 -0.0168 -0.5607
15846TIP3    H169029   0.177   2.831  14.686  0.5030  0.6344  2.2944
15846TIP3    H269030   0.244   2.926  14.590  3.5570 -1.6453  2.0930
15847TIP3   OH269031   1.166   6.277   2.270 -0.0643  0.1009 -0.1853
15847TIP3    H169032   1.087   6.226   2.290  1.2494 -1.7606  0.4144
15847TIP3    H269033   1.142   6.367   2.290 -2.3039 -0.3196 -0.8191
15848TIP3   OH269034   1.962   5.505  13.899  0.1330 -0.6315  0.2605
15848TIP3    H169035   2.035   5.557  13.867  0.8939 -2.1292 -0.4507
15848TIP3    H269036   1.900   5.501  13.826 -1.1500  1.4523  1.1717
15849TIP3   OH269037   2.005   2.756  13.335 -0.2603  0.2456  0.5923
15849TIP3    H169038   1.936   2.695  13.307  0.8797 -0.8186  0.0487
15849TIP3    H269039   2.011   2.820  13.264  0.9202 -1.0238 -0.4881
15850TIP3   OH269040   1.619   1.239  11.845  0.0540  0.2702  0.0115
15850TIP3    H169041   1.696   1.286  11.815  1.5396 -1.2131  1.3480
15850TIP3    H269042   1.556   1.248  11.774  1.6133  1.1437 -1.2986
15851TIP3   OH269043   2.938   6.185  10.801 -0.3795  0.5497 -0.0737
15851TIP3    H169044   2.886   6.114  10.838  0.3215 -0.6399 -1.3040
15851TIP3    H269045   2.989   6.143  10.731  2.1995  1.6822  1.0658
15852TIP3   OH269046   6.564   5.755   5.419  0.4247 -0.3771  0.1291
15852TIP3    H169047   6.577   5.829   5.479  1.4849 -1.0517  0.7243
15852TIP3    H269048   6.473   5.729   5.433  0.2049  0.4675  0.3024
15853TIP3   OH269049   2.284   6.587  13.641 -0.2451  0.2455 -0.2181
15853TIP3    H169050   2.251   6.553  13.558 -0.4046  0.4348 -0.2342
15853TIP3    H269051   2.250   6.527  13.707  0.2644 -0.1665 -0.3306
15854TIP3   OH269052   1.994   0.437   1.921  0.0195 -0.1463  0.5226
15854TIP3    H169053   2.077   0.390   1.927  0.8057  0.9809 -1.2109
15854TIP3    H269054   1.933   0.373   1.885  0.5292 -0.4922  0.2753
15855TIP3   OH269055   1.529   3.350   3.754 -0.1816 -0.1460 -0.0842
15855TIP3    H169056   1.579   3.355   3.835 -0.5714 -0.5539  0.1876
15855TIP3    H269057   1.500   3.439   3.738  0.6419  0.0926 -0.2492
15856TIP3   OH269058   5.000   0.711   4.079  0.6001  0.1745 -0.3171
15856TIP3    H169059   5.057   0.639   4.106  0.9555  0.1424 -1.1388
15856TIP3    H269060   5.046   0.752   4.006  1.1702  2.2420  1.1514
15857TIP3   OH269061   1.649   4.564  15.228  0.0534  0.2658 -0.4400
15857TIP3    H169062   1.625   4.637  15.170  0.0750  1.0244  0.4893
15857TIP3    H269063   1.661   4.605  15.313  3.8279 -0.2153 -0.6661
15858TIP3   OH269064   0.773   3.155   4.441 -0.0310  0.4469 -0.5099
15858TIP3    H169065   0.839   3.096   4.404 -0.3012  0.1823 -0.5672
15858TIP3    H269066   0.694   3.139   4.390 -1.3532 -2.3121  2.2399
15859TIP3   OH269067   3.753   5.840  16.968 -0.3825 -0.2832  0.0678
15859TIP3    H169068   3.761   5.934  16.986 -0.0780 -0.6296  1.8003
15859TIP3    H269069   3.669   5.831  16.922 -0.7111  0.7530  0.4545
15860TIP3   OH269070   3.841   0.807   2.902  0.3301 -0.5624  0.0033
15860TIP3    H169071   3.770   0.849   2.854 -0.4859 -0.7522  1.0137
15860TIP3    H269072   3.810   0.717   2.916 -0.2883  0.0011  2.4910
15861TIP3   OH269073   5.563   2.737   6.083 -0.3964 -0.0836 -0.0179
15861TIP3    H169074   5.590   2.676   6.152 -1.7944  1.2326  1.7639
15861TIP3    H269075   5.476   2.706   6.057  0.2798 -0.7852 -1.4582
15862TIP3   OH269076   4.944   2.757  10.623  0.4017 -0.2706  0.5371
15862TIP3    H169077   4.921   2.670  10.655 -1.4663 -0.1122 -0.2908
15862TIP3    H269078   5.019   2.743  10.566  0.1698 -1.3440  0.4873
15863TIP3   OH269079   4.341   2.845  14.665  0.1497 -0.2708 -0.4207
15863TIP3    H169080   4.259   2.879  14.702  0.3148 -0.3787  0.0573
15863TIP3    H269081   4.313   2.776  14.605 -0.2093  1.0264 -1.7619
15864TIP3   OH269082   0.922   3.291   1.719  0.4013 -0.0334 -0.0977
15864TIP3    H169083   0.871   3.365   1.687 -0.8533 -0.4537  0.8915
15864TIP3    H269084   0.947   3.243   1.640 -2.5788 -1.0249 -0.5169
15865TIP3   OH269085   4.679   2.769  11.142 -0.1880  0.3985  0.5384
15865TIP3    H169086   4.767   2.755  11.106  0.0025  0.3162  1.0390
15865TIP3    H269087   4.685   2.854  11.186 -0.5286  0.6799  0.0436
15866TIP3   OH269088   5.234   4.372   2.561  0.0286  0.7688 -0.0110
15866TIP3    H169089   5.231   4.287   2.517  0.3734  0.2756  0.9115
15866TIP3    H269090   5.143   4.391   2.582 -0.1031  0.8550 -0.6442
15867TIP3   OH269091   3.565   5.083   1.897  0.1597  0.2731  0.5682
15867TIP3    H169092   3.579   5.028   1.820 -2.7932  0.6196 -0.2599
15867TIP3    H269093   3.565   5.021   1.970  1.5805 -0.2287  0.1509
15868TIP3   OH269094   3.807   2.526   2.561  0.5549 -0.3231 -0.1391
15868TIP3    H169095   3.862   2.469   2.615 -0.8980  0.4899  2.2806
15868TIP3    H269096   3.740   2.467   2.525 -0.0671 -0.4179  1.1497
15869TIP3   OH269097   3.902   1.497  13.634  0.1020 -0.5797  0.1523
15869TIP3    H169098   3.818   1.542  13.630  0.6419  0.3863 -0.4696
15869TIP3    H269099   3.914   1.461  13.546  0.4421 -0.5407  0.1821
15870TIP3   OH269100   3.991   0.083  12.989 -0.1405 -0.3311  0.3642
15870TIP3    H169101   3.947   0.064  12.906 -0.3635  0.7902  0.2139
15870TIP3    H269102   4.075   0.121  12.963  0.1225 -0.7139  0.6536
15871TIP3   OH269103   6.180   1.477   2.078  0.4891  0.1328  0.3458
15871TIP3    H169104   6.174   1.566   2.044  0.0372 -0.5421 -1.3613
15871TIP3    H269105   6.093   1.460   2.116 -0.6488 -0.8694 -2.5953
15872TIP3   OH269106   6.549   0.976   5.887 -0.0152 -0.5066 -0.3105
15872TIP3    H169107   6.562   1.026   5.806  0.3013  0.2601  0.2083
15872TIP3    H269108   6.634   0.978   5.931 -1.2486  2.7692  2.1075
15873TIP3   OH269109   0.556   3.209  12.805 -0.8102 -0.3139 -0.1880
15873TIP3    H169110   0.471   3.212  12.761 -0.2158 -0.4333 -1.3399
15873TIP3    H269111   0.559   3.290  12.856 -1.5197 -0.1997 -0.3290
15874TIP3   OH269112   4.289   4.822   4.657  0.6476 -0.6095 -0.4567
15874TIP3    H169113   4.250   4.808   4.571  0.3287  0.6606 -0.5317
15874TIP3    H269114   4.234   4.772   4.717  0.1863 -0.5706 -0.8429
15875TIP3   OH269115   5.733   2.657   0.586  0.3414 -0.5753 -0.1251
15875TIP3    H169116   5.662   2.594   0.574  0.9517 -1.5833  1.4654
15875TIP3    H269117   5.762   2.644   0.676  1.6204  0.7972 -0.3206
15876TIP3   OH269118   4.145   6.040  12.413  0.1624 -0.4775 -0.4020
15876TIP3    H169119   4.060   6.079  12.432 -0.2680 -0.0882 -2.9125
15876TIP3    H269120   4.128   5.981  12.340  1.6557 -2.0640  0.4979
15877TIP3   OH269121   3.896   2.137   1.945  0.1725 -0.1722  0.4776
15877TIP3    H169122   3.990   2.149   1.930  0.0032  1.8302  0.8320
15877TIP3    H269123   3.861   2.114   1.859  0.5793  2.0565 -0.3312
15878TIP3   OH269124   6.479   4.772  12.089 -0.3978  1.0835  0.0432
15878TIP3    H169125   6.531   4.801  12.164  1.5730  1.4312 -1.4000
15878TIP3    H269126   6.474   4.849  12.032  0.4553  0.1123 -1.4050
15879TIP3   OH269127   3.805   3.150  16.927 -1.0280 -0.5165 -0.1517
15879TIP3    H169128   3.796   3.151  17.022  0.8429 -1.6036  0.0507
15879TIP3    H269129   3.823   3.241  16.904 -0.0947 -0.4882  0.6771
15880TIP3   OH269130   2.477   5.728   2.507  0.2916  0.4318  0.3141
15880TIP3    H169131   2.487   5.705   2.415 -2.0486 -0.4341  0.2587
15880TIP3    H269132   2.470   5.824   2.507  1.2182  0.5113 -0.2859
15881TIP3   OH269133   6.472   4.454  16.427  0.2474  0.3640  0.5349
15881TIP3    H169134   6.530   4.522  16.393 -0.0308  1.4733  2.2013
15881TIP3    H269135   6.478   4.464  16.522  1.4067 -2.9754  0.8642
15882TIP3   OH269136   0.472   3.795  16.519  0.4279  0.2659 -0.1788
15882TIP3    H169137   0.551   3.743  16.535  1.7914  1.4335 -2.8471
15882TIP3    H269138   0.410   3.734  16.479  0.7072 -0.1547  0.0288
15883TIP3   OH269139   5.880   0.196   0.326 -0.6748 -0.6034  0.4357
15883TIP3    H169140   5.834   0.265   0.375  0.4664 -0.2873  1.0946
15883TIP3    H269141   5.972   0.208   0.350 -0.0313 -0.2057 -2.0880
15884TIP3   OH269142   0.802   3.822  15.837  0.4368  0.3145 -0.0534
15884TIP3    H169143   0.804   3.861  15.924 -1.3908 -2.9246  1.5513
15884TIP3    H269144   0.713   3.840  15.805  1.0148  1.2628 -1.1458
15885TIP3   OH269145   4.038   6.636  11.316 -0.4175 -0.4566 -0.4582
15885TIP3    H169146   4.001   6.679  11.239 -0.0120  0.0259 -0.3835
15885TIP3    H269147   4.084   6.559  11.281 -1.8333 -1.2950 -0.5105
15886TIP3   OH269148   2.012   5.418  15.615  0.2028  0.1001  0.5223
15886TIP3    H169149   1.977   5.420  15.526  1.9159  2.0983 -0.1214
15886TIP3    H269150   1.945   5.460  15.668  0.7126  2.1473 -0.4039
15887TIP3   OH269151   2.971   5.213  16.204 -0.4350  0.0371  0.2641
15887TIP3    H169152   2.968   5.118  16.197 -0.6220  0.1724 -1.6099
15887TIP3    H269153   2.912   5.233  16.276 -0.6347 -1.2358  0.4702
15888TIP3   OH269154   3.287   2.020   1.800 -0.0606 -0.0628  0.2529
15888TIP3    H169155   3.192   2.030   1.795  0.1423  1.9390 -0.1154
15888TIP3    H269156   3.301   1.961   1.873 -1.5444  0.8912  1.3407
15889TIP3   OH269157   4.501   1.223   6.544 -0.5886 -0.5064 -0.1914
15889TIP3    H169158   4.434   1.273   6.589 -0.7777 -1.7432  0.9222
15889TIP3    H269159   4.452   1.164   6.487 -0.4075 -0.5279 -0.3244
15890TIP3   OH269160   1.537   6.208   3.788  0.3855 -0.0753 -0.5326
15890TIP3    H169161   1.621   6.176   3.823  0.5609  2.5146  1.5807
15890TIP3    H269162   1.562   6.267   3.717  0.2000 -1.5294 -1.8406
15891TIP3   OH269163   3.724   5.644  11.780 -0.4234  0.2824  0.1285
15891TIP3    H169164   3.683   5.700  11.846  0.8623  0.6235  0.6541
15891TIP3    H269165   3.804   5.690  11.756 -1.5804  0.8937 -2.7748
15892TIP3   OH269166   3.872   2.632   1.688 -0.4061 -0.5807  0.1589
15892TIP3    H169167   3.848   2.702   1.750  2.2066 -0.3032  0.9046
15892TIP3    H269168   3.823   2.556   1.719  1.4036 -0.6327  3.0480
15893TIP3   OH269169   6.058   3.089   5.671 -0.4354 -0.3304 -0.5969
15893TIP3    H169170   6.128   3.025   5.687  3.2784  3.7094  0.2495
15893TIP3    H269171   6.006   3.088   5.752 -0.3765 -2.1271 -0.5507
15894TIP3   OH269172   3.889   6.409   2.277  0.2050  0.0135  0.2990
15894TIP3    H169173   3.828   6.385   2.346 -1.5457 -1.4162 -1.6703
15894TIP3    H269174   3.883   6.504   2.271 -2.8616 -0.2018 -0.7355
15895TIP3   OH269175   6.018   0.039  14.705  0.4407  0.4003  0.3031
15895TIP3    H169176   6.037  -0.055  14.705  0.1806  0.3481 -0.1467
15895TIP3    H269177   6.036   0.067  14.616 -0.2228  0.6300  0.2406
15896TIP3   OH269178   1.056   0.430   5.905 -0.3417 -0.2643 -0.3108
15896TIP3    H169179   1.017   0.355   5.949 -0.5823 -0.8498 -1.4984
15896TIP3    H269180   0.985   0.465   5.851 -0.1547  0.6581  0.0296
15897TIP3   OH269181   3.588   1.104  13.844 -0.2753  0.3007 -0.0346
15897TIP3    H169182   3.632   1.027  13.811 -1.2444 -0.2400 -0.0930
15897TIP3    H269183   3.517   1.070  13.899  0.5918  1.1610  1.6631
15898TIP3   OH269184   4.308   5.962  14.439 -0.2588  0.2156 -0.3815
15898TIP3    H169185   4.223   5.999  14.463  0.2361  0.8200  0.4595
15898TIP3    H269186   4.357   5.957  14.521  0.4840 -0.2375 -0.8384
15899TIP3   OH269187   3.576   1.668   1.355  0.5206 -0.2330 -0.1321
15899TIP3    H169188   3.651   1.706   1.400  1.0678 -0.1198 -1.1129
15899TIP3    H269189   3.586   1.573   1.367  1.0548 -0.2386 -0.6257
15900TIP3   OH269190   2.334   3.739   5.801  0.4572 -0.1930 -0.1068
15900TIP3    H169191   2.288   3.710   5.722  0.7777  0.3839 -0.5012
15900TIP3    H269192   2.361   3.829   5.783 -1.4548  0.7463  1.5283
15901TIP3   OH269193   0.006   1.142   1.388 -0.8571  0.1305  0.0391
15901TIP3    H169194  -0.041   1.072   1.434  1.1977 -2.5803 -1.8561
15901TIP3    H269195   0.084   1.156   1.442 -0.8473  0.3730 -0.0416
15902TIP3   OH269196   6.030   4.827  16.509 -0.4278  0.2778 -0.1188
15902TIP3    H169197   6.089   4.796  16.441 -1.2226  1.1548 -1.2362
15902TIP3    H269198   5.954   4.862  16.461 -1.2499  0.3975  1.2296
15903TIP3   OH269199   4.209   0.961  16.099 -0.3546 -0.2976 -0.0602
15903TIP3    H169200   4.153   0.891  16.066  1.1652 -1.9698  0.7675
15903TIP3    H269201   4.152   1.015  16.153 -1.3333 -1.5398  0.1655
15904TIP3   OH269202   1.063   1.041   2.562  0.0628  0.0390 -0.2379
15904TIP3    H169203   0.987   1.023   2.618  0.6835  0.4064  0.7305
15904TIP3    H269204   1.045   0.991   2.482 -1.3790  0.4244 -0.1789
15905TIP3   OH269205   2.351   3.990   1.960  0.3475  0.0027 -0.5886
15905TIP3    H169206   2.342   4.033   1.875 -0.8009  1.1895  0.1267
15905TIP3    H269207   2.309   3.905   1.948 -0.6787  0.5518 -0.9267
15906TIP3   OH269208   3.517   3.522  14.745  0.4491  0.4397 -0.1750
15906TIP3    H169209   3.426   3.494  14.759  0.2853  1.0409 -0.0231
15906TIP3    H269210   3.570   3.457  14.791  0.1356 -0.3750 -0.9419
15907TIP3   OH269211   4.190   6.699  12.151 -0.5167  1.0032 -0.3543
15907TIP3    H169212   4.184   6.775  12.210  0.0083  0.4573  0.4055
15907TIP3    H269213   4.270   6.654  12.178 -1.0050 -0.0107 -0.5889
15908TIP3   OH269214   6.114   3.171   2.673  0.1454 -0.4972 -0.1002
15908TIP3    H169215   6.183   3.148   2.735 -0.1457 -0.8399  0.0966
15908TIP3    H269216   6.140   3.256   2.639  0.6334 -0.5930  0.0241
15909TIP3   OH269217   1.285   3.928   0.467  0.2853  0.1667 -0.1298
15909TIP3    H169218   1.249   3.976   0.540 -0.4320 -0.9190  0.2397
15909TIP3    H269219   1.294   3.993   0.397  0.5585  1.1031  0.7621
15910TIP3   OH269220   0.704   0.923  11.291  0.3152  0.7452  0.1273
15910TIP3    H169221   0.678   1.002  11.244 -0.0902  0.1833 -0.5913
15910TIP3    H269222   0.740   0.865  11.224 -1.4924 -0.5857  0.2800
15911TIP3   OH269223   0.490   0.949  16.747 -0.1865 -0.3786  0.3382
15911TIP3    H169224   0.534   0.919  16.826  0.4372 -0.5003 -0.0500
15911TIP3    H269225   0.500   0.876  16.685  0.1610  0.0945 -0.1647
15912TIP3   OH269226   1.353   1.518  13.314  0.0038 -0.3103 -0.0195
15912TIP3    H169227   1.371   1.578  13.242  1.4047 -0.7554 -0.0583
15912TIP3    H269228   1.322   1.574  13.385  0.5628  0.3677 -0.3039
15913TIP3   OH269229   5.663   3.931   1.051  0.1444 -0.2181 -0.1188
15913TIP3    H169230   5.647   3.986   0.974  0.6583  1.7146  1.0993
15913TIP3    H269231   5.664   3.842   1.017  3.1903  0.7403 -2.8578
15914TIP3   OH269232   5.867   1.460  15.218  0.1503 -0.2647 -0.0453
15914TIP3    H169233   5.846   1.504  15.136 -2.1861  2.1420  1.7563
15914TIP3    H269234   5.785   1.417  15.244  0.3042  0.6240  1.9909
15915TIP3   OH269235   4.046   4.078  15.829  0.0946  0.3961 -0.0320
15915TIP3    H169236   4.032   4.016  15.757  1.4370  1.2078 -1.0168
15915TIP3    H269237   4.004   4.159  15.799 -0.5612  0.3416  0.7137
15916TIP3   OH269238   5.277   1.451  11.597  0.0163 -0.3374 -0.6019
15916TIP3    H169239   5.294   1.544  11.588  3.0243 -0.7760 -0.2079
15916TIP3    H269240   5.209   1.432  11.533 -0.7000  2.1104 -0.6185
15917TIP3   OH269241   4.688   6.574  11.290  0.1857 -0.6342 -0.0347
15917TIP3    H169242   4.783   6.568  11.301  0.2117  0.9040  0.8719
15917TIP3    H269243   4.655   6.588  11.379 -0.7274  0.5256 -0.5382
15918TIP3   OH269244   6.098   0.195   2.248 -0.0839  0.0225 -0.1923
15918TIP3    H169245   6.082   0.285   2.277  1.5370  0.1656  0.3580
15918TIP3    H269246   6.062   0.192   2.159 -0.4477  1.1201 -0.0963
15919TIP3   OH269247   3.800   2.144   1.668  0.0599 -0.6125  0.2672
15919TIP3    H169248   3.799   2.231   1.629  0.4803 -0.8095 -0.1863
15919TIP3    H269249   3.753   2.089   1.605  0.6641 -0.9134  0.0683
15920TIP3   OH269250   4.307   6.791  11.212 -0.4827  0.2642  0.0465
15920TIP3    H169251   4.379   6.743  11.171  0.4175  2.1540 -0.6396
15920TIP3    H269252   4.289   6.863  11.152 -1.1247  1.3789  1.5495
15921TIP3   OH269253   0.422   6.101  16.294  0.3853  0.6517 -0.6805
15921TIP3    H169254   0.504   6.138  16.263  2.0981 -2.8463 -0.5224
15921TIP3    H269255   0.429   6.104  16.390 -0.7088  2.4574 -0.6285
15922TIP3   OH269256   1.564   6.161   5.811  0.0777 -0.0827  0.0988
15922TIP3    H169257   1.653   6.168   5.777  0.5062  1.7435  1.5077
15922TIP3    H269258   1.561   6.225   5.882 -1.9903 -1.0047  0.8667
15923TIP3   OH269259   1.945   0.386  13.019 -0.1301 -0.7769 -0.4756
15923TIP3    H169260   1.880   0.326  12.984  0.0920 -2.0615  1.2362
15923TIP3    H269261   1.916   0.404  13.109  0.6848  0.3756 -0.4228
15924TIP3   OH269262   3.563   0.238  12.107  0.6150 -0.4463  0.2879
15924TIP3    H169263   3.513   0.256  12.027 -0.0980 -1.8207  0.3961
15924TIP3    H269264   3.566   0.142  12.111  1.0339 -0.3843  1.6674
15925TIP3   OH269265   5.854   0.447   1.257  0.4374 -0.4459  0.7118
15925TIP3    H169266   5.787   0.386   1.225  2.4978 -2.9662  1.0437
15925TIP3    H269267   5.837   0.453   1.351  1.0275 -1.5764  0.9030
15926TIP3   OH269268   0.164   1.611  12.846  0.3958 -0.4764 -0.3919
15926TIP3    H169269   0.232   1.552  12.876  0.3787 -1.1805 -1.6708
15926TIP3    H269270   0.083   1.577  12.885  0.6212 -0.2868  0.2430
15927TIP3   OH269271   1.917   5.809  12.184  0.4177 -0.0508  0.3929
15927TIP3    H169272   1.936   5.745  12.252 -1.3062  0.9401  1.8824
15927TIP3    H269273   1.880   5.758  12.112 -0.1666 -0.8466  1.2384
15928TIP3   OH269274   3.259   3.488   2.019  0.8121 -0.0777 -0.1304
15928TIP3    H169275   3.232   3.548   2.089  0.1090 -0.9303  0.3290
15928TIP3    H269276   3.194   3.502   1.950  0.0080 -1.1012  0.4125
15929TIP3   OH269277   6.740   5.465   3.023 -0.5191  0.2873  0.2216
15929TIP3    H169278   6.750   5.550   3.065  1.0998  0.2297  0.0141
15929TIP3    H269279   6.678   5.480   2.951  0.5014  1.5294 -0.4237
15930TIP3   OH269280   4.633   5.567  10.983 -0.5051 -0.0111 -0.3081
15930TIP3    H169281   4.582   5.536  10.908 -0.3716 -1.4456  0.1758
15930TIP3    H269282   4.720   5.530  10.968  0.1469  1.6336 -0.6399
15931TIP3   OH269283   0.784   0.720   4.171 -0.2922 -0.2222  0.0261
15931TIP3    H169284   0.810   0.812   4.178 -1.2214  0.0024  0.5866
15931TIP3    H269285   0.737   0.702   4.252  1.1275 -1.6123  0.5565
15932TIP3   OH269286   3.712   2.573   5.527 -0.4838  0.2886 -0.0535
15932TIP3    H169287   3.711   2.491   5.478 -1.2890 -1.5612  2.8831
15932TIP3    H269288   3.632   2.570   5.579  0.2758  2.1899  1.2708
15933TIP3   OH269289   3.103   1.066  12.823 -0.0543  0.0354  0.1241
15933TIP3    H169290   3.199   1.072  12.823  0.0133 -0.8029  0.8576
15933TIP3    H269291   3.076   1.126  12.893  0.0107 -0.5145  0.6319
15934TIP3   OH269292   2.470   4.743  14.115  0.0273  0.1301  0.1556
15934TIP3    H169293   2.382   4.750  14.152  0.8205 -0.2654  2.1925
15934TIP3    H269294   2.485   4.649  14.108  0.6010  0.1835  0.6202
15935TIP3   OH269295   2.580   4.450  10.426 -0.1586  0.2085  0.5404
15935TIP3    H169296   2.552   4.385  10.491 -0.0614 -0.7712 -0.3757
15935TIP3    H269297   2.619   4.397  10.356  1.3219  1.3581  0.4774
15936TIP3   OH269298   4.667   4.361  14.073  0.2211 -0.2792  0.3309
15936TIP3    H169299   4.582   4.404  14.069 -0.4280 -1.5163  0.6794
15936TIP3    H269300   4.684   4.334  13.983  0.5497  0.5371  0.1425
15937TIP3   OH269301   2.469   1.676   0.853  0.1448 -0.5323  0.2492
15937TIP3    H169302   2.451   1.686   0.946 -0.5031 -0.4245  0.1195
15937TIP3    H269303   2.529   1.747   0.831 -1.2596  0.6660  0.1712
15938TIP3   OH269304   6.728   2.939   0.538  0.5128 -0.2416  0.1901
15938TIP3    H169305   6.696   2.885   0.610  3.3096  2.6269  3.7636
15938TIP3    H269306   6.813   2.902   0.516  0.3202 -0.1901 -0.6709
15939TIP3   OH269307   0.219   5.394  16.573 -0.1271 -0.3390 -0.1394
15939TIP3    H169308   0.266   5.439  16.644  0.3356 -0.5742 -0.2893
15939TIP3    H269309   0.228   5.452  16.498 -0.7991  0.0094  0.0531
15940TIP3   OH269310   2.669   4.238  14.378  0.6537  0.0668  0.1067
15940TIP3    H169311   2.612   4.191  14.439  0.8075  0.5646  0.6348
15940TIP3    H269312   2.710   4.306  14.430  0.8654  0.4362 -0.5317
15941TIP3   OH269313   1.164   4.577   3.579 -0.0394  0.2340 -0.1783
15941TIP3    H169314   1.224   4.623   3.520  0.5297  1.1898  1.0967
15941TIP3    H269315   1.149   4.640   3.650 -0.9016 -0.7883  0.5568
15942TIP3   OH269316   2.295   5.073  12.482  0.2219  0.3033  0.1086
15942TIP3    H169317   2.253   5.156  12.504  0.5545  0.6571 -0.5784
15942TIP3    H269318   2.287   5.021  12.561  2.1067  1.8465  1.3739
15943TIP3   OH269319   4.223   0.442  13.310  0.0964 -0.2786  0.1299
15943TIP3    H169320   4.317   0.430  13.322 -0.4883 -3.6135  2.0435
15943TIP3    H269321   4.187   0.442  13.399 -1.9607 -1.8613 -0.6558
15944TIP3   OH269322   1.360   2.490   1.170 -0.5489 -0.0196 -0.7560
15944TIP3    H169323   1.307   2.493   1.091 -1.6771 -2.4290 -0.1468
15944TIP3    H269324   1.411   2.571   1.168 -1.6294  0.6492 -3.1741
15945TIP3   OH269325   1.080   4.708   1.819 -0.0017 -0.1591  0.1674
15945TIP3    H169326   1.007   4.678   1.765 -1.3771  1.0139  1.3278
15945TIP3    H269327   1.115   4.628   1.858 -1.1400 -0.6584  0.1886
15946TIP3   OH269328   1.245   4.074   4.129 -0.1222 -0.7316  0.3244
15946TIP3    H169329   1.230   4.035   4.215 -0.3256  1.0644  1.1272
15946TIP3    H269330   1.320   4.132   4.142  0.9086 -1.7165 -1.1249
15947TIP3   OH269331   6.781   6.401  11.305  0.0017  0.3398 -0.4066
15947TIP3    H169332   6.757   6.350  11.228 -0.1081 -0.0376 -0.1206
15947TIP3    H269333   6.750   6.350  11.380  0.7332  0.3582 -0.0805
15948TIP3   OH269334   6.773   4.238   1.247 -0.2409  0.2384  0.7071
15948TIP3    H169335   6.726   4.203   1.322  0.2919 -0.5023  0.6936
15948TIP3    H269336   6.709   4.295   1.204 -0.6898  0.3166  1.4621
15949TIP3   OH269337   0.111   3.562   1.268 -0.0344  0.3035 -0.1455
15949TIP3    H169338   0.110   3.503   1.193 -2.6588 -0.4658  0.4627
15949TIP3    H269339   0.027   3.547   1.312  0.2889  2.7389  1.3856
15950TIP3   OH269340   4.651   6.431   4.937 -0.1674 -0.5611  0.2075
15950TIP3    H169341   4.650   6.452   4.844  1.1774  1.2531  0.5608
15950TIP3    H269342   4.619   6.341   4.942  0.6580 -1.0310 -2.0879
15951TIP3   OH269343   2.424   4.606  11.652  0.2481 -0.3995 -0.4213
15951TIP3    H169344   2.485   4.549  11.699 -0.7992 -1.2522 -0.0822
15951TIP3    H269345   2.443   4.694  11.684  1.5509 -0.6112 -0.5962
15952TIP3   OH269346   6.684   0.202   5.943  0.2672 -0.4461  1.0873
15952TIP3    H169347   6.750   0.218   5.876 -0.1668  1.8797  1.1810
15952TIP3    H269348   6.630   0.132   5.907  1.1727 -0.5222 -0.1447
15953TIP3   OH269349   5.118   6.612   6.420  0.5776  0.5762  0.3209
15953TIP3    H169350   5.112   6.695   6.374 -2.6791  0.6877  0.8079
15953TIP3    H269351   5.114   6.635   6.513 -3.0597 -0.1802  0.4407
15954TIP3   OH269352   1.107   5.131  15.610 -0.0871 -0.1019  0.0345
15954TIP3    H169353   1.035   5.194  15.601 -0.5489 -0.8249 -1.4497
15954TIP3    H269354   1.094   5.093  15.697 -1.2072  0.1205 -0.0227
15955TIP3   OH269355   2.592   5.234  15.931  0.1375 -0.2257 -0.5574
15955TIP3    H169356   2.680   5.269  15.942  0.0426 -0.4278  0.9020
15955TIP3    H269357   2.604   5.140  15.919  0.0066 -0.6202  2.0339
15956TIP3   OH269358   3.442   6.027  16.816 -0.1568 -0.4327 -0.0907
15956TIP3    H169359   3.425   6.014  16.723  0.6233  1.2338 -0.4861
15956TIP3    H269360   3.366   6.075  16.848  0.7507  1.3281 -0.4740
15957TIP3   OH269361   0.753   3.468   1.618 -0.0970 -0.1670  0.2871
15957TIP3    H169362   0.731   3.561   1.622  1.4363  0.1899  0.6805
15957TIP3    H269363   0.721   3.439   1.532  1.2454  1.2216 -0.7243
15958TIP3   OH269364   2.430   6.367   5.426 -1.2522 -0.2484  0.1450
15958TIP3    H169365   2.483   6.341   5.502  0.7548  1.6018 -0.5829
15958TIP3    H269366   2.349   6.317   5.436  0.1357 -2.2643  1.9290
15959TIP3   OH269367   5.998   6.097   3.920  0.1805 -0.0988  0.0920
15959TIP3    H169368   6.064   6.053   3.867 -0.2167  0.7917 -1.1608
15959TIP3    H269369   5.978   6.177   3.872 -1.0536  0.1465  0.9908
15960TIP3   OH269370   3.647   1.134   5.916  0.7226 -0.3446 -0.1272
15960TIP3    H169371   3.725   1.084   5.938  0.3808  0.9521  4.5713
15960TIP3    H269372   3.679   1.211   5.868  1.8995 -1.5142 -1.2498
15961TIP3   OH269373   4.937   4.267   0.847  0.2548 -0.2839  0.2902
15961TIP3    H169374   4.890   4.230   0.922  0.8392 -2.7303 -0.5131
15961TIP3    H269375   4.870   4.283   0.781 -0.0592  0.5380  0.7975
15962TIP3   OH269376   4.051   2.428  16.082 -0.1205 -0.1245  0.0099
15962TIP3    H169377   4.055   2.450  16.175  0.1696  3.5657 -0.7931
15962TIP3    H269378   4.107   2.351  16.074  0.8170  0.2025  2.7110
15963TIP3   OH269379   0.173   5.409   0.921  0.6134 -0.0783 -0.7490
15963TIP3    H169380   0.234   5.339   0.899  3.5507  2.2948 -0.6007
15963TIP3    H269381   0.193   5.479   0.858 -0.1072  1.7443  0.9788
15964TIP3   OH269382   2.849   0.383  13.605  0.2551 -0.0342  0.2880
15964TIP3    H169383   2.903   0.460  13.618 -0.6772  0.5242  0.8706
15964TIP3    H269384   2.857   0.334  13.687 -0.3579  0.1919  0.4800
15965TIP3   OH269385   0.819   3.779   6.486  0.0515 -0.1480 -0.1101
15965TIP3    H169386   0.772   3.699   6.507  1.0028 -0.5825  0.4186
15965TIP3    H269387   0.853   3.810   6.570  1.6988 -0.4956 -0.6272
15966TIP3   OH269388   4.928   5.512   0.022  0.0805 -0.8030 -0.2920
15966TIP3    H169389   4.965   5.429  -0.009 -2.0658 -1.7982 -0.2720
15966TIP3    H269390   4.963   5.578  -0.038  2.2243 -1.6388  0.0101
15967TIP3   OH269391   0.287   6.277   4.615 -0.0959  0.0043 -0.5062
15967TIP3    H169392   0.318   6.290   4.525 -1.5833 -1.0096 -1.1780
15967TIP3    H269393   0.210   6.333   4.622 -0.8828 -1.0819 -0.3597
15968TIP3   OH269394   6.198   1.239  13.645 -0.1907  0.0128 -0.6468
15968TIP3    H169395   6.283   1.242  13.689 -0.1800 -1.1295 -0.5634
15968TIP3    H269396   6.167   1.330  13.645  0.2871  0.1939  0.7859
15969TIP3   OH269397   1.620   0.134  11.550 -0.2963  0.2711 -0.0145
15969TIP3    H169398   1.541   0.189  11.546 -1.2663 -0.7799  3.0429
15969TIP3    H269399   1.592   0.050  11.514  0.0742  0.5751 -1.0208
15970TIP3   OH269400   3.445   2.608  12.976  0.5249 -0.3630 -0.4439
15970TIP3    H169401   3.461   2.689  13.023  2.6765 -1.3066  0.5284
15970TIP3    H269402   3.419   2.635  12.888 -2.0847  1.3916  0.8201
15971TIP3   OH269403   4.379   5.894  15.103  0.0849  0.1287  0.4619
15971TIP3    H169404   4.472   5.914  15.113  0.7950 -1.3851 -2.4266
15971TIP3    H269405   4.334   5.970  15.138  2.4924  1.8989 -0.1618
15972TIP3   OH269406   4.700   2.028  16.817  0.0216 -0.3283  0.1234
15972TIP3    H169407   4.716   2.106  16.871 -0.0097 -0.7257  0.7134
15972TIP3    H269408   4.607   2.008  16.831 -0.3006  0.3038 -1.0622
15973TIP3   OH269409   2.633   1.245   2.676  0.0400  0.1023 -0.9646
15973TIP3    H169410   2.709   1.276   2.726  0.1855 -0.6623 -0.6961
15973TIP3    H269411   2.578   1.322   2.666 -1.6782 -0.4163  3.4634
15974TIP3   OH269412   3.069   4.216   4.787 -0.2326 -0.6980  0.3978
15974TIP3    H169413   3.060   4.123   4.806 -0.8912 -0.2635  2.3514
15974TIP3    H269414   3.030   4.227   4.701  1.7929 -2.5812 -0.8081
15975TIP3   OH269415   0.823   2.009   5.202  0.2677 -0.6185 -0.4002
15975TIP3    H169416   0.893   2.074   5.205 -0.4717  0.1866 -0.5751
15975TIP3    H269417   0.864   1.932   5.162  1.3268 -0.4948  0.4177
15976TIP3   OH269418   3.371   6.200  12.550 -0.1821 -0.0616  0.3326
15976TIP3    H169419   3.457   6.160  12.542 -0.9143 -1.4028 -1.0206
15976TIP3    H269420   3.361   6.218  12.644  1.4766 -0.0698  0.5209
15977TIP3   OH269421   5.251   5.279   1.443  0.5916 -0.0062  0.0193
15977TIP3    H169422   5.245   5.187   1.418  0.9455 -0.5359  1.8553
15977TIP3    H269423   5.160   5.310   1.440  0.4908 -0.3673 -0.7655
15978TIP3   OH269424   2.599   1.797  16.242 -0.3629  0.6202 -0.1196
15978TIP3    H169425   2.565   1.838  16.322 -3.5051  0.3937 -1.2572
15978TIP3    H269426   2.540   1.827  16.173  1.3769 -0.4170 -2.1240
15979TIP3   OH269427   6.054   6.690  11.332 -0.1395  0.1273 -0.1241
15979TIP3    H169428   5.997   6.636  11.387  2.1030  0.0154  2.1647
15979TIP3    H269429   6.129   6.634  11.312 -0.1699  0.7122 -1.9806
15980TIP3   OH269430   4.243   2.340  12.686 -0.3191 -0.1178  0.0780
15980TIP3    H169431   4.309   2.353  12.754  1.6584  1.1214 -2.0235
15980TIP3    H269432   4.172   2.293  12.730  1.6773 -0.9181  2.5505
15981TIP3   OH269433   5.658   2.562   3.230 -0.0221  0.2251  0.1050
15981TIP3    H169434   5.637   2.617   3.154  1.6846 -0.2917 -0.7684
15981TIP3    H269435   5.580   2.567   3.286 -2.0753 -0.8184 -2.5397
15982TIP3   OH269436   1.003   0.129  12.452 -0.2048  0.1181  1.1324
15982TIP3    H169437   1.047   0.179  12.521 -0.5623  1.3117  0.5089
15982TIP3    H269438   0.911   0.155  12.459  0.0356  1.7461 -1.0136
15983TIP3   OH269439   5.636   5.098  10.464 -0.0290 -0.1170 -0.0243
15983TIP3    H169440   5.542   5.082  10.467  0.1167 -1.1704 -0.9901
15983TIP3    H269441   5.644   5.191  10.443 -0.8499 -0.1700 -0.5773
15984TIP3   OH269442   2.868   5.221  15.183  0.0465  0.0740 -0.5316
15984TIP3    H169443   2.860   5.315  15.203  0.5131  0.2962 -1.3605
15984TIP3    H269444   2.952   5.214  15.138 -0.4940 -0.5843 -1.4258
15985TIP3   OH269445   4.227   2.738   5.291 -0.0562  0.1232  0.0938
15985TIP3    H169446   4.148   2.686   5.305 -0.1032 -0.5688 -2.4894
15985TIP3    H269447   4.297   2.686   5.331 -0.1447 -1.8304 -2.2161
15986TIP3   OH269448   0.600   6.181   4.230  0.1421  0.4486 -0.0750
15986TIP3    H169449   0.671   6.156   4.170 -1.2810  0.1756 -1.7013
15986TIP3    H269450   0.521   6.151   4.186 -0.8640 -0.7798  2.5250
15987TIP3   OH269451   2.547   3.919   0.136 -0.2381 -0.5908 -0.5237
15987TIP3    H169452   2.521   3.995   0.084  0.8671 -0.3547 -0.7298
15987TIP3    H269453   2.470   3.900   0.191  1.1691  3.6846  3.1648
15988TIP3   OH269454   3.450   3.567   2.365 -0.0549  0.0609  0.7905
15988TIP3    H169455   3.360   3.592   2.344 -0.6739 -0.3388  2.8196
15988TIP3    H269456   3.489   3.647   2.402  1.4482  1.1658 -2.9364
15989TIP3   OH269457   0.693   2.366   5.091 -0.3472 -0.0538 -0.3344
15989TIP3    H169458   0.678   2.424   5.016  1.4512 -0.1844 -0.8258
15989TIP3    H269459   0.716   2.424   5.163 -0.0174 -0.0488 -0.4410
15990TIP3   OH269460   4.794   0.585   5.867 -0.3779 -0.1994 -0.1968
15990TIP3    H169461   4.701   0.566   5.856  0.1638 -2.1818 -1.5889
15990TIP3    H269462   4.815   0.646   5.797 -0.5259 -0.1665 -0.2114
15991TIP3   OH269463   4.782   1.597  11.611  0.1597  0.0409 -0.2331
15991TIP3    H169464   4.687   1.608  11.622 -0.0344 -1.8539  0.1817
15991TIP3    H269465   4.806   1.660  11.544 -1.6284 -0.3527 -1.2725
15992TIP3   OH269466   0.309   4.021  15.008 -0.3836  0.1287 -0.7043
15992TIP3    H169467   0.312   3.937  15.053 -1.4664  0.0091 -0.8413
15992TIP3    H269468   0.331   4.085  15.075 -2.5978  0.0074  0.1840
15993TIP3   OH269469   5.689   0.258   5.071 -0.4254  0.1113 -0.3212
15993TIP3    H169470   5.596   0.259   5.093 -0.3572 -0.4003  0.0047
15993TIP3    H269471   5.691   0.268   4.976 -0.7787  0.8740 -0.2515
15994TIP3   OH269472   6.596   4.279   2.874 -0.1451  0.9177 -0.1938
15994TIP3    H169473   6.507   4.247   2.861 -0.1297  0.7906  0.0195
15994TIP3    H269474   6.643   4.206   2.912 -0.4370  1.5900  1.5133
15995TIP3   OH269475   6.786   5.526   4.297 -0.5607  0.1614  0.2893
15995TIP3    H169476   6.796   5.540   4.203  2.7521 -1.1118  0.3744
15995TIP3    H269477   6.842   5.593   4.337 -2.8683  1.4768  1.4660
15996TIP3   OH269478   0.473   3.422   0.329  0.0660  0.0646  0.0697
15996TIP3    H169479   0.433   3.366   0.262 -0.3846  0.9611 -0.4130
15996TIP3    H269480   0.517   3.360   0.388  1.7913 -0.6199 -1.9002
15997TIP3   OH269481   6.596   1.622   3.579 -0.4076  0.1339  0.3281
15997TIP3    H169482   6.655   1.574   3.637 -0.0334 -0.6102 -0.6658
15997TIP3    H269483   6.649   1.643   3.502 -0.9046  1.1153  0.2399
15998TIP3   OH269484   6.660   0.682  16.932  0.4007  0.2177 -0.3640
15998TIP3    H169485   6.722   0.749  16.961 -1.3297  1.1872  1.1996
15998TIP3    H269486   6.636   0.710  16.843  0.3999  1.1547 -0.0805
15999TIP3   OH269487   0.403   6.373   4.365 -0.5976 -0.1308  0.0622
15999TIP3    H169488   0.390   6.467   4.380  0.5115  0.1733 -0.7691
15999TIP3    H269489   0.491   6.367   4.326 -1.0087 -1.4286 -0.6914
16000TIP3   OH269490   0.330   4.491   1.030 -0.4204  0.2304  0.3265
16000TIP3    H169491   0.390   4.501   1.104  0.8137  1.8830 -0.8616
16000TIP3    H269492   0.256   4.547   1.052 -2.1410 -2.7081  2.3409
16001TIP3   OH269493   1.606   0.675   5.637 -0.2941 -0.4081 -0.5032
16001TIP3    H169494   1.629   0.754   5.685  0.3595  0.5829 -2.3712
16001TIP3    H269495   1.663   0.607   5.673 -1.5144 -0.2663  1.7589
16002TIP3   OH269496   5.254   3.687   4.051  0.4471 -0.2371  0.3837
16002TIP3    H169497   5.172   3.694   4.003  0.1288 -1.4240  0.7212
16002TIP3    H269498   5.241   3.741   4.129  0.0336 -0.2951  0.3575
16003TIP3   OH269499   6.525   1.108  12.606 -0.0720 -0.2874  0.4934
16003TIP3    H169500   6.448   1.064  12.570 -1.7576  2.9036  0.0181
16003TIP3    H269501   6.523   1.089  12.700 -1.4281 -0.2485  0.4718
16004TIP3   OH269502   1.427   4.258  16.876 -0.1702  0.0807  0.5849
16004TIP3    H169503   1.353   4.240  16.934  0.9572 -1.8672  1.4434
16004TIP3    H269504   1.493   4.299  16.932  0.6743 -1.2283  0.5861
16005TIP3   OH269505   0.640   5.080   5.473  0.2701 -0.1425  0.4111
16005TIP3    H169506   0.662   5.171   5.493 -2.4298  0.6571 -0.0902
16005TIP3    H269507   0.641   5.076   5.377  1.4020 -0.9138  0.4528
16006TIP3   OH269508   1.521   1.172  12.097 -0.3062  0.3718 -0.2421
16006TIP3    H169509   1.472   1.096  12.066  0.8841 -0.2328 -0.6655
16006TIP3    H269510   1.579   1.194  12.024 -0.9194  1.9321 -0.2703
16007TIP3   OH269511   3.078   0.596  14.526 -0.6827  0.0769 -0.1101
16007TIP3    H169512   3.147   0.608  14.591 -1.5237 -1.3483  1.0872
16007TIP3    H269513   3.000   0.634  14.566 -1.1890 -0.7279 -0.3064
16008TIP3   OH269514   1.180   5.592  13.127  0.7527 -0.2601 -0.5389
16008TIP3    H169515   1.230   5.511  13.138 -1.6778 -1.9832 -1.8018
16008TIP3    H269516   1.149   5.613  13.215 -0.7156 -2.1391 -0.5784
16009TIP3   OH269517   3.566   3.456   3.566  0.5618 -0.0940  0.4453
16009TIP3    H169518   3.618   3.417   3.637 -0.7732  0.6869  1.8774
16009TIP3    H269519   3.491   3.496   3.610 -0.4915  0.0822 -1.4566
16010TIP3   OH269520   0.627   4.949  13.468  0.0464  0.5490 -0.3209
16010TIP3    H169521   0.549   5.004  13.476  0.2360  0.7200  0.4274
16010TIP3    H269522   0.613   4.878  13.531 -1.1887 -1.4853 -2.8137
16011TIP3   OH269523   1.600   2.976  15.960  0.1179  0.0999 -0.3829
16011TIP3    H169524   1.556   3.014  16.037 -0.5458 -1.2885 -0.0676
16011TIP3    H269525   1.687   3.016  15.960 -0.3167  1.0627  0.3646
16012TIP3   OH269526   4.053   0.904  12.136  0.0509  0.1506 -0.5609
16012TIP3    H169527   4.043   0.838  12.205 -0.7367  0.9379  0.0950
16012TIP3    H269528   4.071   0.854  12.057  1.8618 -0.7296  0.3829
16013TIP3   OH269529   6.522   1.795   0.307 -0.3055  0.3232  0.2878
16013TIP3    H169530   6.565   1.850   0.241 -0.0931 -0.3156 -0.1113
16013TIP3    H269531   6.518   1.850   0.385  2.8587 -0.2114  0.8859
16014TIP3   OH269532   3.537   1.646   2.815  0.2693 -0.3149 -0.6295
16014TIP3    H169533   3.613   1.598   2.783 -0.3198 -1.0687 -0.8950
16014TIP3    H269534   3.463   1.588   2.799  0.0614 -1.1767  3.1243
16015TIP3   OH269535   2.598   1.104   3.807  0.3671 -0.2488 -0.4825
16015TIP3    H169536   2.510   1.068   3.805  0.6890 -0.9894 -2.4260
16015TIP3    H269537   2.591   1.185   3.756  0.6166  0.1375  0.0984
16016TIP3   OH269538   3.343   3.750   5.099 -0.2482  0.3422 -0.2591
16016TIP3    H169539   3.271   3.800   5.059 -1.5438 -0.0423  1.5304
16016TIP3    H269540   3.394   3.815   5.147 -0.2488  0.3844 -0.3156
16017TIP3   OH269541   1.418   1.973  10.865 -0.5559  0.2173 -0.1025
16017TIP3    H169542   1.375   1.924  10.795 -0.8703  1.1457 -0.5685
16017TIP3    H269543   1.484   1.913  10.899 -0.8093 -0.4608 -0.7879
16018TIP3   OH269544   1.987   3.533  11.605 -0.8858 -0.1392 -0.2284
16018TIP3    H169545   2.076   3.541  11.640 -1.1627  2.3257 -0.0517
16018TIP3    H269546   1.952   3.455  11.649  0.7677 -0.4594  0.5777
16019TIP3   OH269547   4.721   1.400  13.850 -0.0175 -0.5829  0.2067
16019TIP3    H169548   4.684   1.428  13.766 -0.8824  0.2650  0.8537
16019TIP3    H269549   4.674   1.320  13.872  1.3199 -1.6795 -0.8692
16020TIP3   OH269550   4.619   2.533   4.110 -0.1378 -0.3478 -0.4340
16020TIP3    H169551   4.661   2.527   4.024  0.6301 -0.9865 -0.0258
16020TIP3    H269552   4.643   2.451   4.154  1.2454  0.8726  1.1801
16021TIP3   OH269553   2.927   1.669   1.945 -0.6973 -0.3950  0.0803
16021TIP3    H169554   3.011   1.670   1.898 -1.0232  2.3420 -0.5042
16021TIP3    H269555   2.949   1.631   2.030  1.5311  1.8066  0.5674
16022TIP3   OH269556   1.311   5.029   6.187 -0.5219 -0.3803  0.2463
16022TIP3    H169557   1.307   5.120   6.217  0.5477  0.9345 -3.4128
16022TIP3    H269558   1.311   4.977   6.268 -0.1039  2.8899  2.4179
16023TIP3   OH269559   5.271   2.734   3.403  0.2971  0.0552  0.5531
16023TIP3    H169560   5.191   2.687   3.380 -1.1072  2.1816  0.9490
16023TIP3    H269561   5.342   2.672   3.386 -1.3617 -1.4830 -0.8208
16024TIP3   OH269562   4.165   1.630   3.909  0.0378  0.1938 -0.4972
16024TIP3    H169563   4.255   1.600   3.924  0.2432  1.4766  1.0104
16024TIP3    H269564   4.121   1.556   3.866  1.5096 -0.8521 -0.2232
16025TIP3   OH269565   5.761   5.052  14.553  0.0343 -0.1356 -0.6268
16025TIP3    H169566   5.716   4.968  14.541  2.3260 -1.7061  1.2751
16025TIP3    H269567   5.722   5.088  14.633 -1.8350  1.2686 -2.1236
16026TIP3   OH269568   0.481   5.740  12.170  0.0593  0.4375  0.1297
16026TIP3    H169569   0.564   5.748  12.218  0.6275  0.0651 -0.7762
16026TIP3    H269570   0.420   5.795  12.219  0.3775 -0.6532  1.8162
16027TIP3   OH269571   5.596   2.011  11.110 -0.1622 -0.4123  0.1984
16027TIP3    H169572   5.595   2.001  11.205  1.2258  0.9066  0.3720
16027TIP3    H269573   5.635   1.930  11.078 -0.6520 -0.8682  0.7353
16028TIP3   OH269574   3.204   6.423   0.754  0.1843 -0.0040 -0.7782
16028TIP3    H169575   3.247   6.369   0.687  0.7110 -0.7472  0.1479
16028TIP3    H269576   3.116   6.437   0.720 -0.1884 -2.0465 -0.7159
16029TIP3   OH269577   0.144   3.426   5.227  0.5089  0.1510  0.1026
16029TIP3    H169578   0.171   3.367   5.156 -0.9803  0.3680 -0.6695
16029TIP3    H269579   0.223   3.477   5.247  1.5697 -1.4911  0.1805
16030TIP3   OH269580   1.104   2.086  11.241  0.0028  0.3346 -0.1163
16030TIP3    H169581   1.113   2.003  11.288 -2.1996  1.1839  1.8877
16030TIP3    H269582   1.127   2.065  11.150  2.9804 -1.6468  1.0270
16031TIP3   OH269583   1.536   5.649  13.844 -0.1402  0.4310  0.5537
16031TIP3    H169584   1.585   5.577  13.803 -2.2147  0.5942 -2.3589
16031TIP3    H269585   1.460   5.606  13.883  0.3559  0.6424  1.7610
16032TIP3   OH269586   5.955   6.343  14.759  0.2030 -0.4213  0.1193
16032TIP3    H169587   5.989   6.318  14.674  1.8360  2.1614 -0.0544
16032TIP3    H269588   5.941   6.260  14.805  2.3682 -1.7292 -1.4879
16033TIP3   OH269589   5.238   0.319  15.531 -0.4074 -0.1245  0.4748
16033TIP3    H169590   5.312   0.325  15.471 -1.0550 -0.3329 -0.3491
16033TIP3    H269591   5.163   0.346  15.478 -1.2695 -2.1428  0.6583
16034TIP3   OH269592   2.700   0.440   2.007 -0.6594  0.0593 -0.0455
16034TIP3    H169593   2.736   0.395   2.083  1.2028 -0.6795 -1.3193
16034TIP3    H269594   2.634   0.380   1.972 -0.1409 -0.4578 -0.1380
16035TIP3   OH269595   5.098   0.510   5.578 -0.1451  0.0038 -0.2624
16035TIP3    H169596   5.066   0.476   5.662 -0.2025 -1.1118 -0.7220
16035TIP3    H269597   5.178   0.459   5.560 -1.5302 -1.6363 -2.1189
16036TIP3   OH269598   3.015   5.889   0.169 -0.6692  0.2615  0.2174
16036TIP3    H169599   2.995   5.795   0.174 -2.7395  0.7206  1.0083
16036TIP3    H269600   3.109   5.892   0.149 -0.2007 -1.9770  1.7588
16037TIP3   OH269601   3.050   3.669   4.747  0.1436 -0.1337  0.7215
16037TIP3    H169602   3.006   3.653   4.830  2.3892 -1.4270  1.7279
16037TIP3    H269603   3.122   3.605   4.746 -1.7565 -2.4160 -3.6893
16038TIP3   OH269604   3.284   0.475  12.610  0.2947  0.1652  0.4972
16038TIP3    H169605   3.362   0.462  12.557  0.3400  0.5566  0.4631
16038TIP3    H269606   3.311   0.456  12.699  1.2390  3.2317  0.9274
16039TIP3   OH269607   3.431   2.921   1.223  0.0919  0.4499 -0.1460
16039TIP3    H169608   3.359   2.896   1.165 -1.1314  1.6402  0.8256
16039TIP3    H269609   3.457   3.008   1.193  0.4700  0.4268  0.1154
16040TIP3   OH269610   5.714   5.283  14.071  0.1292  0.6636 -0.3873
16040TIP3    H169611   5.688   5.338  14.144  0.0988 -0.3189  0.3568
16040TIP3    H269612   5.800   5.316  14.044  0.6269  0.3354  0.7927
16041TIP3   OH269613   1.850   5.094  15.108 -0.2677  0.8026 -0.2733
16041TIP3    H169614   1.910   5.052  15.046  0.8683  1.2076  0.5480
16041TIP3    H269615   1.815   5.022  15.161  0.9814  0.7785  0.5279
16042TIP3   OH269616   6.197   3.445   1.069 -0.4587 -0.1244 -0.5440
16042TIP3    H169617   6.120   3.394   1.043 -0.4019 -0.3461 -0.2819
16042TIP3    H269618   6.270   3.400   1.026  0.0790 -2.5931  2.7317
16043TIP3   OH269619   6.322   4.536   1.102 -0.3576  0.2890 -0.0641
16043TIP3    H169620   6.253   4.471   1.109 -1.2767  1.2295 -0.2774
16043TIP3    H269621   6.347   4.555   1.193 -0.0702 -0.3615 -0.0024
16044TIP3   OH269622   3.355   0.746   6.705  0.4711 -0.6588 -0.5036
16044TIP3    H169623   3.398   0.826   6.675 -1.7484  0.7896  0.0644
16044TIP3    H269624   3.265   0.755   6.675 -0.1280 -2.3212  0.7574
16045TIP3   OH269625   5.961   3.112  13.901  0.4697  0.1894  0.2173
16045TIP3    H169626   6.050   3.113  13.935  0.7459  1.4584 -0.5289
16045TIP3    H269627   5.921   3.193  13.934 -0.5952 -0.6484  1.0265
16046TIP3   OH269628   6.780   6.491   0.828 -0.2225  0.3953  0.8234
16046TIP3    H169629   6.712   6.433   0.863  0.0579 -0.6226 -0.2590
16046TIP3    H269630   6.733   6.571   0.806 -0.6676  0.4864  2.1048
16047TIP3   OH269631   0.901   1.276  14.316 -0.4579 -0.0594  0.4339
16047TIP3    H169632   0.937   1.349  14.266 -0.7178  2.0992  3.2317
16047TIP3    H269633   0.952   1.200  14.288  0.6476  1.4043 -1.6688
16048TIP3   OH269634   5.797   4.666   0.213  0.1551  0.2866 -0.0859
16048TIP3    H169635   5.829   4.650   0.124  1.2393  1.9072 -0.0121
16048TIP3    H269636   5.731   4.734   0.203 -0.3201 -0.1224  0.2539
16049TIP3   OH269637   1.866   1.961   5.274  0.2616  0.3510 -0.2016
16049TIP3    H169638   1.880   1.906   5.351 -2.0179  1.8988  1.3579
16049TIP3    H269639   1.780   1.936   5.241  0.6548  0.6347 -1.4844
16050TIP3   OH269640   2.419   2.579   7.018 -0.1048  0.0346 -0.1200
16050TIP3    H169641   2.410   2.488   7.046 -0.2091  1.1270  3.6266
16050TIP3    H269642   2.330   2.607   6.999 -0.3143 -0.0448  0.7413
16051TIP3   OH269643   4.036   3.826   2.542  0.2318  0.0994 -1.0401
16051TIP3    H169644   4.102   3.798   2.479 -1.4408 -0.5115 -2.5693
16051TIP3    H269645   3.994   3.744   2.570  0.9394  0.3657  0.8692
16052TIP3   OH269646   4.643   3.746  14.971 -0.2954  0.1597  0.7239
16052TIP3    H169647   4.613   3.738  15.061 -1.9883  1.3657  0.2868
16052TIP3    H269648   4.563   3.747  14.919  0.6281  0.3570 -0.7253
16053TIP3   OH269649   1.027   1.277  11.874  0.1579  0.1250 -0.0895
16053TIP3    H169650   1.013   1.281  11.969 -2.7879 -2.5536 -0.3033
16053TIP3    H269651   1.099   1.215  11.863  0.6117  0.5656  0.4128
16054TIP3   OH269652   6.783   5.100   1.061  0.3034 -0.1663 -0.1597
16054TIP3    H169653   6.781   5.006   1.080  0.0966 -0.4270 -1.4317
16054TIP3    H269654   6.711   5.114   0.999  1.2235  0.5743 -1.0782
16055TIP3   OH269655   0.592   3.850  12.907 -0.0787  0.4800 -0.5639
16055TIP3    H169656   0.612   3.845  13.000  1.6361 -0.1046 -0.9373
16055TIP3    H269657   0.515   3.905  12.902 -1.3786 -1.0840  1.3690
16056TIP3   OH269658   5.838   1.255  14.391  0.3461  0.0726 -0.1746
16056TIP3    H169659   5.842   1.328  14.329 -0.5659  0.3063  0.0484
16056TIP3    H269660   5.896   1.189  14.353 -2.3724 -0.9365 -2.7693
16057TIP3   OH269661   1.036   2.867   2.974 -0.3268 -0.0379 -0.2071
16057TIP3    H169662   1.074   2.781   2.993 -1.9675 -0.9737 -1.0043
16057TIP3    H269663   0.967   2.849   2.910 -0.8097  1.8626 -0.2590
16058TIP3   OH269664   5.943   4.659  12.356 -0.8784 -0.3280 -0.5627
16058TIP3    H169665   5.998   4.733  12.329  0.4069 -0.7428  0.8368
16058TIP3    H269666   5.908   4.625  12.274  0.0042  0.6935 -1.3936
16059TIP3   OH269667   2.592   0.589  14.768 -0.3021 -0.3411  0.6763
16059TIP3    H169668   2.505   0.620  14.795 -0.1124  0.3300  0.5342
16059TIP3    H269669   2.637   0.569  14.850 -0.0828  0.7246  0.8263
16060TIP3   OH269670   6.176   6.435   2.973  0.2600  0.0460  0.0078
16060TIP3    H169671   6.259   6.396   2.943  0.3426 -2.6544  3.4608
16060TIP3    H269672   6.202   6.495   3.043 -0.3760  2.3777 -1.7158
16061TIP3   OH269673   0.840   3.627  14.017  0.0582  0.6427 -0.3572
16061TIP3    H169674   0.823   3.631  14.111  0.4798 -0.2831 -0.2390
16061TIP3    H269675   0.827   3.717  13.986  0.5686  1.0840  0.6976
16062TIP3   OH269676   1.765   4.766  11.589  0.3912 -0.8117 -0.1885
16062TIP3    H169677   1.766   4.861  11.584  0.0131 -0.7213  1.1301
16062TIP3    H269678   1.797   4.736  11.504 -2.0673  0.4532 -1.5751
16063TIP3   OH269679   4.441   4.498  13.969  0.4735  0.2562  0.6960
16063TIP3    H169680   4.394   4.541  14.040  0.6316  1.3792  0.1443
16063TIP3    H269681   4.452   4.567  13.903  0.3153 -0.7745 -0.4199
16064TIP3   OH269682   0.628   3.618   6.559  0.0010  0.4594  0.4017
16064TIP3    H169683   0.546   3.608   6.606  0.1124  0.6496  0.6382
16064TIP3    H269684   0.674   3.536   6.574 -1.6773 -1.1306 -2.7424
16065TIP3   OH269685   1.975   5.834   4.077  0.5729  0.1387 -0.0225
16065TIP3    H169686   2.061   5.802   4.052  0.0218 -0.3297 -1.3349
16065TIP3    H269687   1.928   5.757   4.108  0.0637  0.0998 -0.8877
16066TIP3   OH269688   4.953   5.654  13.867  0.5050 -0.0740 -0.0363
16066TIP3    H169689   4.869   5.665  13.912  1.7070  0.9488  2.0610
16066TIP3    H269690   4.994   5.580  13.912  0.4749 -0.9811 -1.4734
16067TIP3   OH269691   4.122   3.335   2.011  0.2849 -0.3522 -0.1737
16067TIP3    H169692   4.155   3.364   1.926 -1.4608  0.1797 -0.6995
16067TIP3    H269693   4.088   3.415   2.052 -1.0695 -0.9998 -0.0065
16068TIP3   OH269694   0.535   4.036   0.246  0.0814 -0.0888  0.0953
16068TIP3    H169695   0.626   4.055   0.226  0.6689 -1.6229  1.1812
16068TIP3    H269696   0.526   3.942   0.231 -2.4264  0.6965 -4.0740
16069TIP3   OH269697   3.474   1.413  12.599 -0.4487  0.3109  0.1988
16069TIP3    H169698   3.422   1.411  12.678 -2.5920  1.4968 -1.1301
16069TIP3    H269699   3.537   1.342  12.609 -2.1448 -0.9844  1.9631
16070TIP3   OH269700   3.538   4.895   5.536 -0.3683  0.2522  0.3047
16070TIP3    H169701   3.474   4.957   5.500  0.7397 -0.1277 -2.4605
16070TIP3    H269702   3.501   4.809   5.516 -0.7251  0.0125  1.9622
16071TIP3   OH269703   0.737   0.919   6.150  0.2771 -0.2787  0.3306
16071TIP3    H169704   0.772   0.836   6.185 -1.6911 -1.5545 -0.6222
16071TIP3    H269705   0.702   0.964   6.227 -3.2100 -2.6649  0.2553
16072TIP3   OH269706   4.782   3.572   3.277  0.2271  0.4655  0.1901
16072TIP3    H169707   4.713   3.534   3.331  0.6955  0.5650  0.8616
16072TIP3    H269708   4.807   3.503   3.216 -1.4769  0.8910 -1.0266
16073TIP3   OH269709   2.546   0.542   6.616  0.3050 -0.0255 -0.7014
16073TIP3    H169710   2.598   0.466   6.642 -0.6237 -0.2473  0.5573
16073TIP3    H269711   2.593   0.616   6.654  0.3945 -0.1059 -0.6539
16074TIP3   OH269712   0.308   4.676  15.458  0.3644  0.0722  0.9927
16074TIP3    H169713   0.364   4.752  15.474  2.8578 -1.5997  0.4419
16074TIP3    H269714   0.360   4.601  15.486 -1.9625 -1.4917  1.3243
16075TIP3   OH269715   3.042   5.760   0.715  0.1261  0.1449 -0.1638
16075TIP3    H169716   3.027   5.855   0.715  0.9654  0.2752 -0.0074
16075TIP3    H269717   3.127   5.749   0.673  1.8924 -0.2321  3.3472
16076TIP3   OH269718   2.481   3.566   5.953 -0.2760 -0.1254 -0.2628
16076TIP3    H169719   2.446   3.636   5.897 -0.7836  0.0936  0.3340
16076TIP3    H269720   2.564   3.601   5.984 -0.0694 -0.1788 -0.7436
16077TIP3   OH269721   2.827   6.346   1.392 -0.4148 -0.2226  0.1763
16077TIP3    H169722   2.751   6.342   1.334  0.8995 -0.3125 -1.5747
16077TIP3    H269723   2.899   6.310   1.340  0.9248  0.2259  1.6708
16078TIP3   OH269724   2.226   2.904  11.448  0.1220  0.6561 -0.3105
16078TIP3    H169725   2.216   2.989  11.491 -1.4085  0.9472 -1.2060
16078TIP3    H269726   2.143   2.859  11.464  0.6140 -0.3424 -0.5394
16079TIP3   OH269727   4.674   5.039   5.224  0.6709 -0.1826  0.3187
16079TIP3    H169728   4.591   5.084   5.239  0.4290 -0.3781 -0.4293
16079TIP3    H269729   4.737   5.087   5.278  0.2535  0.5428  0.1655
16080TIP3   OH269730   3.777   6.110  16.998 -0.1369  0.5749  0.0700
16080TIP3    H169731   3.814   6.189  17.037  2.1482 -1.5021  2.3254
16080TIP3    H269732   3.751   6.136  16.910  4.2747  2.8660 -0.6737
16081TIP3   OH269733   3.810   1.245   3.420  0.3035  0.3825 -0.1156
16081TIP3    H169734   3.823   1.340   3.421  1.8379  0.1639  2.7644
16081TIP3    H269735   3.892   1.209   3.386 -0.2870  0.0481 -1.2378
16082TIP3   OH269736   2.144   0.497   5.863 -0.4029  0.2821 -0.1857
16082TIP3    H169737   2.084   0.431   5.898 -1.2738  1.3200  0.2725
16082TIP3    H269738   2.212   0.505   5.931 -2.0752  2.2739  1.3031
16083TIP3   OH269739   3.322   5.899  12.463  0.0847  0.1013  0.3280
16083TIP3    H169740   3.298   5.873  12.552  0.1885 -0.9401  0.0557
16083TIP3    H269741   3.340   5.817  12.418  1.9830  0.7205 -0.1016
16084TIP3   OH269742   1.319   1.179  11.890 -0.8424  0.1409 -0.4798
16084TIP3    H169743   1.318   1.085  11.906  0.8286  0.3351  0.9830
16084TIP3    H269744   1.360   1.216  11.968  0.3099  1.9025 -1.8785
16085TIP3   OH269745   1.212   2.342  16.324  0.6765 -0.1883 -0.6610
16085TIP3    H169746   1.249   2.256  16.304  0.4825 -0.3612 -0.2822
16085TIP3    H269747   1.287   2.394  16.352  1.0415  0.2086 -2.2842
16086TIP3   OH269748   4.423   5.154   5.169  0.0530 -0.1014  0.0565
16086TIP3    H169749   4.357   5.131   5.104 -0.0218  1.2963 -0.3787
16086TIP3    H269750   4.383   5.130   5.253 -1.5248  1.8600 -0.1107
16087TIP3   OH269751   4.851   4.103   2.333  0.4729  0.3105 -0.0204
16087TIP3    H169752   4.823   4.098   2.424  0.5123  0.5694  0.0070
16087TIP3    H269753   4.772   4.128   2.285  0.3771 -0.1450 -0.0999
16088TIP3   OH269754   2.731   2.364  15.353 -0.7784  0.2199 -0.5487
16088TIP3    H169755   2.736   2.434  15.419 -1.1548 -0.1008 -0.1804
16088TIP3    H269756   2.662   2.393  15.293 -1.2951 -0.0938 -0.1006
16089TIP3   OH269757   4.438   0.438   0.858 -0.2426  0.3808  0.1387
16089TIP3    H169758   4.440   0.369   0.792  1.4546  0.6045 -0.0715
16089TIP3    H269759   4.372   0.500   0.827 -1.4209 -0.8889  0.0781
16090TIP3   OH269760   6.654   5.521   3.583  0.6302 -0.3778 -0.0531
16090TIP3    H169761   6.738   5.488   3.549  1.6190  0.4474  1.5136
16090TIP3    H269762   6.588   5.465   3.542  1.7873  0.2259 -2.8664
16091TIP3   OH269763   2.354   1.344   2.280 -0.3540  0.2682  0.1332
16091TIP3    H169764   2.396   1.262   2.307 -0.4156  0.5291  1.0233
16091TIP3    H269765   2.334   1.330   2.187 -0.6747 -0.8537  0.3558
16092TIP3   OH269766   1.016   3.234  12.363 -0.1447 -0.0533  0.1886
16092TIP3    H169767   1.041   3.194  12.280 -0.0184 -0.0578  0.2285
16092TIP3    H269768   0.970   3.314  12.339  1.9705  1.1742  0.1608
16093TIP3   OH269769   1.084   0.667  12.394  0.0374 -0.1794  0.5628
16093TIP3    H169770   1.174   0.671  12.363 -0.6681  1.4069 -1.4320
16093TIP3    H269771   1.063   0.574  12.396  1.0004 -0.4571 -1.1902
16094TIP3   OH269772   3.177   2.985  16.094  0.3648  0.0190  0.0804
16094TIP3    H169773   3.181   2.908  16.152  0.5070  1.6602  2.3078
16094TIP3    H269774   3.250   2.972  16.032  0.6872 -1.3864  0.7220
16095TIP3   OH269775   4.654   1.955   4.959 -0.0709 -0.0239  0.0719
16095TIP3    H169776   4.591   2.000   5.015  0.2415  0.0008  0.3992
16095TIP3    H269777   4.708   2.024   4.922  1.3872 -0.2331  1.7541
16096TIP3   OH269778   6.812   6.514   2.071  0.4812  0.2981 -0.2500
16096TIP3    H169779   6.794   6.571   2.146 -1.7838 -0.4617 -0.1800
16096TIP3    H269780   6.726   6.497   2.033  1.2572 -2.0271 -1.0248
16097TIP3   OH269781   1.472   3.491  15.462 -0.9924  0.2567  0.6793
16097TIP3    H169782   1.566   3.495  15.448 -1.1205  0.7752 -0.0570
16097TIP3    H269783   1.462   3.459  15.552 -0.0960  2.5560  1.6336
16098TIP3   OH269784   6.240   1.214   0.103 -0.1657  0.4893  0.3170
16098TIP3    H169785   6.149   1.243   0.110 -0.2551  0.0367  1.0982
16098TIP3    H269786   6.239   1.124   0.138  0.7519  0.8223  1.2204
16099TIP3   OH269787   6.715   0.862   4.915 -0.3614 -0.2009 -0.5787
16099TIP3    H169788   6.644   0.811   4.876 -0.1994  0.0442 -1.1969
16099TIP3    H269789   6.681   0.890   5.000 -0.4220 -1.3975 -0.2028
16100TIP3   OH269790   4.097   0.789   0.819  0.5837 -0.8072 -0.2008
16100TIP3    H169791   4.026   0.817   0.760  1.8473  1.1969 -0.8128
16100TIP3    H269792   4.054   0.772   0.902 -0.5978  0.5703 -0.5156
16101TIP3   OH269793   3.258   1.929   3.409  0.2958  0.1042  0.1749
16101TIP3    H169794   3.265   2.017   3.373  1.7922  0.7423  1.9327
16101TIP3    H269795   3.346   1.907   3.438 -0.2629 -1.5591  0.7153
16102TIP3   OH269796   0.121   4.816   1.837  0.4654  0.6869  0.3576
16102TIP3    H169797   0.087   4.810   1.926  1.0096  0.4072  0.5516
16102TIP3    H269798   0.154   4.728   1.818  0.0375  0.6514 -0.2503
16103TIP3   OH269799   1.397   1.040  13.006  0.3925  0.0087  0.0918
16103TIP3    H169800   1.470   0.979  12.994 -0.1514 -0.7241  0.5317
16103TIP3    H269801   1.376   1.034  13.099 -1.1981 -0.8688 -0.3164
16104TIP3   OH269802   4.672   3.871   2.311 -0.6194 -0.2844 -0.3228
16104TIP3    H169803   4.759   3.845   2.281 -0.0603 -0.2303  1.2379
16104TIP3    H269804   4.634   3.919   2.236  0.8653  0.1141 -0.8262
16105TIP3   OH269805   1.657   0.535   1.664  0.1361 -0.6255  0.7862
16105TIP3    H169806   1.638   0.454   1.712  0.1223 -1.2275 -0.2071
16105TIP3    H269807   1.729   0.575   1.711  0.6708 -1.6265  0.8335
16106TIP3   OH269808   5.102   0.759  14.631  0.3353 -0.1179  0.1715
16106TIP3    H169809   5.101   0.846  14.670  1.6866 -0.0638  0.0806
16106TIP3    H269810   5.160   0.708  14.687 -0.2108 -0.8885  0.0475
16107TIP3   OH269811   1.540   1.254   5.609  0.0591  0.2041  0.1528
16107TIP3    H169812   1.622   1.296   5.634 -1.0919  2.1845  0.7103
16107TIP3    H269813   1.510   1.304   5.533 -0.2564 -0.9892 -0.5226
16108TIP3   OH269814   6.094   5.807  14.454  0.1493 -0.8633 -0.0227
16108TIP3    H169815   6.048   5.763  14.525 -0.1141  0.1153  0.4186
16108TIP3    H269816   6.039   5.883  14.434  0.8000 -0.5223 -0.5146
16109TIP3   OH269817   3.315   0.550   2.919 -0.0642 -0.0697  0.8105
16109TIP3    H169818   3.358   0.466   2.937 -0.3615 -0.2538  0.6748
16109TIP3    H269819   3.232   0.526   2.879 -0.0074  0.3038  0.4669
16110TIP3   OH269820   0.191   2.794   0.593  0.0863  0.0849  0.2644
16110TIP3    H169821   0.134   2.718   0.579  0.1167 -0.1096  1.1732
16110TIP3    H269822   0.213   2.791   0.686 -0.6545  1.7096  0.5130
16111TIP3   OH269823   5.563   0.598  15.324  0.2856  0.2501 -0.0785
16111TIP3    H169824   5.612   0.520  15.299  0.4470  0.6325 -0.9974
16111TIP3    H269825   5.538   0.583  15.415  0.7089 -0.6646 -0.1080
16112TIP3   OH269826   4.526   2.180  11.556 -0.4521  0.2616 -0.4792
16112TIP3    H169827   4.432   2.177  11.540 -0.4592  0.0780 -0.4075
16112TIP3    H269828   4.536   2.137  11.641 -0.2023 -0.5662 -0.9194
16113TIP3   OH269829   1.040   6.698   3.335  0.4074  0.1222 -0.0345
16113TIP3    H169830   1.127   6.677   3.369  0.0954  0.5504  1.0667
16113TIP3    H269831   1.036   6.794   3.338 -0.0487  0.1101 -0.2219
16114TIP3   OH269832   1.962   6.036  12.035  0.7772 -0.0139 -0.3073
16114TIP3    H169833   2.049   6.000  12.021  1.2042  0.1079  1.9165
16114TIP3    H269834   1.926   5.985  12.107  0.2133  1.9881  0.8589
16115TIP3   OH269835   5.023   0.782   0.070 -0.2314  0.1156  0.3480
16115TIP3    H169836   5.020   0.708   0.130  0.5795 -0.8292 -0.7438
16115TIP3    H269837   4.938   0.780   0.026  0.0829 -0.6608 -0.2378
16116TIP3   OH269838   1.665   3.518   0.194 -0.4826 -0.3806  0.0061
16116TIP3    H169839   1.676   3.468   0.274 -1.5480 -0.7501 -0.0689
16116TIP3    H269840   1.596   3.582   0.215  2.8125  3.0061  1.0210
16117TIP3   OH269841   2.422   5.180  15.681  0.3157 -0.4967  0.1782
16117TIP3    H169842   2.451   5.159  15.592  0.1006 -2.0072  0.4576
16117TIP3    H269843   2.499   5.166  15.736  1.6551  4.3023 -0.2190
16118TIP3   OH269844   2.204   3.166   4.382 -0.2423 -0.2055  0.0363
16118TIP3    H169845   2.168   3.251   4.353 -0.2964  0.4437  1.9607
16118TIP3    H269846   2.267   3.188   4.450 -1.1399 -1.7912  1.4153
16119TIP3   OH269847   1.922   5.344   0.872  0.3777  0.5934 -0.5612
16119TIP3    H169848   1.978   5.421   0.863 -0.9525  1.7439  0.7474
16119TIP3    H269849   1.915   5.331   0.966 -2.0882  0.8982 -0.6633
16120TIP3   OH269850   3.837   4.368   4.356  0.1428 -0.3451  0.2053
16120TIP3    H169851   3.833   4.424   4.279  1.3434  1.0543  1.1363
16120TIP3    H269852   3.754   4.383   4.401  0.4012  0.5643  0.3743
16121TIP3   OH269853   2.857   3.423  11.832  0.6353 -0.4432  0.8090
16121TIP3    H169854   2.888   3.355  11.772  1.0112 -0.2182  0.7451
16121TIP3    H269855   2.831   3.376  11.911 -1.2152 -0.8984 -0.0520
16122TIP3   OH269856   3.811   0.266  14.449 -0.1657 -0.6183  0.0070
16122TIP3    H169857   3.885   0.236  14.396 -0.8016  0.1020 -1.3013
16122TIP3    H269858   3.831   0.235  14.537  1.0024 -1.6571 -0.6084
16123TIP3   OH269859   4.843   6.215   5.116 -0.5457 -0.1248  0.2887
16123TIP3    H169860   4.750   6.195   5.123 -0.3501 -1.6316 -1.3466
16123TIP3    H269861   4.884   6.132   5.092  1.2076  0.5754  0.7826
16124TIP3   OH269862   4.045   3.173  14.211  0.2971  0.1337  0.0379
16124TIP3    H169863   4.030   3.254  14.260 -0.0597 -1.2161  2.2134
16124TIP3    H269864   4.060   3.106  14.278 -0.5141 -1.8296 -1.6748
16125TIP3   OH269865   4.433   3.753   1.327  0.7982 -0.0190  0.5126
16125TIP3    H169866   4.512   3.777   1.279  1.0047  1.3434  1.4942
16125TIP3    H269867   4.368   3.819   1.302  0.7568  0.4089  1.7021
16126TIP3   OH269868   4.912   6.790  12.315  0.0933  0.4459  0.0880
16126TIP3    H169869   4.948   6.751  12.395  1.0487 -1.5964 -1.3155
16126TIP3    H269870   4.988   6.803  12.258 -0.7375  0.7217 -0.9765
16127TIP3   OH269871   0.956   5.445   4.369  0.6244  0.1912 -0.3170
16127TIP3    H169872   1.011   5.406   4.301  0.7020 -0.4531  0.1161
16127TIP3    H269873   0.903   5.511   4.322  0.0791 -0.8223 -1.1417
16128TIP3   OH269874   4.281   5.531  14.904  0.8901 -0.4461  0.6369
16128TIP3    H169875   4.263   5.624  14.895 -1.7813 -0.9743 -0.1639
16128TIP3    H269876   4.258   5.511  14.995 -0.5125 -0.6771  0.2488
16129TIP3   OH269877   0.329   2.407   6.249  0.2833  0.5302 -0.2748
16129TIP3    H169878   0.318   2.354   6.169  3.5018 -1.0089  0.2202
16129TIP3    H269879   0.322   2.343   6.320  1.2839  1.2681  0.4843
16130TIP3   OH269880   5.177   3.341   5.111  0.6112 -0.1390 -0.1429
16130TIP3    H169881   5.188   3.350   5.206  0.6935 -0.3160 -0.1343
16130TIP3    H269882   5.176   3.431   5.078 -0.6707 -0.0278  0.1642
16131TIP3   OH269883   2.187   2.809   3.340  0.2627  0.2709 -0.8760
16131TIP3    H169884   2.149   2.867   3.275  1.7505  0.9492 -1.1656
16131TIP3    H269885   2.199   2.863   3.418  1.1998  0.2413 -0.9887
16132TIP3   OH269886   3.417   6.246   6.161 -0.5099  0.6685  0.3408
16132TIP3    H169887   3.328   6.236   6.129 -0.3413 -1.3006  0.3999
16132TIP3    H269888   3.412   6.315   6.227 -2.0138  0.4293  0.4921
16133TIP3   OH269889   6.792   4.167  12.486  0.0726 -0.0107  0.3560
16133TIP3    H169890   6.762   4.083  12.520 -1.8388  1.3176  2.0941
16133TIP3    H269891   6.720   4.228  12.505  0.2358  1.4544 -3.3211
16134TIP3   OH269892   1.493   2.941   5.997 -0.3357  0.4323 -0.0234
16134TIP3    H169893   1.400   2.951   6.020 -0.1715 -1.1988  1.4943
16134TIP3    H269894   1.537   2.933   6.082  1.2123  1.3426 -0.7365
16135TIP3   OH269895   4.891   4.311  11.579  0.2268 -0.0090  0.6337
16135TIP3    H169896   4.898   4.220  11.552 -0.4680 -0.2142  1.1481
16135TIP3    H269897   4.848   4.308  11.665 -1.5554  0.9269 -0.2185
16136TIP3   OH269898   1.935   0.010  12.528  0.2442 -0.5599  0.5507
16136TIP3    H169899   1.922  -0.069  12.580  0.3348  0.3008  1.9138
16136TIP3    H269900   2.014   0.050  12.565 -0.7754  1.0596  1.0646
16137TIP3   OH269901   1.181   0.908  11.912  0.7263 -0.5646 -0.1561
16137TIP3    H169902   1.097   0.893  11.955  1.1437  1.1600  1.3298
16137TIP3    H269903   1.163   0.896  11.819 -0.6551 -2.3639  0.3181
16138TIP3   OH269904   5.223   5.121  11.753 -0.2989 -0.3069 -0.3516
16138TIP3    H169905   5.272   5.094  11.675  1.2819  0.1545  0.4896
16138TIP3    H269906   5.148   5.061  11.755  0.5469 -1.4093 -1.2754
16139TIP3   OH269907   1.301   3.739  11.102  0.1654  0.6493 -0.8574
16139TIP3    H169908   1.248   3.783  11.036 -2.5683  2.7296  2.5169
16139TIP3    H269909   1.241   3.675  11.141  0.3865  2.2308  2.2397
16140TIP3   OH269910   2.331   3.738   1.151  0.0223 -0.2422  0.2512
16140TIP3    H169911   2.240   3.721   1.175 -0.1093  0.8358  0.5671
16140TIP3    H269912   2.330   3.747   1.056  0.0197 -1.4606  0.1263
16141TIP3   OH269913   1.398   0.099   1.135 -0.6177 -0.0356 -0.1757
16141TIP3    H169914   1.441   0.148   1.205  0.8814  0.1312 -1.1908
16141TIP3    H269915   1.323   0.154   1.111 -1.5500 -0.4158  1.7330
16142TIP3   OH269916   5.135   3.729   0.446  0.2548  1.1070 -0.0819
16142TIP3    H169917   5.142   3.781   0.526  2.6388 -0.1477  0.5729
16142TIP3    H269918   5.076   3.657   0.469  0.4272  1.1051  0.3599
16143TIP3   OH269919   3.999   0.055   5.928 -0.4064 -0.1381  0.3822
16143TIP3    H169920   3.908   0.045   5.956  0.1148  0.2796  2.2786
16143TIP3    H269921   4.030  -0.034   5.914 -0.8036 -0.3363  0.7538
16144TIP3   OH269922   1.338   6.316  13.641  0.2463 -0.1286 -0.3855
16144TIP3    H169923   1.395   6.390  13.659  2.0334 -1.7146  0.6773
16144TIP3    H269924   1.381   6.241  13.683 -1.3606 -1.8218 -1.6384
16145TIP3   OH269925   2.888   2.092   5.707 -0.0943 -0.5921 -0.2834
16145TIP3    H169926   2.795   2.112   5.699 -0.0690 -0.8590 -1.3872
16145TIP3    H269927   2.904   2.025   5.641  1.1137  0.3047 -0.9229
16146TIP3   OH269928   3.164   2.628   6.247  0.2602 -0.5022 -0.1539
16146TIP3    H169929   3.089   2.685   6.233 -0.7496 -2.0256 -1.2026
16146TIP3    H269930   3.235   2.669   6.200 -0.1617  0.4658  0.0487
16147TIP3   OH269931   5.939   1.874   0.295  0.2143 -1.0290 -0.1129
16147TIP3    H169932   6.008   1.833   0.244 -1.0750 -0.1775 -2.6211
16147TIP3    H269933   5.867   1.887   0.233 -0.9671  1.1446  1.6270
16148TIP3   OH269934   2.658   1.473  12.725  0.3235 -0.2160  0.1504
16148TIP3    H169935   2.722   1.426  12.671 -0.9081  2.7130 -4.2041
16148TIP3    H269936   2.706   1.550  12.756 -0.1418  0.2458 -0.2775
16149TIP3   OH269937   4.550   1.312   1.252 -0.1496  0.4395 -0.2624
16149TIP3    H169938   4.628   1.321   1.307 -0.1335  0.7098 -0.3272
16149TIP3    H269939   4.508   1.398   1.256 -0.3229  0.3614 -0.4094
16150TIP3   OH269940   4.410   6.389  15.230 -0.3176  0.2963  0.8796
16150TIP3    H169941   4.403   6.296  15.252  0.2127 -0.3817 -1.5929
16150TIP3    H269942   4.504   6.403  15.216 -0.6513  0.4505 -1.5593
16151TIP3   OH269943   2.750   3.971   3.083 -0.0026 -0.3661  0.2617
16151TIP3    H169944   2.831   4.014   3.110  0.1205 -1.7507  2.1714
16151TIP3    H269945   2.771   3.878   3.084 -0.7318 -0.5857 -2.2750
16152TIP3   OH269946   2.011   1.681   5.365 -0.3911  0.1226 -0.2151
16152TIP3    H169947   2.027   1.720   5.279 -0.5018  1.6182  0.4280
16152TIP3    H269948   2.013   1.587   5.349  2.6490  0.2964 -1.3224
16153TIP3   OH269949   3.872   0.256  17.109 -0.9442  0.2613 -0.0001
16153TIP3    H169950   3.951   0.247  17.161 -0.8094  0.4503 -0.1703
16153TIP3    H269951   3.806   0.289  17.170 -0.8417  0.2815  0.1015
16154TIP3   OH269952   2.889   6.538   0.238  0.2147  0.4344  0.5022
16154TIP3    H169953   2.865   6.629   0.225 -0.0177  0.4367  0.9479
16154TIP3    H269954   2.918   6.508   0.152  1.0334  1.1442  0.5327
16155TIP3   OH269955   0.317   1.772   0.428 -0.0966  0.4214 -0.2648
16155TIP3    H169956   0.241   1.772   0.369 -0.0936 -0.9130 -0.2827
16155TIP3    H269957   0.344   1.680   0.432  2.1280  1.0137 -1.0506
16156TIP3   OH269958   6.690   2.663  13.431 -0.1866 -0.8972 -0.2732
16156TIP3    H169959   6.673   2.683  13.339  1.6358 -0.1037 -0.4515
16156TIP3    H269960   6.724   2.745  13.468 -0.4881 -1.3329  1.0100
16157TIP3   OH269961   3.488   2.118   2.398  0.3247 -0.0359  0.1739
16157TIP3    H169962   3.501   2.025   2.377 -2.4940 -0.8488  1.6403
16157TIP3    H269963   3.435   2.152   2.325  0.1127  0.0268  0.3553
16158TIP3   OH269964   3.483   0.952  13.607  0.3222 -0.3046 -0.1255
16158TIP3    H169965   3.452   0.877  13.658 -0.2968  1.3155  1.9270
16158TIP3    H269966   3.427   1.024  13.633  2.3218  1.4015 -0.4134
16159TIP3   OH269967   4.677   0.503  14.556  0.0193 -0.4801  0.2682
16159TIP3    H169968   4.753   0.545  14.515  1.0365 -1.0212  1.5561
16159TIP3    H269969   4.603   0.560  14.535  0.6586 -0.2931 -1.5643
16160TIP3   OH269970   2.159   3.337   1.178 -0.7586  0.5439 -0.5448
16160TIP3    H169971   2.164   3.408   1.113 -1.5401  1.8443  0.7880
16160TIP3    H269972   2.221   3.272   1.146  0.6881  2.2399 -1.2932
16161TIP3   OH269973   5.016   1.424   4.070 -0.0368  0.3465  0.1950
16161TIP3    H169974   4.997   1.351   4.012  0.1189  1.3619 -1.1746
16161TIP3    H269975   5.110   1.420   4.084 -0.0645  0.1425  0.3267
16162TIP3   OH269976   1.578   1.008   0.386  0.1998  0.5214  0.0510
16162TIP3    H169977   1.484   1.020   0.393  0.2811  1.7500 -0.8969
16162TIP3    H269978   1.594   0.923   0.428 -1.3961 -0.0009 -0.3578
16163TIP3   OH269979   6.773   5.092   1.979  0.0443 -0.1311 -0.2931
16163TIP3    H169980   6.848   5.041   1.948  0.8932  0.8158  0.1628
16163TIP3    H269981   6.812   5.171   2.016 -1.2010  0.4904 -0.2864
16164TIP3   OH269982   4.431   2.359  12.213 -0.6452 -0.0493 -0.0684
16164TIP3    H169983   4.481   2.409  12.278 -0.9397  1.0138 -0.6417
16164TIP3    H269984   4.341   2.389  12.224 -0.7778 -0.2335 -0.6216
16165TIP3   OH269985   4.608   6.456  12.591  0.2627 -0.1146 -0.6571
16165TIP3    H169986   4.660   6.401  12.650  0.5939  0.2725 -0.5863
16165TIP3    H269987   4.519   6.451  12.626 -0.1617 -2.4205 -1.9679
16166TIP3   OH269988   2.678   6.035  13.595 -0.4171 -0.6210  0.2663
16166TIP3    H169989   2.627   6.047  13.675 -0.4139 -1.9529  0.4758
16166TIP3    H269990   2.756   5.988  13.623  0.2008  0.0498 -0.3106
16167TIP3   OH269991   5.178   3.368   5.528  0.7366  0.2393 -1.0422
16167TIP3    H169992   5.194   3.318   5.608  2.6515  0.4297 -1.2757
16167TIP3    H269993   5.200   3.458   5.552  0.7571  0.3850 -1.6142
16168TIP3   OH269994   6.136   6.549  15.020 -0.0442 -0.2740 -0.1977
16168TIP3    H169995   6.090   6.543  14.936 -1.4172  2.8591  0.2253
16168TIP3    H269996   6.223   6.581  14.998 -0.3073  0.2579 -0.4876
16169TIP3   OH269997   2.558   4.270   4.881  0.2122  0.1981  0.3170
16169TIP3    H169998   2.528   4.208   4.814  0.5523 -0.7774  1.0518
16169TIP3    H269999   2.650   4.247   4.896 -0.0504 -0.0731  1.6260
16170TIP3   OH270000   2.548   4.008   1.344 -0.2909  0.3424 -0.1607
16170TIP3    H170001   2.487   3.943   1.378 -0.0160 -1.5249 -3.0629
16170TIP3    H270002   2.571   3.976   1.257  5.0518  0.7997  0.8958
16171TIP3   OH270003   3.748   1.146   4.726 -0.1391 -0.0943  0.3051
16171TIP3    H170004   3.747   1.060   4.684  3.6611  0.1827 -0.5636
16171TIP3    H270005   3.768   1.128   4.818  0.3438 -0.2045  0.1836
16172TIP3   OH270006   5.858   4.214   5.492  0.0094 -0.8104 -0.0432
16172TIP3    H170007   5.814   4.290   5.529  0.7454 -1.3847  2.0738
16172TIP3    H270008   5.789   4.149   5.481  0.3461 -1.8879  3.7469
16173TIP3   OH270009   1.635   4.450  16.948  0.4858  0.6708  0.3868
16173TIP3    H170010   1.728   4.428  16.954  0.5858  0.9569 -0.1302
16173TIP3    H270011   1.633   4.542  16.921  0.0475 -0.1369 -2.4587
16174TIP3   OH270012   4.416   2.152  15.910 -0.3967 -0.1465  0.7812
16174TIP3    H170013   4.430   2.230  15.857  2.6799 -0.2701  1.3140
16174TIP3    H270014   4.383   2.086  15.848 -0.7439  0.8704 -0.1321
16175TIP3   OH270015   3.408   4.442   0.434  0.8497 -0.5555  0.5106
16175TIP3    H170016   3.409   4.350   0.463 -2.6447 -1.3760 -1.7179
16175TIP3    H270017   3.321   4.473   0.458  0.4713  0.8764 -2.5683
16176TIP3   OH270018   2.579   1.204   2.395 -0.5048  0.4029  0.1369
16176TIP3    H170019   2.651   1.141   2.385 -1.6278 -1.1533  1.6302
16176TIP3    H270020   2.569   1.214   2.490 -2.4742  0.3786 -0.0601
16177TIP3   OH270021   3.643   2.731   5.851  0.2839 -0.0941 -0.2688
16177TIP3    H170022   3.649   2.821   5.882 -0.0593 -0.2406  0.2304
16177TIP3    H270023   3.731   2.710   5.820  0.0199  0.8914 -1.7336
16178TIP3   OH270024   0.173   0.401  14.938  0.2507 -0.4832  0.2053
16178TIP3    H170025   0.158   0.474  14.879 -0.3250 -1.5875 -1.0367
16178TIP3    H270026   0.268   0.397  14.948  0.5026 -1.5721 -2.3226
16179TIP3   OH270027   0.710   2.479   0.279  0.3243 -0.1170 -0.4144
16179TIP3    H170028   0.774   2.500   0.346 -0.8640 -0.7641  0.9644
16179TIP3    H270029   0.675   2.393   0.304 -0.8172  0.0507 -1.3251
16180TIP3   OH270030   1.863   3.200   4.138 -0.4669  0.4010 -0.8024
16180TIP3    H170031   1.787   3.193   4.196 -0.7963  0.1896 -1.2514
16180TIP3    H270032   1.910   3.118   4.150 -0.5759  0.3252 -0.8882
16181TIP3   OH270033   2.504   1.243  11.163  0.3595 -0.1574 -0.3789
16181TIP3    H170034   2.544   1.234  11.076  0.0202 -0.6274 -0.4853
16181TIP3    H270035   2.533   1.329  11.194  1.1798 -0.3563 -0.5983
16182TIP3   OH270036   5.403   4.260  13.092  0.1646  0.0544  0.2859
16182TIP3    H170037   5.325   4.234  13.043  0.6027 -0.1727 -0.2860
16182TIP3    H270038   5.476   4.219  13.046  0.8555  2.0451 -0.4682
16183TIP3   OH270039   4.428   6.374   3.958  0.0162 -0.4168  0.3017
16183TIP3    H170040   4.503   6.331   3.917 -0.1863 -0.8251  0.3588
16183TIP3    H270041   4.424   6.460   3.915 -0.4203 -0.9780 -0.8009
16184TIP3   OH270042   1.036   3.255  12.649 -0.2350 -0.0744  0.1419
16184TIP3    H170043   1.030   3.229  12.557  2.0625 -2.4346  0.5806
16184TIP3    H270044   1.129   3.275  12.662 -0.5110  0.1469  1.9724
16185TIP3   OH270045   4.376   2.930  14.202  0.5492 -0.2993 -0.3829
16185TIP3    H170046   4.339   3.004  14.249  0.6264  0.0563 -0.8752
16185TIP3    H270047   4.465   2.958  14.180  0.1579 -0.0236 -1.6867
16186TIP3   OH270048   6.330   3.598  13.009 -0.0516 -0.4681 -0.7465
16186TIP3    H170049   6.317   3.656  12.935  1.2966 -0.1013 -0.7106
16186TIP3    H270050   6.302   3.512  12.978  0.0402 -0.2214 -1.5204
16187TIP3   OH270051   2.900   3.232  15.720 -0.1377  0.8129 -0.3383
16187TIP3    H170052   2.820   3.228  15.668 -0.4534  0.1314  0.2088
16187TIP3    H270053   2.871   3.252  15.808 -0.0645 -3.2616  0.7055
16188TIP3   OH270054   4.382   4.629  15.032  0.5755 -0.0643  0.5056
16188TIP3    H170055   4.336   4.546  15.025 -1.7926  1.2425 -0.0858
16188TIP3    H270056   4.369   4.657  15.123 -1.2246  1.0619 -0.0689
16189TIP3   OH270057   6.356   1.805   6.154  0.3823 -0.0146 -0.1576
16189TIP3    H170058   6.366   1.760   6.070 -0.4068 -2.4323  0.9703
16189TIP3    H270059   6.262   1.821   6.162  0.3964 -0.2147  0.4531
16190TIP3   OH270060   5.395   2.699   2.501 -0.8122 -0.1945  0.0168
16190TIP3    H170061   5.469   2.727   2.556 -1.1640  1.1400 -0.1592
16190TIP3    H270062   5.434   2.684   2.415 -0.3709 -1.6552  0.4663
16191TIP3   OH270063   3.428   5.258   3.767  0.1874 -0.5135 -0.2117
16191TIP3    H170064   3.490   5.297   3.829 -1.3068  0.1121  0.9266
16191TIP3    H270065   3.482   5.204   3.710  1.7530 -0.1656  0.9026
16192TIP3   OH270066   5.503   3.859   5.653 -0.1149 -0.0913 -0.0808
16192TIP3    H170067   5.542   3.838   5.569  1.1367  1.1301  0.1759
16192TIP3    H270068   5.535   3.790   5.712  0.3207 -0.0192 -0.2343
16193TIP3   OH270069   1.440   2.393  15.628  0.2786 -0.5704  0.1344
16193TIP3    H170070   1.425   2.488  15.624  0.1723 -0.4820  2.2835
16193TIP3    H270071   1.497   2.375  15.553 -0.2468  1.0814 -0.6949
16194TIP3   OH270072   4.462   2.039   6.329 -0.5637 -0.5824  0.6823
16194TIP3    H170073   4.430   1.957   6.293  1.1296 -0.2640 -1.7033
16194TIP3    H270074   4.399   2.105   6.298 -1.0143 -0.7521  1.2255
16195TIP3   OH270075   6.123   5.624   0.992 -0.2694 -0.1494 -0.4606
16195TIP3    H170076   6.053   5.627   1.056  0.3083  0.5195  0.1519
16195TIP3    H270077   6.136   5.531   0.974 -2.0384 -0.2193 -1.3946
16196TIP3   OH270078   4.886   1.009   4.516  0.4301  0.2981  0.0207
16196TIP3    H170079   4.981   1.006   4.511  0.3899  0.6082 -1.0901
16196TIP3    H270080   4.856   0.947   4.449 -0.1517 -0.2680  0.7859
16197TIP3   OH270081   5.055   2.142   3.615  0.0085 -0.1140  0.1560
16197TIP3    H170082   4.964   2.158   3.640 -0.2503 -0.3585 -0.6174
16197TIP3    H270083   5.080   2.220   3.565 -0.6829 -1.2748 -2.0710
16198TIP3   OH270084   1.653   0.033  12.728 -0.1716  0.0234  0.0620
16198TIP3    H170085   1.717  -0.035  12.704  0.8361 -0.2354  3.2514
16198TIP3    H270086   1.666   0.102  12.662  1.2233 -1.3694 -1.1750
16199TIP3   OH270087   5.198   0.303  16.439 -0.5860 -0.1496 -0.4669
16199TIP3    H170088   5.156   0.227  16.399 -1.7187  0.4599 -0.4669
16199TIP3    H270089   5.148   0.378  16.407  0.3564  0.5746 -0.2597
16200TIP3   OH270090   3.588   4.907   4.520 -0.4561  0.3269  0.2307
16200TIP3    H170091   3.527   4.837   4.542 -0.5373  0.1188 -0.6334
16200TIP3    H270092   3.533   4.975   4.480 -0.0915  0.0226 -0.8025
16201TIP3   OH270093   4.076   1.567  14.146 -0.1099 -0.1763  0.1708
16201TIP3    H170094   4.092   1.510  14.070  2.2733 -2.3574  2.2165
16201TIP3    H270095   4.008   1.521  14.196  1.1754 -0.7965  1.3700
16202TIP3   OH270096   3.838   1.221  15.327 -0.2475  0.6145  0.1548
16202TIP3    H170097   3.798   1.170  15.398 -0.0020 -0.2786 -0.3316
16202TIP3    H270098   3.893   1.286  15.371  1.9028 -1.5452  0.7770
16203TIP3   OH270099   1.603   2.382  11.208 -0.1035  0.3251  0.1386
16203TIP3    H170100   1.677   2.368  11.148 -0.4842  2.8412 -0.9387
16203TIP3    H270101   1.641   2.368  11.295  1.5373  1.1393 -0.4334
16204TIP3   OH270102   4.514   5.467   4.730  0.6000 -0.2628  0.0123
16204TIP3    H170103   4.540   5.530   4.796  0.5107  0.1260 -0.3183
16204TIP3    H270104   4.504   5.385   4.777 -0.9247  0.3262  0.7615
16205TIP3   OH270105   0.764   4.896   6.746  0.5542 -0.5092  0.0652
16205TIP3    H170106   0.828   4.939   6.804  3.8958 -2.0704 -2.2990
16205TIP3    H270107   0.730   4.824   6.798  1.1009  0.0454  1.2175
16206TIP3   OH270108   1.548   6.036  11.438  0.2887  0.1729  0.3783
16206TIP3    H170109   1.524   5.971  11.372  1.6990  0.1313 -0.1058
16206TIP3    H270110   1.642   6.028  11.447  0.0383 -0.2633  2.8823
16207TIP3   OH270111   6.324   5.583  15.967 -0.3322 -0.2625  0.3412
16207TIP3    H170112   6.311   5.553  15.877 -0.1100 -1.3128  0.6510
16207TIP3    H270113   6.341   5.677  15.959  1.9805 -0.7478 -0.9262
16208TIP3   OH270114   5.714   5.199   3.826  0.0408  0.0008 -0.2564
16208TIP3    H170115   5.722   5.107   3.851 -0.1368 -0.2571 -1.1431
16208TIP3    H270116   5.773   5.209   3.752 -0.0805  0.5650 -0.2786
16209TIP3   OH270117   4.260   1.114  15.400 -0.0352 -0.0745  0.2764
16209TIP3    H170118   4.336   1.069  15.437  1.5107  2.3848  0.2454
16209TIP3    H270119   4.239   1.064  15.321  1.7993 -0.5800  0.0766
16210TIP3   OH270120   2.757   0.378  15.223  0.3048  0.6448 -0.1842
16210TIP3    H170121   2.843   0.357  15.186  2.1004  2.8361  2.5413
16210TIP3    H270122   2.712   0.294  15.229  3.4706 -1.0239  1.2889
16211TIP3   OH270123   3.236   2.918   4.761 -0.2373  0.3166  0.2351
16211TIP3    H170124   3.323   2.957   4.751 -0.2896  0.2529 -0.5401
16211TIP3    H270125   3.195   2.967   4.831 -0.0756  1.2510 -0.3172
16212TIP3   OH270126   4.185   2.819  17.122 -0.0045 -0.2910  0.0273
16212TIP3    H170127   4.196   2.725  17.139  2.3417  0.0086  0.4008
16212TIP3    H270128   4.220   2.861  17.201  0.9227  0.9296 -1.0173
16213TIP3   OH270129   3.027   1.524   1.595  0.1573 -0.4340 -0.2327
16213TIP3    H170130   3.085   1.449   1.584  1.0759  0.5135 -2.0828
16213TIP3    H270131   3.080   1.590   1.639 -0.4829 -0.6686  0.9032
16214TIP3   OH270132   6.730   3.400   3.290 -0.2550 -0.8326 -0.3179
16214TIP3    H170133   6.668   3.340   3.249 -0.8765  1.1503 -2.4059
16214TIP3    H270134   6.693   3.487   3.273  1.6364  0.2296  0.8902
16215TIP3   OH270135   2.417   0.205  13.665  0.1530 -0.1690 -0.0303
16215TIP3    H170136   2.471   0.284  13.663  0.6036 -0.4677  0.1646
16215TIP3    H270137   2.478   0.134  13.643  0.3027 -0.7536  2.1205
16216TIP3   OH270138   5.185   2.249  11.403 -0.3301 -0.1521  0.1209
16216TIP3    H170139   5.234   2.263  11.322 -1.5249  0.7368 -0.4837
16216TIP3    H270140   5.093   2.247  11.375 -0.7649  0.2409  1.4659
16217TIP3   OH270141   4.235   6.703   3.140  0.2718  0.2864  0.0246
16217TIP3    H170142   4.306   6.671   3.195 -1.3096 -0.3030  1.7922
16217TIP3    H270143   4.183   6.625   3.120  1.1806  0.3481 -2.9583
16218TIP3   OH270144   6.736   4.204  11.084  0.3081 -0.0310  0.4747
16218TIP3    H170145   6.682   4.281  11.071  1.0877  0.3459 -0.6445
16218TIP3    H270146   6.755   4.173  10.995  1.2316 -0.6375  0.8721
16219TIP3   OH270147   1.580   5.409  16.774 -0.4521 -0.2391 -0.1272
16219TIP3    H170148   1.564   5.502  16.786 -0.5966 -0.2756 -0.0313
16219TIP3    H270149   1.507   5.378  16.720 -0.5314 -0.3454  0.0429
16220TIP3   OH270150   2.486   2.460  16.932  0.5378 -0.5173 -0.6667
16220TIP3    H170151   2.575   2.427  16.948 -0.0494 -2.2894 -1.0289
16220TIP3    H270152   2.429   2.403  16.983 -0.6344 -1.1262 -2.6121
16221TIP3   OH270153   3.669   1.725  17.279 -0.2943 -0.0062 -0.7283
16221TIP3    H170154   3.641   1.650  17.227  0.2319 -0.0207 -0.9983
16221TIP3    H270155   3.721   1.778  17.219 -2.1919  1.5354 -1.0792
16222TIP3   OH270156   5.462   2.495   5.533  0.0248 -0.7264  0.3419
16222TIP3    H170157   5.434   2.445   5.457 -1.2454 -1.2542  1.1307
16222TIP3    H270158   5.549   2.528   5.510 -1.4917  1.5173 -2.4317
16223TIP3   OH270159   6.667   3.829   3.374  0.1362  0.7816  0.1474
16223TIP3    H170160   6.739   3.778   3.410 -1.8759 -1.0531  1.7599
16223TIP3    H270161   6.685   3.919   3.401  0.5855 -0.0127  2.6153
16224TIP3   OH270162   6.491   2.997  13.740 -0.4997 -0.3445  0.4382
16224TIP3    H170163   6.524   3.085  13.718  2.2546 -1.5640 -0.4903
16224TIP3    H270164   6.469   2.959  13.655 -3.5105  0.0692  0.9677
16225TIP3   OH270165   1.877   3.160   3.436  0.3960 -0.6285 -0.7268
16225TIP3    H170166   1.925   3.170   3.518  2.5331 -3.1872 -1.5936
16225TIP3    H270167   1.789   3.134   3.462  1.0074 -1.2402  0.7778
16226TIP3   OH270168   4.922   2.191  14.855 -0.0097  0.2910  0.3599
16226TIP3    H170169   5.017   2.201  14.846 -0.0683  2.1150  1.4389
16226TIP3    H270170   4.885   2.261  14.802 -0.7554 -0.3557  0.0186
16227TIP3   OH270171   2.264   2.504  16.769  0.2982 -0.1535 -0.2791
16227TIP3    H170172   2.348   2.493  16.813  0.5464  0.8075 -0.5215
16227TIP3    H270173   2.230   2.415  16.760  1.2492 -0.5321 -0.1130
16228TIP3   OH270174   4.399   1.175   4.962  0.0658 -0.2229 -0.2131
16228TIP3    H170175   4.324   1.132   5.003  0.6639 -0.7725  0.3159
16228TIP3    H270176   4.387   1.268   4.981  0.4092 -0.4798  1.3304
16229TIP3   OH270177   0.695   1.858   2.664  0.2557 -0.0850  0.3183
16229TIP3    H170178   0.761   1.789   2.666  1.0158  0.6442  0.7382
16229TIP3    H270179   0.742   1.937   2.688 -0.2579  0.8873 -1.8067
16230TIP3   OH270180   1.352   2.132   2.228  0.0562  0.1920  0.4394
16230TIP3    H170181   1.316   2.051   2.265 -0.2512  0.9150  1.7486
16230TIP3    H270182   1.446   2.127   2.248 -0.1357  0.6615  1.5021
16231TIP3   OH270183   1.380   0.793  12.583  0.4911  0.0411  0.1587
16231TIP3    H170184   1.475   0.786  12.586  0.4915  0.0300  0.1249
16231TIP3    H270185   1.355   0.741  12.506  0.5358  0.8098 -0.3774
16232TIP3   OH270186   5.541   1.660  15.129 -0.2001 -0.4518  0.3578
16232TIP3    H170187   5.481   1.728  15.097  0.3696 -0.6858 -1.2509
16232TIP3    H270188   5.554   1.682  15.221 -0.1068  1.5942 -0.1099
16233TIP3   OH270189   3.092   2.561   1.536 -0.3123  0.3051  0.0043
16233TIP3    H170190   3.015   2.525   1.579  0.3161  0.2587  1.0885
16233TIP3    H270191   3.086   2.655   1.551 -0.1460  0.3005  0.0960
16234TIP3   OH270192   2.471   4.680   3.313  0.0819 -0.0805 -0.0723
16234TIP3    H170193   2.561   4.663   3.284 -0.2787 -0.6127 -0.8989
16234TIP3    H270194   2.480   4.745   3.383  1.0425  0.6195 -0.8211
16235TIP3   OH270195   3.580   3.428   6.937 -0.2624  0.2922  0.0173
16235TIP3    H170196   3.530   3.394   6.862 -0.4255  1.2441 -0.3173
16235TIP3    H270197   3.536   3.392   7.013 -1.2809  0.8541 -0.2881
16236TIP3   OH270198   3.631   3.245   0.615  0.1524 -0.0711 -0.5417
16236TIP3    H170199   3.707   3.189   0.596  1.0689  1.0401 -0.2278
16236TIP3    H270200   3.576   3.191   0.672  1.5415 -0.2946  0.6315
16237TIP3   OH270201   6.319   5.158   3.388  0.1281 -0.0404 -0.3325
16237TIP3    H170202   6.289   5.173   3.299  0.6319  1.5202 -0.2542
16237TIP3    H270203   6.274   5.224   3.441  2.7388  1.5828 -0.0373
16238TIP3   OH270204   1.160   2.084   4.226 -0.8165 -1.0778  0.2125
16238TIP3    H170205   1.243   2.127   4.203  0.0650 -2.7221  0.2087
16238TIP3    H270206   1.172   1.994   4.197 -3.5815 -0.7837 -2.0994
16239TIP3   OH270207   2.597   2.709  15.035 -0.6591 -0.2904 -0.3117
16239TIP3    H170208   2.526   2.765  15.004 -0.9302 -0.8013 -0.6295
16239TIP3    H270209   2.676   2.746  14.996 -0.7380  0.3517  0.1407
16240TIP3   OH270210   3.392   6.177   3.493 -0.4842  0.1234 -0.0434
16240TIP3    H170211   3.441   6.158   3.413 -0.8048 -0.1937 -0.1612
16240TIP3    H270212   3.356   6.265   3.479  0.1578  0.4166  0.0968
16241TIP3   OH270213   1.195   0.654   0.994  0.2028 -0.3089  0.2710
16241TIP3    H170214   1.224   0.743   0.973  0.3224 -0.6290 -0.9176
16241TIP3    H270215   1.167   0.617   0.910  0.7765 -1.6291  0.6581
16242TIP3   OH270216   4.905   1.070  11.798 -0.5317 -0.2893 -0.3965
16242TIP3    H170217   4.919   1.152  11.845  0.8068  1.1455 -3.1575
16242TIP3    H270218   4.811   1.053  11.807 -0.7896  1.4428  0.3588
16243TIP3   OH270219   2.522   2.402  13.644  0.0759 -0.1130  0.7954
16243TIP3    H170220   2.536   2.493  13.618  1.2142 -0.7314 -0.8207
16243TIP3    H270221   2.427   2.390  13.641  0.0682  0.3942 -1.1725
16244TIP3   OH270222   3.719   6.515   4.679 -0.0673  0.0065 -0.5578
16244TIP3    H170223   3.631   6.530   4.714 -0.1202 -2.5509  0.5392
16244TIP3    H270224   3.774   6.506   4.756  1.0200  0.8274 -1.2322
16245TIP3   OH270225   5.323   4.323   5.165  0.3068  0.4219  0.0011
16245TIP3    H170226   5.388   4.386   5.196 -0.3594  1.2037 -0.1607
16245TIP3    H270227   5.258   4.376   5.119 -0.4092 -0.3459  0.0988
16246TIP3   OH270228   5.534   5.210  16.235  0.3757 -0.3647  0.1058
16246TIP3    H170229   5.546   5.158  16.314 -0.5131 -0.7577 -0.0063
16246TIP3    H270230   5.606   5.184  16.178  0.3037 -0.9996  0.2981
16247TIP3   OH270231   5.963   3.200   1.933 -0.2321 -0.1585  0.0382
16247TIP3    H170232   6.020   3.158   1.997 -1.3913 -1.6242  0.1253
16247TIP3    H270233   5.961   3.140   1.859  1.3329  1.6588 -1.5496
16248TIP3   OH270234   1.456   4.017  11.502 -0.0787  0.0375 -0.4666
16248TIP3    H170235   1.446   3.969  11.420  0.5319  0.4225 -0.7724
16248TIP3    H270236   1.407   4.098  11.488 -0.3719 -0.1091 -0.2786
16249TIP3   OH270237   5.385   5.241  13.809 -0.5098  0.2720  0.0118
16249TIP3    H170238   5.401   5.331  13.783  2.3084  0.0951  0.8971
16249TIP3    H270239   5.419   5.189  13.736 -0.6817 -0.0793  0.1813
16250TIP3   OH270240   4.200   6.007   1.003  0.0579 -0.3327  0.2158
16250TIP3    H170241   4.191   5.912   1.011 -1.1980 -0.2508 -0.1433
16250TIP3    H270242   4.292   6.020   0.978  0.3357 -1.4251  0.6204
16251TIP3   OH270243   4.680   2.778   3.547  0.1670  0.5880 -0.1021
16251TIP3    H170244   4.708   2.841   3.480  2.8434  0.1971  0.5628
16251TIP3    H270245   4.723   2.809   3.627 -1.6543  0.1134  1.0784
16252TIP3   OH270246   6.101   1.557  16.051 -0.1456 -0.4519  0.0424
16252TIP3    H170247   6.124   1.593  16.136 -0.4041  0.7742 -0.3932
16252TIP3    H270248   6.012   1.586  16.035  0.2270  0.1464 -1.0583
16253TIP3   OH270249   3.211   2.480  16.680  0.4038  0.0842 -0.7020
16253TIP3    H170250   3.193   2.569  16.649 -0.1715 -0.3213 -1.5605
16253TIP3    H270251   3.133   2.430  16.656 -0.1520 -0.2132  1.6181
16254TIP3   OH270252   2.219   5.703  15.676 -0.1391  0.2989 -0.3070
16254TIP3    H170253   2.192   5.615  15.651  0.5950  0.1703 -0.6589
16254TIP3    H270254   2.165   5.761  15.622 -0.4246  0.0633 -0.2742
16255TIP3   OH270255   2.628   1.021  15.923  0.3348 -0.2541 -0.1233
16255TIP3    H170256   2.684   1.095  15.944 -0.6060  0.9109 -1.6334
16255TIP3    H270257   2.642   0.959  15.995  0.6999  1.6078  1.4339
16256TIP3   OH270258   4.129   0.839   5.790  0.2035  0.1837 -0.2234
16256TIP3    H170259   4.186   0.828   5.714  0.9201 -1.2386  0.5031
16256TIP3    H270260   4.181   0.808   5.864 -0.9208  0.4190  0.6802
16257TIP3   OH270261   4.336   5.163  13.838 -0.4277  0.1852 -0.6589
16257TIP3    H170262   4.280   5.227  13.794 -1.9551  0.6351  1.8356
16257TIP3    H270263   4.277   5.092  13.863  1.0174 -1.6273 -2.2484
16258TIP3   OH270264   0.733   2.061   3.347  0.2089 -0.3352  0.4554
16258TIP3    H170265   0.772   2.136   3.393  1.4659  0.1836 -1.4087
16258TIP3    H270266   0.666   2.099   3.291 -0.1164 -0.7758  0.5388
16259TIP3   OH270267   5.837   1.561  14.242 -0.2428 -0.3930  0.3237
16259TIP3    H170268   5.782   1.509  14.182  1.5284 -0.1647 -1.5761
16259TIP3    H270269   5.886   1.619  14.184  2.1651 -0.7513  1.9263
16260TIP3   OH270270   4.187   1.484   5.114  0.1259 -0.1661 -0.2468
16260TIP3    H170271   4.279   1.472   5.091 -0.1074  1.3316 -2.0105
16260TIP3    H270272   4.146   1.516   5.034 -1.3460  2.0736  1.3406
16261TIP3   OH270273   5.657   4.416   3.521  0.0451 -0.1561  0.0042
16261TIP3    H170274   5.716   4.394   3.593  0.3564 -1.2141 -0.5596
16261TIP3    H270275   5.570   4.392   3.554  0.2231 -0.9487 -0.0829
16262TIP3   OH270276   2.626   2.946  12.654  0.6670 -0.6787  0.3067
16262TIP3    H170277   2.706   2.938  12.602  0.6726  1.4416 -0.0923
16262TIP3    H270278   2.656   2.981  12.738  0.2237 -0.4094  0.3530
16263TIP3   OH270279   4.343   3.031  12.823  0.2949 -0.0464  0.0746
16263TIP3    H170280   4.421   3.086  12.826 -0.4363  1.0331 -0.2758
16263TIP3    H270281   4.354   2.969  12.895  0.6580  1.2024  1.1195
16264TIP3   OH270282   6.374   0.333   3.392  0.1349 -0.1436 -0.3129
16264TIP3    H170283   6.397   0.272   3.322  0.5297 -0.8223  0.4061
16264TIP3    H270284   6.428   0.306   3.466 -1.5120 -0.4943  0.7722
16265TIP3   OH270285   0.448   1.498  12.902  0.2274  0.1882 -0.1578
16265TIP3    H170286   0.500   1.464  12.975 -1.6290  0.8438  1.4983
16265TIP3    H270287   0.495   1.576  12.873 -0.1684  1.1631  1.7787
16266TIP3   OH270288   2.481   0.615   0.090 -1.1961  0.1235  0.3309
16266TIP3    H170289   2.498   0.627   0.183 -0.5512  1.7691  0.0320
16266TIP3    H270290   2.437   0.696   0.064 -2.4015 -0.8043 -0.5580
16267TIP3   OH270291   3.980   6.381  13.307  0.0726  0.0078 -0.2888
16267TIP3    H170292   3.964   6.468  13.342 -1.9845 -0.0615 -0.9810
16267TIP3    H270293   3.921   6.323  13.355 -0.3384 -0.6087 -1.4888
16268TIP3   OH270294   4.930   5.410   5.398 -0.4883  0.1718 -0.6479
16268TIP3    H170295   4.974   5.494   5.389  2.0370 -1.1705 -1.1963
16268TIP3    H270296   4.955   5.378   5.484 -1.4927 -0.0101 -0.4139
16269TIP3   OH270297   2.536   2.663  16.774 -0.7573  0.3131 -0.1139
16269TIP3    H170298   2.535   2.586  16.831 -2.3925  0.1278 -0.3693
16269TIP3    H270299   2.516   2.736  16.831 -2.5633  0.1058 -0.4668
16270TIP3   OH270300   1.801   3.168  16.609 -0.3830  0.4429  0.1014
16270TIP3    H170301   1.765   3.194  16.693 -0.1892  1.4849 -0.1365
16270TIP3    H270302   1.783   3.241  16.550  1.9376  0.9426 -0.0648
16271TIP3   OH270303   5.428   3.789   0.245 -0.3476 -0.1367  0.0304
16271TIP3    H170304   5.516   3.820   0.223 -1.0886  1.0295 -1.4216
16271TIP3    H270305   5.442   3.725   0.315  1.4421  1.9823  1.7376
16272TIP3   OH270306   2.690   6.740   0.846 -1.2027 -0.0979  0.0216
16272TIP3    H170307   2.624   6.680   0.880 -1.0734  0.5778  1.5434
16272TIP3    H270308   2.663   6.759   0.756 -0.9997 -2.7619 -0.6231
16273TIP3   OH270309   6.495   0.393   3.663 -0.4447 -0.9617  0.2097
16273TIP3    H170310   6.586   0.403   3.693 -0.5881 -1.4435  0.8144
16273TIP3    H270311   6.453   0.475   3.690 -0.4776 -1.2309  0.9806
16274TIP3   OH270312   0.506   2.735  11.675 -0.5749  0.0649 -0.1619
16274TIP3    H170313   0.592   2.695  11.671 -0.5840  0.0999 -0.8755
16274TIP3    H270314   0.490   2.765  11.585 -1.4466 -0.2011 -0.0993
16275TIP3   OH270315   4.742   1.766  15.421 -0.0093 -0.0898 -0.3119
16275TIP3    H170316   4.736   1.856  15.451  1.5242 -0.1744  0.3051
16275TIP3    H270317   4.725   1.771  15.327 -1.3176  0.6466 -0.0437
16276TIP3   OH270318   2.148   3.937  10.798 -0.0215 -0.1198 -0.5570
16276TIP3    H170319   2.141   3.856  10.748 -1.1639 -0.5527  0.3108
16276TIP3    H270320   2.191   3.912  10.879 -0.8003  0.0568 -0.0884
16277TIP3   OH270321   4.741   4.198  15.365 -0.4640  0.9547 -0.4536
16277TIP3    H170322   4.720   4.260  15.295  0.6013  1.4981 -0.3165
16277TIP3    H270323   4.783   4.251  15.433 -2.3256  0.5862  1.0236
16278TIP3   OH270324   1.213   1.351   2.096  0.1998 -0.4020  0.1599
16278TIP3    H170325   1.225   1.256   2.100  1.0446 -0.3059  0.1457
16278TIP3    H270326   1.283   1.381   2.038  3.0562  0.7404  3.9888
16279TIP3   OH270327   5.315   5.581   0.276  0.0990  0.2811 -0.4905
16279TIP3    H170328   5.236   5.626   0.245 -0.0045  0.1342 -0.4437
16279TIP3    H270329   5.379   5.595   0.206  0.3056  1.1435 -0.1342
16280TIP3   OH270330   0.712   6.426   4.840  0.3086  0.5027  0.0113
16280TIP3    H170331   0.757   6.510   4.852  2.1097 -0.3747 -0.4204
16280TIP3    H270332   0.695   6.422   4.745 -3.2686  2.0806  0.4817
16281TIP3   OH270333   6.305   1.123  13.382 -0.2805 -0.6156  0.0090
16281TIP3    H170334   6.224   1.075  13.364 -0.7159 -0.2816  1.0864
16281TIP3    H270335   6.280   1.190  13.445  0.8957 -0.6904  0.5655
16282TIP3   OH270336   3.720   0.112  15.086 -0.2495  0.4191 -0.4340
16282TIP3    H170337   3.735   0.028  15.131 -1.8171  0.3000 -0.1075
16282TIP3    H270338   3.806   0.152  15.081  0.6759 -1.6336 -1.4195
16283TIP3   OH270339   2.219   2.352   3.298 -0.0680  0.4277  0.0669
16283TIP3    H170340   2.188   2.349   3.389  0.2886  0.7022  0.1964
16283TIP3    H270341   2.267   2.434   3.291  1.2206 -0.3178  0.0569
16284TIP3   OH270342   1.135   5.056   2.208 -0.2280  0.4314  0.4788
16284TIP3    H170343   1.123   5.130   2.149  3.5844  0.6524 -0.1488
16284TIP3    H270344   1.122   4.979   2.153 -1.1517  0.6236  0.4223
16285TIP3   OH270345   0.056   6.009   5.149  0.2865 -0.8115 -0.4296
16285TIP3    H170346   0.021   6.002   5.238  1.8546  0.5638  0.3070
16285TIP3    H270347   0.144   6.043   5.160  1.0760 -2.1070 -2.4332
16286TIP3   OH270348   5.655   1.171   4.096  0.0819  0.1070  0.1646
16286TIP3    H170349   5.745   1.205   4.103  0.2251  0.2723 -2.1314
16286TIP3    H270350   5.666   1.078   4.080 -0.1433  0.1784 -0.4171
16287TIP3   OH270351   6.382   6.077   5.403 -0.0191  0.2828 -0.2362
16287TIP3    H170352   6.297   6.084   5.446  0.0267  0.1316 -0.1205
16287TIP3    H270353   6.444   6.062   5.475 -0.3288 -3.1275 -0.5971
16288TIP3   OH270354   3.716   1.194   4.065 -0.6118 -0.3921  0.2468
16288TIP3    H170355   3.787   1.185   4.128 -1.3776 -1.6912  0.9602
16288TIP3    H270356   3.667   1.112   4.073 -2.1249  0.4374 -0.3034
16289TIP3   OH270357   4.361   2.681  13.459  0.0438 -0.5733 -0.0428
16289TIP3    H170358   4.431   2.654  13.399  1.8206 -0.2227  1.8389
16289TIP3    H270359   4.360   2.777  13.453 -0.5402 -0.5948 -0.3447
16290TIP3   OH270360   6.759   4.030  13.824 -0.5070  0.6239 -0.4540
16290TIP3    H170361   6.768   3.962  13.891  1.2244  1.4923  0.2325
16290TIP3    H270362   6.692   3.996  13.765 -1.9951 -0.2270  1.6380
16291TIP3   OH270363   5.740   3.338   1.489 -0.0330  0.0515  0.5114
16291TIP3    H170364   5.823   3.297   1.513 -0.1240 -0.9585 -0.8698
16291TIP3    H270365   5.725   3.312   1.398  0.1401  3.4888 -0.5984
16292TIP3   OH270366   3.367   4.100  12.406 -0.2109 -0.1055 -0.0604
16292TIP3    H170367   3.429   4.167  12.433  0.3395 -0.1319 -1.2480
16292TIP3    H270368   3.340   4.058  12.488  0.7009  0.4554  0.5327
16293TIP3   OH270369   5.301   0.206  11.444  0.5644  0.0892  0.5752
16293TIP3    H170370   5.338   0.295  11.441  0.1307  0.2211 -2.1577
16293TIP3    H270371   5.225   0.211  11.386 -0.0239 -1.8250  1.1818
16294TIP3   OH270372   5.558   0.995  11.753 -0.2363 -0.3580  0.5598
16294TIP3    H170373   5.506   1.074  11.739 -0.7151 -0.4962  1.5350
16294TIP3    H270374   5.566   0.955  11.667  0.1287  0.8273  0.0378
16295TIP3   OH270375   3.489   1.462   0.181  0.1516 -0.0327  0.3888
16295TIP3    H170376   3.512   1.473   0.089  0.0921  0.7308  0.4634
16295TIP3    H270377   3.477   1.368   0.191 -2.4028  0.0965 -0.9830
16296TIP3   OH270378   5.730   6.024  16.632 -0.5103  0.3845 -0.6317
16296TIP3    H170379   5.797   6.029  16.563  0.1801  1.2024  0.0953
16296TIP3    H270380   5.774   6.054  16.711 -0.5854 -2.7462  0.7096
16297TIP3   OH270381   5.091   1.056   2.751  0.3596  0.6349 -0.6079
16297TIP3    H170382   5.102   1.095   2.664  0.9813 -0.2287 -0.9258
16297TIP3    H270383   5.146   1.110   2.808 -1.5872  2.4171 -0.3671
16298TIP3   OH270384   1.290   4.585   0.713 -0.2384  0.1147  0.3959
16298TIP3    H170385   1.344   4.606   0.637 -1.7646  2.7821  0.0069
16298TIP3    H270386   1.246   4.504   0.690  1.3388 -0.5229 -0.4679
16299TIP3   OH270387   1.373   0.789  14.004  0.1275 -0.1741  0.3698
16299TIP3    H170388   1.458   0.799  13.961  0.3457 -0.2992  0.7675
16299TIP3    H270389   1.372   0.857  14.071 -0.4377  0.3732 -0.1971
16300TIP3   OH270390   6.759   2.038   2.815 -0.1083  0.2813  0.2890
16300TIP3    H170391   6.773   2.101   2.744  0.0905 -0.3717 -0.2591
16300TIP3    H270392   6.664   2.031   2.822 -0.2116 -2.8612 -2.8463
16301TIP3   OH270393   4.468   6.141  13.341 -0.4105  0.1978 -0.3519
16301TIP3    H170394   4.442   6.088  13.416 -0.5185  0.9144  0.1244
16301TIP3    H270395   4.389   6.187  13.314 -0.5100 -0.4981 -1.2815
16302TIP3   OH270396   6.070   2.868   3.030  0.3311 -0.4832 -0.1617
16302TIP3    H170397   6.021   2.788   3.050 -0.6325  0.1964  0.2745
16302TIP3    H270398   6.157   2.838   3.005  0.1165 -1.6438  0.4550
16303TIP3   OH270399   5.735   3.998  16.520 -0.4783 -0.1639 -0.1091
16303TIP3    H170400   5.719   4.074  16.464 -0.7441 -0.7396 -0.8272
16303TIP3    H270401   5.710   3.923  16.466 -1.9609 -0.6628  1.2426
16304TIP3   OH270402   0.956   2.245   2.924 -0.2679  0.4580  0.0897
16304TIP3    H170403   0.913   2.298   2.858  1.5231  0.2939 -1.2366
16304TIP3    H270404   1.033   2.208   2.880  0.3696 -0.5216  1.9419
16305TIP3   OH270405   0.635   1.409  11.663  0.4568 -0.2133  0.0257
16305TIP3    H170406   0.589   1.345  11.718  0.2128 -1.4407 -1.5557
16305TIP3    H270407   0.666   1.476  11.724 -0.0568 -1.3885  1.6053
16306TIP3   OH270408   6.495   4.497  16.065  0.2031  0.1796  0.2542
16306TIP3    H170409   6.558   4.428  16.086  1.3862  1.5765  1.4293
16306TIP3    H270410   6.548   4.577  16.061 -0.8497  0.7906 -2.8087
16307TIP3   OH270411   0.143   5.749   4.588 -0.9605 -0.7182  0.3261
16307TIP3    H170412   0.202   5.694   4.639 -1.1880 -1.1940  0.0863
16307TIP3    H270413   0.200   5.814   4.547 -0.8674  0.0890  1.7271
16308TIP3   OH270414   5.145   0.598   1.834 -0.3950  0.2421  0.0605
16308TIP3    H170415   5.068   0.617   1.887  0.3052 -2.1507  2.0346
16308TIP3    H270416   5.219   0.606   1.896  0.9153  1.9790 -1.6591
16309TIP3   OH270417   5.918   1.727  11.244 -0.5543  0.3982  0.4145
16309TIP3    H170418   5.868   1.760  11.169 -0.4736  1.4758  0.8160
16309TIP3    H270419   6.009   1.733  11.217 -0.4975  1.2614  0.7688
16310TIP3   OH270420   0.294   1.565  11.379  0.0476 -0.4048 -0.5199
16310TIP3    H170421   0.369   1.536  11.326  0.9582 -1.7687  1.4404
16310TIP3    H270422   0.316   1.537  11.468 -2.6451 -0.4978  0.1465
16311TIP3   OH270423   5.801   4.329   4.624 -0.2781  0.1101  0.1021
16311TIP3    H170424   5.757   4.409   4.654 -0.3800 -0.2984  1.0569
16311TIP3    H270425   5.867   4.312   4.691 -0.9794 -1.2085  0.4638
16312TIP3   OH270426   6.216   3.136  14.271 -0.3922  0.0234  0.6029
16312TIP3    H170427   6.213   3.084  14.351 -0.2312 -1.1978 -0.1749
16312TIP3    H270428   6.273   3.210  14.292  1.0799 -1.2334  1.0827
16313TIP3   OH270429   0.960   4.675   5.289  0.0630 -0.3796  0.4734
16313TIP3    H170430   0.966   4.762   5.251 -0.1879 -0.5942 -0.0668
16313TIP3    H270431   1.016   4.678   5.367 -0.0164  0.2863  0.5031
16314TIP3   OH270432   0.221   2.139  12.777 -0.1942 -0.2383 -0.0361
16314TIP3    H170433   0.140   2.186  12.796 -0.8707 -0.7926 -1.4951
16314TIP3    H270434   0.198   2.047  12.785 -0.6417 -0.5350 -3.8714
16315TIP3   OH270435   2.170   3.036   4.088  0.0094 -0.3360  1.0096
16315TIP3    H170436   2.087   2.997   4.061  1.5713 -2.7009 -0.5500
16315TIP3    H270437   2.174   3.020   4.182 -1.3608 -0.0867  1.1188
16316TIP3   OH270438   2.078   2.669   2.529  0.2346 -0.1761  0.4875
16316TIP3    H170439   2.066   2.640   2.619  0.9568 -1.3527  0.2141
16316TIP3    H270440   2.173   2.685   2.521  0.1633  0.0266 -0.0301
16317TIP3   OH270441   5.130   0.564   6.393  0.3033  0.7169  0.8762
16317TIP3    H170442   5.136   0.625   6.467  1.2795  2.2202 -0.4053
16317TIP3    H270443   5.091   0.616   6.323  0.5424 -0.3350 -0.0426
16318TIP3   OH270444   4.156   0.950   2.936 -0.8685  0.5057 -0.1835
16318TIP3    H170445   4.197   0.956   3.022 -1.6984 -1.6754  0.4114
16318TIP3    H270446   4.228   0.955   2.874  0.1244 -1.3560  0.7791
16319TIP3   OH270447   4.710   4.800   3.248 -0.1145  0.2964 -0.3811
16319TIP3    H170448   4.708   4.710   3.281  1.0558  0.5628  0.4763
16319TIP3    H270449   4.775   4.798   3.177  0.7982  0.6944  0.4225
16320TIP3   OH270450   4.421   4.303  12.838 -0.3544 -0.3696 -0.2609
16320TIP3    H170451   4.516   4.309  12.850 -0.3314 -0.0673 -0.6094
16320TIP3    H270452   4.403   4.356  12.761 -0.4901 -2.3684 -1.6601
16321TIP3   OH270453   6.096   5.255   1.573  0.3905  0.1330  0.4085
16321TIP3    H170454   6.060   5.339   1.544  0.7772 -0.2042 -1.0694
16321TIP3    H270455   6.061   5.192   1.511  2.8407 -0.3255 -0.5314
16322TIP3   OH270456   5.166   6.778   3.389 -0.6026  0.5468 -0.0477
16322TIP3    H170457   5.169   6.849   3.325  1.3654  0.4186 -0.1308
16322TIP3    H270458   5.240   6.722   3.365 -0.6348 -0.1889  1.5406
16323TIP3   OH270459   6.786   5.443   0.549  0.2224 -0.3871 -0.0012
16323TIP3    H170460   6.702   5.468   0.587 -0.5691 -2.1532 -0.5191
16323TIP3    H270461   6.770   5.439   0.455  0.9891 -0.3600 -0.1407
16324TIP3   OH270462   4.652   4.608  16.229 -0.4607 -0.7466  0.1259
16324TIP3    H170463   4.621   4.588  16.141 -1.3778 -1.3368  0.5757
16324TIP3    H270464   4.600   4.552  16.286  1.3408 -1.6487  0.9110
16325TIP3   OH270465   2.602   2.326  17.292 -0.0259 -0.4018 -0.3024
16325TIP3    H170466   2.688   2.285  17.297  0.5082  0.5841 -1.0524
16325TIP3    H270467   2.621   2.420  17.290 -1.1855 -0.1321  0.7969
16326TIP3   OH270468   5.855   3.336   3.051  0.1089  0.4426  0.1866
16326TIP3    H170469   5.832   3.377   3.134  0.6306  0.1919  0.4545
16326TIP3    H270470   5.890   3.250   3.075 -1.4944 -0.3998 -0.4021
16327TIP3   OH270471   3.698   5.857  10.196 -0.3190 -0.3352  0.0552
16327TIP3    H170472   3.785   5.817  10.204 -0.4705 -0.6976 -0.0809
16327TIP3    H270473   3.638   5.782  10.188 -0.4260 -0.0702 -1.9146
16328TIP3   OH270474   1.897   2.166   5.056  0.1642  0.1731  0.0354
16328TIP3    H170475   1.916   2.076   5.085 -2.8730 -0.3892  0.4615
16328TIP3    H270476   1.856   2.207   5.132 -1.1572  0.9731 -1.0816
16329TIP3   OH270477   2.943   4.318  12.350  0.1626 -0.0756  0.6653
16329TIP3    H170478   2.948   4.331  12.255  2.3669  0.4634  0.8276
16329TIP3    H270479   2.941   4.406  12.386  1.5020 -0.2453  1.1956
16330TIP3   OH270480   3.185   5.306   0.744  0.1790  0.2246 -0.2685
16330TIP3    H170481   3.090   5.299   0.737  0.1545  1.2757 -1.0880
16330TIP3    H270482   3.211   5.230   0.797 -1.3421  1.1913  1.9213
16331TIP3   OH270483   6.689   6.318   1.239  0.5168  0.5528  0.0347
16331TIP3    H170484   6.728   6.246   1.289 -1.4793 -1.5434 -1.2947
16331TIP3    H270485   6.690   6.393   1.299  1.4290 -0.9276  1.9303
16332TIP3   OH270486   4.696   5.257   5.410 -1.1046  0.0916  0.4342
16332TIP3    H170487   4.647   5.333   5.378 -0.8019  0.3469  0.5745
16332TIP3    H270488   4.788   5.285   5.407 -1.1283  0.4536  2.4192
16333TIP3   OH270489   2.539   1.739   4.839 -0.3378  0.2092  0.1143
16333TIP3    H170490   2.582   1.807   4.891  2.4449 -2.3864  1.3820
16333TIP3    H270491   2.602   1.719   4.769 -1.5818 -0.3472 -0.8701
16334TIP3   OH270492   2.553   2.054  11.361  0.6507 -0.1923  0.0763
16334TIP3    H170493   2.459   2.056  11.377  0.8618  2.0402  1.1626
16334TIP3    H270494   2.563   2.091  11.273  0.6330  1.2352  0.6617
16335TIP3   OH270495   5.715   5.008   2.971 -0.2733 -0.2227  0.3603
16335TIP3    H170496   5.747   4.954   3.043  0.0540  0.0506  0.4241
16335TIP3    H270497   5.679   5.086   3.013  1.2476  0.6099  0.1651
16336TIP3   OH270498   4.856   3.197  17.106 -0.3713 -0.1513  0.1882
16336TIP3    H170499   4.846   3.254  17.182  0.6254  0.2561  0.0195
16336TIP3    H270500   4.854   3.256  17.031 -2.1133 -0.6278 -0.1632
16337TIP3   OH270501   0.521   1.891   0.981  0.3382  0.0754 -0.3589
16337TIP3    H170502   0.441   1.934   1.011  0.6995  0.7794 -0.3914
16337TIP3    H270503   0.496   1.850   0.899 -0.0485  0.1037 -0.2588
16338TIP3   OH270504   3.675   4.166   3.995 -0.2742  0.0955 -0.1271
16338TIP3    H170505   3.663   4.086   4.047 -1.0086 -0.1682 -0.7028
16338TIP3    H270506   3.658   4.237   4.057 -0.1619 -0.2034  0.2491
16339TIP3   OH270507   1.215   1.581   1.757 -0.3205 -0.0900 -0.0932
16339TIP3    H170508   1.230   1.668   1.719 -1.6632  0.1108 -0.1862
16339TIP3    H270509   1.267   1.581   1.837  1.3633  0.0213 -1.1750
16340TIP3   OH270510   0.492   5.160   5.156  0.8028 -0.9617  0.2524
16340TIP3    H170511   0.456   5.152   5.068 -2.2625  0.9499  1.2633
16340TIP3    H270512   0.542   5.241   5.154 -0.9559  0.1749  0.7618
16341TIP3   OH270513   6.240   3.846  14.694  0.4331 -0.9774 -1.0419
16341TIP3    H170514   6.280   3.896  14.623  2.3246 -0.1878  0.5684
16341TIP3    H270515   6.266   3.755  14.677  0.5076 -0.8577 -1.5797
16342TIP3   OH270516   2.898   3.689  11.758 -0.2620 -0.4349  0.1214
16342TIP3    H170517   2.803   3.700  11.758 -0.6638 -3.5804  0.1093
16342TIP3    H270518   2.913   3.609  11.807  2.4328  0.1594  0.3514
16343TIP3   OH270519   5.246   3.491  10.984  0.5030  0.3431  0.2903
16343TIP3    H170520   5.190   3.453  10.917  0.6352 -1.2822  1.0878
16343TIP3    H270521   5.188   3.548  11.035 -0.2857 -0.8435  0.7249
16344TIP3   OH270522   2.697   2.487   4.716  0.7878  0.0861 -0.1368
16344TIP3    H170523   2.630   2.423   4.740  0.8048  0.3520  0.6534
16344TIP3    H270524   2.654   2.572   4.732  0.7841  0.2691 -1.1125
16345TIP3   OH270525   3.634   5.958   3.673 -0.0452  0.2598  0.1043
16345TIP3    H170526   3.664   6.048   3.658  0.5798 -0.1783 -1.3697
16345TIP3    H270527   3.677   5.907   3.605  1.1055 -1.4848  2.0748
16346TIP3   OH270528   0.933   4.184  14.997 -0.3035  0.6940  0.0142
16346TIP3    H170529   0.972   4.180  14.910 -2.4275 -0.0980 -0.9424
16346TIP3    H270530   0.947   4.274  15.026  0.7495  0.8546 -0.9776
16347TIP3   OH270531   4.104   4.643  16.474  0.0758 -0.3654  0.0728
16347TIP3    H170532   4.078   4.690  16.554  2.3828 -0.5817  1.0179
16347TIP3    H270533   4.083   4.552  16.493  0.1580 -0.3502  0.2481
16348TIP3   OH270534   4.886   5.980  15.923  0.8577  0.0101 -0.2667
16348TIP3    H170535   4.917   5.946  16.007 -0.4673  0.4743  0.4138
16348TIP3    H270536   4.791   5.976  15.929  0.7370 -1.6745 -2.4487
16349TIP3   OH270537   4.796   5.608  12.539 -0.2964  0.3095 -0.2142
16349TIP3    H170538   4.850   5.570  12.469 -1.0205 -0.4671 -0.3592
16349TIP3    H270539   4.826   5.564  12.619 -1.1322 -0.5807 -0.3822
16350TIP3   OH270540   4.669   3.350  11.155 -0.4270 -0.0723 -0.1960
16350TIP3    H170541   4.629   3.421  11.105 -3.8442 -0.6055  1.6061
16350TIP3    H270542   4.620   3.272  11.130  0.4939 -1.0582  0.9733
16351TIP3   OH270543   3.716   5.330   3.323 -0.0181  0.0133 -0.0775
16351TIP3    H170544   3.649   5.278   3.278 -0.6398  1.1880 -0.5263
16351TIP3    H270545   3.758   5.380   3.252  0.3912  0.3183  0.3803
16352TIP3   OH270546   3.876   3.673  16.155 -0.1503 -0.0515 -0.1601
16352TIP3    H170547   3.819   3.732  16.205  1.3682  0.4304  1.0305
16352TIP3    H270548   3.964   3.689  16.190  0.3794 -2.5097 -0.2904
16353TIP3   OH270549   0.643   5.865  14.522 -0.1393 -0.3027 -0.1244
16353TIP3    H170550   0.698   5.805  14.574  0.2091  0.6440  0.6105
16353TIP3    H270551   0.605   5.809  14.454  0.5496 -1.2704  0.2681
16354TIP3   OH270552   0.239   6.474   3.060 -0.5865  0.3901  0.5431
16354TIP3    H170553   0.289   6.471   3.142  0.8346  1.3830 -0.2603
16354TIP3    H270554   0.254   6.562   3.026 -1.5069  0.1239 -0.5744
16355TIP3   OH270555   3.719   0.880  14.827  0.1904  0.4192  0.4259
16355TIP3    H170556   3.720   0.837  14.742 -1.5023  0.1734  0.5205
16355TIP3    H270557   3.767   0.962  14.814  0.6434  0.0000 -0.5517
16356TIP3   OH270558   3.426   2.345  14.033  0.3876 -0.0851  0.4493
16356TIP3    H170559   3.353   2.401  14.059  0.4478  0.7461 -1.1245
16356TIP3    H270560   3.391   2.256  14.039  0.3917  0.0656  3.3037
16357TIP3   OH270561   0.032   1.120   1.785  0.8368  0.3564  0.0405
16357TIP3    H170562   0.042   1.214   1.802  1.4945  0.6575 -1.8776
16357TIP3    H270563   0.094   1.078   1.845  0.5352  1.1382  0.9139
16358TIP3   OH270564   0.039   1.482   4.590 -0.7474  0.3205 -0.1120
16358TIP3    H170565   0.026   1.555   4.650 -0.3000  0.5966 -0.3458
16358TIP3    H270566   0.121   1.503   4.545 -2.7232  1.7634 -3.1616
16359TIP3   OH270567   2.911   4.997  12.892  0.0850  0.2499  0.6352
16359TIP3    H170568   2.848   5.038  12.951  0.2805  2.1837 -0.4438
16359TIP3    H270569   2.901   4.903  12.908  0.1541  0.7215  3.7143
16360TIP3   OH270570   6.053   4.546   4.355 -0.6721 -0.2604 -0.1327
16360TIP3    H170571   5.997   4.623   4.366 -1.9516 -1.2671  0.5913
16360TIP3    H270572   5.994   4.479   4.321  0.4710 -0.8739 -0.9073
16361TIP3   OH270573   4.103   4.409   3.480  0.0554  0.3385 -0.5597
16361TIP3    H170574   4.167   4.479   3.486 -0.0165  0.3179  0.7145
16361TIP3    H270575   4.133   4.354   3.409  1.5216  0.2572  0.1168
16362TIP3   OH270576   4.597   1.178  14.667  0.2909 -0.2628  0.5115
16362TIP3    H170577   4.665   1.144  14.725  1.0171  0.9795  0.3963
16362TIP3    H270578   4.516   1.142  14.702  0.9045 -0.9835  1.2146
16363TIP3   OH270579   0.312   0.619   6.763  0.0111  0.0579  0.3954
16363TIP3    H170580   0.221   0.631   6.791 -0.1980 -1.0208  0.1971
16363TIP3    H270581   0.359   0.591   6.842  0.1493  0.4885  0.4688
16364TIP3   OH270582   5.408   6.006  12.453  0.7909 -0.7570  0.6434
16364TIP3    H170583   5.373   6.026  12.366 -3.2180 -1.2814  2.0222
16364TIP3    H270584   5.463   6.081  12.475 -0.3081  0.6465 -1.2510
16365TIP3   OH270585   6.525   4.210   5.337  0.2152 -0.0869 -0.1549
16365TIP3    H170586   6.598   4.168   5.382  0.1917 -2.0337 -1.8446
16365TIP3    H270587   6.472   4.137   5.305  0.3148  1.1942 -3.4507
16366TIP3   OH270588   6.807   2.618   0.550 -0.0376 -0.2019 -0.0840
16366TIP3    H170589   6.839   2.539   0.594  2.8317  0.1893 -1.3452
16366TIP3    H270590   6.793   2.590   0.459  0.3788  0.5860 -0.3932
16367TIP3   OH270591   2.893   2.183  11.419  0.3464 -0.3514 -0.2234
16367TIP3    H170592   2.830   2.193  11.490  0.3491 -0.9379 -0.1368
16367TIP3    H270593   2.904   2.271  11.384 -0.1468 -0.1666  0.0841
16368TIP3   OH270594   2.482   5.526   3.288  0.2188  0.3669 -0.3271
16368TIP3    H170595   2.488   5.485   3.202 -2.4707  1.4471 -1.0793
16368TIP3    H270596   2.471   5.453   3.349  0.3825 -0.3099 -1.1030
16369TIP3   OH270597   1.807   6.398   4.005 -0.3361  0.6604 -0.3406
16369TIP3    H170598   1.850   6.379   3.922 -2.3776 -0.5130 -1.1600
16369TIP3    H270599   1.780   6.489   3.998  0.0315  0.7425 -0.7113
16370TIP3   OH270600   0.273   4.541   0.061 -0.1523 -0.0049 -0.0139
16370TIP3    H170601   0.224   4.485   0.122  0.2733  1.8903  2.1624
16370TIP3    H270602   0.351   4.491   0.039 -1.3378 -1.5899 -0.6793
16371TIP3   OH270603   0.605   6.390   3.235 -0.0612 -0.3332  0.3063
16371TIP3    H170604   0.630   6.447   3.162 -0.5949  0.7852  0.9723
16371TIP3    H270605   0.516   6.419   3.258 -0.4606 -1.6613  0.4466
16372TIP3   OH270606   1.318   3.403   1.674 -0.2356 -0.1636  0.5113
16372TIP3    H170607   1.270   3.383   1.593  0.3932  1.0943 -0.1856
16372TIP3    H270608   1.345   3.317   1.707 -1.3058 -0.7559 -0.1068
16373TIP3   OH270609   6.294   0.770   4.424 -0.5094  0.0970 -0.1465
16373TIP3    H170610   6.208   0.810   4.435 -0.3162  0.7509 -1.0293
16373TIP3    H270611   6.348   0.839   4.386 -0.0639 -0.8709 -1.2731
16374TIP3   OH270612   4.551   2.242  16.696  0.4290 -0.0127  0.4328
16374TIP3    H170613   4.623   2.265  16.637  1.4351  0.3273  1.7861
16374TIP3    H270614   4.554   2.146  16.702 -0.7965 -0.2119 -1.4355
16375TIP3   OH270615   0.448   3.754   2.163  0.8349  0.0755  0.3448
16375TIP3    H170616   0.466   3.665   2.192  1.0495  0.2247  0.6759
16375TIP3    H270617   0.374   3.746   2.103  0.8487 -0.3242  0.3847
16376TIP3   OH270618   2.024   4.645  14.366 -0.1454 -0.7657 -0.5069
16376TIP3    H170619   2.106   4.655  14.318  0.1836  2.0024  0.5484
16376TIP3    H270620   1.957   4.639  14.299  0.5679  0.5100 -1.3433
16377TIP3   OH270621   2.419   6.515   3.847 -0.2132  0.6470  0.0322
16377TIP3    H170622   2.355   6.453   3.811  0.0367  0.5465 -0.2456
16377TIP3    H270623   2.445   6.568   3.772  1.2333 -0.3713 -0.2080
16378TIP3   OH270624   4.574   3.373  13.151  0.6467 -0.3057 -0.2483
16378TIP3    H170625   4.644   3.311  13.130  1.0568 -0.2809  0.9961
16378TIP3    H270626   4.598   3.408  13.237  0.0630  1.0685 -0.6200
16379TIP3   OH270627   5.511   0.726   3.699 -0.4231 -0.3598 -0.1750
16379TIP3    H170628   5.594   0.680   3.712 -0.4738 -0.3686  0.1236
16379TIP3    H270629   5.470   0.682   3.625  0.8460  1.0447 -1.7621
16380TIP3   OH270630   0.146   1.562   4.821 -0.4687 -0.6376 -0.6154
16380TIP3    H170631   0.226   1.610   4.803  0.1740 -1.2737  0.4636
16380TIP3    H270632   0.086   1.627   4.858  0.5745 -0.7647  1.3220
16381TIP3   OH270633   3.378   5.076   0.588  0.5531  0.0694 -0.3053
16381TIP3    H170634   3.443   5.006   0.591 -0.2959 -0.8201 -1.9882
16381TIP3    H270635   3.309   5.047   0.649  0.8032  0.0599 -0.0248
16382TIP3   OH270636   1.587   1.564  17.139 -0.4472  0.6405  0.1667
16382TIP3    H170637   1.502   1.606  17.151 -0.4776  0.1577  1.6805
16382TIP3    H270638   1.569   1.471  17.145  0.2641  0.5550  1.0594
16383TIP3   OH270639   2.376   6.413  15.453 -0.2535 -0.1747 -0.2412
16383TIP3    H170640   2.377   6.453  15.541  1.4858 -1.5063  0.3726
16383TIP3    H270641   2.419   6.478  15.397  1.1536 -0.4914  0.4476
16384TIP3   OH270642   5.489   2.121  10.855  0.2771 -0.0474 -0.5840
16384TIP3    H170643   5.580   2.146  10.842 -0.0282  1.4686  0.0183
16384TIP3    H270644   5.492   2.027  10.872  1.6112 -0.2077 -1.6404
16385TIP3   OH270645   0.696   2.331  16.025  0.4467  0.0269 -0.0110
16385TIP3    H170646   0.756   2.260  16.002 -0.7772 -1.5795  1.6239
16385TIP3    H270647   0.640   2.294  16.093 -0.8509  2.2653  0.1826
16386TIP3   OH270648   4.511   6.170   4.896 -0.0367  0.5403  0.5176
16386TIP3    H170649   4.437   6.227   4.876 -0.9140 -1.1702 -1.3755
16386TIP3    H270650   4.503   6.098   4.833  1.1505 -1.5394  2.6536
16387TIP3   OH270651   4.309   6.533  14.070  0.1250  0.4210  0.1978
16387TIP3    H170652   4.283   6.596  14.137  1.6040  0.2077  0.9854
16387TIP3    H270653   4.312   6.449  14.115 -1.2866 -0.1464 -0.7247
16388TIP3   OH270654   3.991   5.965  14.234 -0.0046  0.8143  0.3404
16388TIP3    H170655   3.986   5.969  14.138  0.1917  2.1078  0.3797
16388TIP3    H270656   3.901   5.979  14.263 -0.0770  0.3468  0.3513
16389TIP3   OH270657   5.165   6.807  16.831  0.0047  0.4553 -0.2699
16389TIP3    H170658   5.163   6.903  16.830  0.2607  0.4883  1.2853
16389TIP3    H270659   5.087   6.781  16.782 -0.2083  1.4517 -0.4782
16390TIP3   OH270660   1.580   6.247   5.547 -0.2923  0.4003 -0.2294
16390TIP3    H170661   1.581   6.338   5.517  0.1359  0.0383 -1.3639
16390TIP3    H270662   1.518   6.246   5.619  0.7173  1.8692  0.6897
16391TIP3   OH270663   6.647   5.285  11.051  0.4724 -0.6123  0.2426
16391TIP3    H170664   6.554   5.263  11.050  0.3108 -0.0128 -2.8055
16391TIP3    H270665   6.690   5.210  11.010  1.2180 -0.4424  0.7153
16392TIP3   OH270666   0.233   3.624  11.571  0.1435 -0.1605  0.4780
16392TIP3    H170667   0.164   3.689  11.560  0.4233  0.0768  0.1290
16392TIP3    H270668   0.264   3.637  11.661  1.1077  1.0840 -0.0274
16393TIP3   OH270669   4.108   1.918   3.348 -0.9361  0.7855  0.5870
16393TIP3    H170670   4.102   1.991   3.409  1.3025  0.6015  1.0872
16393TIP3    H270671   4.166   1.855   3.392 -2.8017 -1.2956  0.1618
16394TIP3   OH270672   0.889   5.239  17.233  0.0147 -0.6705  0.5194
16394TIP3    H170673   0.903   5.311  17.294 -0.1007 -0.6847  0.5630
16394TIP3    H270674   0.929   5.269  17.151 -2.0258  0.3943 -0.1254
16395TIP3   OH270675   3.650   2.093   6.033  0.2802  0.7509 -0.4001
16395TIP3    H170676   3.684   2.004   6.039 -3.0977 -0.5155  1.2634
16395TIP3    H270677   3.726   2.149   6.048  2.3809 -1.8473 -1.0462
16396TIP3   OH270678   5.180   5.884  13.629 -0.0853 -0.2389  0.1157
16396TIP3    H170679   5.138   5.928  13.703  1.1962  0.6809  0.3265
16396TIP3    H270680   5.109   5.865  13.568 -1.2343 -1.4197  1.7648
16397TIP3   OH270681   1.893   0.271   0.575  0.5869 -0.3243  0.0226
16397TIP3    H170682   1.840   0.201   0.537  0.9746 -0.3276 -0.5116
16397TIP3    H270683   1.983   0.236   0.574  0.6726 -0.1102  0.4328
16398TIP3   OH270684   0.194   0.426   5.561  0.1713  0.2193  0.5299
16398TIP3    H170685   0.150   0.379   5.490 -0.4541  0.7943  0.5368
16398TIP3    H270686   0.220   0.358   5.623 -0.4942 -0.1401  0.4137
16399TIP3   OH270687   2.412   1.753  14.280 -0.0437 -0.3879 -0.6193
16399TIP3    H170688   2.330   1.704  14.273 -2.0093  3.0349 -2.1849
16399TIP3    H270689   2.444   1.761  14.190  2.0636 -1.6635 -0.0322
16400TIP3   OH270690   6.712   4.870   1.148 -0.2252  0.1860  0.5094
16400TIP3    H170691   6.666   4.848   1.230 -0.8552 -4.9107 -1.0391
16400TIP3    H270692   6.797   4.826   1.156 -0.4985 -0.8154 -1.7226
16401TIP3   OH270693   5.184   5.338   0.571 -0.0467  0.2501 -0.4561
16401TIP3    H170694   5.244   5.298   0.508  0.3316  2.8602 -1.8329
16401TIP3    H270695   5.227   5.420   0.597 -2.8352  2.0626 -1.2933
16402TIP3   OH270696   0.744   4.671   2.063 -0.5339 -0.2701 -0.0858
16402TIP3    H170697   0.831   4.689   2.100 -1.1930  1.6846  0.6064
16402TIP3    H270698   0.740   4.725   1.984 -0.9275 -0.7288 -0.3778
16403TIP3   OH270699   4.138   4.545   0.827  0.0454  0.2459  0.1589
16403TIP3    H170700   4.189   4.566   0.748  2.3738 -1.3108  1.1886
16403TIP3    H270701   4.083   4.471   0.801  0.8206 -0.2769 -0.0115
16404TIP3   OH270702   4.364   2.986  10.931 -0.0850  0.4956 -0.1251
16404TIP3    H170703   4.424   2.936  10.875 -0.0668 -0.0825  0.4098
16404TIP3    H270704   4.381   3.077  10.909  0.4991  0.3011 -0.4758
16405TIP3   OH270705   0.967   1.306  15.117 -0.1209  0.2269  0.7120
16405TIP3    H170706   0.877   1.275  15.110 -0.3262  0.4479  2.2576
16405TIP3    H270707   0.998   1.273  15.202  1.7740 -1.1643 -0.4605
16406TIP3   OH270708   4.340   4.784  11.899 -0.4632  0.1975 -1.0886
16406TIP3    H170709   4.291   4.856  11.860  1.0316  1.1811 -1.1845
16406TIP3    H270710   4.296   4.766  11.982 -1.2080  0.7958 -1.3536
16407TIP3   OH270711   2.815   0.041  13.011  0.4558  0.0114 -0.1896
16407TIP3    H170712   2.865   0.120  12.992 -0.7089  0.2254 -2.5845
16407TIP3    H270713   2.863  -0.002  13.081  1.2380  2.7064  0.9726
16408TIP3   OH270714   2.631   5.698   3.446  0.0417 -0.6811  0.6000
16408TIP3    H170715   2.579   5.637   3.393  1.5307  0.5291 -2.3540
16408TIP3    H270716   2.587   5.783   3.435  0.1765 -0.4694  1.6029
16409TIP3   OH270717   3.830   4.306  13.311  0.4238  0.3594  0.6491
16409TIP3    H170718   3.921   4.326  13.293  0.8470 -2.1718 -0.3248
16409TIP3    H270719   3.780   4.370  13.260  1.6683  0.5882 -0.2833
16410TIP3   OH270720   5.794   1.646  13.111  0.3442  0.8168 -0.6023
16410TIP3    H170721   5.846   1.570  13.086 -1.3726 -0.8687  0.7898
16410TIP3    H270722   5.721   1.647  13.050 -0.0785  0.8527 -0.1021
16411TIP3   OH270723   1.151   0.486  17.277 -0.2512 -0.1083 -0.4512
16411TIP3    H170724   1.165   0.552  17.209 -0.5760 -0.5596 -0.9575
16411TIP3    H270725   1.100   0.418  17.234  0.4662 -0.8979 -0.0499
16412TIP3   OH270726   0.629   1.617  14.849 -0.3107 -0.3902 -0.0159
16412TIP3    H170727   0.723   1.616  14.828 -0.3814 -1.0852 -0.3193
16412TIP3    H270728   0.606   1.709  14.850  0.2072 -0.2487 -0.7345
16413TIP3   OH270729   0.240   4.159   5.610  0.6081 -0.1310  0.1134
16413TIP3    H170730   0.303   4.228   5.590  0.7560  0.2158  1.7177
16413TIP3    H270731   0.159   4.187   5.567  1.4865 -0.5197 -1.8478
16414TIP3   OH270732   5.437   0.394  12.275 -0.1167  0.2594 -0.3387
16414TIP3    H170733   5.365   0.330  12.267  0.3315 -0.1129 -1.5551
16414TIP3    H270734   5.476   0.396  12.188 -0.2426  2.3517 -0.3668
16415TIP3   OH270735   3.928   5.414  12.264  0.0446 -0.4674 -0.6392
16415TIP3    H170736   3.966   5.375  12.185  0.4576 -1.7828  0.2064
16415TIP3    H270737   3.993   5.399  12.332 -1.2342 -1.1995  0.4307
16416TIP3   OH270738   4.740   2.710   4.304 -0.0761 -0.4413 -0.0694
16416TIP3    H170739   4.788   2.646   4.356 -0.5373 -0.3927  0.4205
16416TIP3    H270740   4.700   2.658   4.234  2.6049 -0.1388 -1.8644
16417TIP3   OH270741   5.092   1.110  11.127  0.2439  0.1332  0.4611
16417TIP3    H170742   5.031   1.039  11.147 -2.0428  1.7741 -0.4597
16417TIP3    H270743   5.122   1.092  11.038  1.3281 -0.7935  0.9945
16418TIP3   OH270744   4.284   3.588   1.111 -0.4663 -0.7555  0.3629
16418TIP3    H170745   4.326   3.502   1.106  0.1415 -0.3750 -1.3443
16418TIP3    H270746   4.331   3.632   1.183  0.0801 -1.3877  0.4053
16419TIP3   OH270747   3.178   6.014   3.990  0.0600  0.4973  0.4220
16419TIP3    H170748   3.188   5.975   3.903 -2.1244 -1.0557  0.8508
16419TIP3    H270749   3.262   5.997   4.033  0.0859 -1.4168 -0.3297
16420TIP3   OH270750   0.662   3.412  11.398  0.2697  0.4563  0.0744
16420TIP3    H170751   0.690   3.356  11.470  0.4225 -0.0299 -0.3601
16420TIP3    H270752   0.567   3.411  11.402  0.2400 -1.0467 -0.8547
16421TIP3   OH270753   1.940   6.041   1.017 -0.3981  0.3172 -0.3018
16421TIP3    H170754   1.924   5.974   0.950 -2.7598  0.1985  0.3085
16421TIP3    H270755   1.958   5.991   1.097  0.7363  0.4379 -0.4852
16422TIP3   OH270756   0.666   5.861  12.335 -0.1472 -0.3845 -0.5396
16422TIP3    H170757   0.680   5.793  12.400  1.5404  0.1752 -0.2895
16422TIP3    H270758   0.745   5.859  12.281 -2.0226 -1.6316 -3.3339
16423TIP3   OH270759   4.475   5.596  14.357 -1.0580  0.6309 -0.0700
16423TIP3    H170760   4.569   5.580  14.363 -0.9336  1.7186  1.2068
16423TIP3    H270761   4.439   5.561  14.439 -1.8822 -0.4948 -0.8954
16424TIP3   OH270762   6.568   5.985  12.487 -0.1325  0.0706  0.3655
16424TIP3    H170763   6.548   5.975  12.580 -1.8829 -0.5570 -0.0544
16424TIP3    H270764   6.558   6.078  12.469 -0.9060  0.0253  0.5676
16425TIP3   OH270765   2.409   4.894   4.732 -0.0652 -0.3502 -0.0197
16425TIP3    H170766   2.449   4.948   4.664 -0.4719  1.0489  0.8518
16425TIP3    H270767   2.433   4.937   4.815 -0.2209 -1.6040  0.6950
16426TIP3   OH270768   3.720   2.505  11.471  0.0210 -0.6815 -0.4232
16426TIP3    H170769   3.789   2.451  11.509 -1.3547 -1.8692  0.4156
16426TIP3    H270770   3.761   2.591  11.458  1.0902 -0.8057  1.9205
16427TIP3   OH270771   3.653   6.215  16.759 -0.0890  0.4860 -0.3778
16427TIP3    H170772   3.596   6.283  16.722 -0.3627  0.3736 -0.1574
16427TIP3    H270773   3.594   6.142  16.778  0.0926  0.4531  0.0618
16428TIP3   OH270774   2.874   2.405   6.751  0.1698  0.3711 -0.6639
16428TIP3    H170775   2.814   2.446   6.813  0.7508  0.7202 -0.3326
16428TIP3    H270776   2.916   2.336   6.801 -2.3389 -2.0702 -1.7748
16429TIP3   OH270777   5.160   4.958   4.170  0.0660  0.0618  0.2982
16429TIP3    H170778   5.085   4.923   4.122  0.2615 -0.8750  0.6626
16429TIP3    H270779   5.135   4.950   4.262  0.0982  0.9188  0.3810
16430TIP3   OH270780   3.630   4.134  13.552 -0.4334 -0.1449 -0.2131
16430TIP3    H170781   3.637   4.142  13.647 -1.2243  0.2138 -0.1855
16430TIP3    H270782   3.537   4.123  13.535 -0.2293 -0.8192 -0.9036
16431TIP3   OH270783   0.560   2.247   0.346  0.1334  0.1311 -0.1154
16431TIP3    H170784   0.625   2.190   0.305 -2.4326 -3.3156  0.3595
16431TIP3    H270785   0.481   2.236   0.293 -2.1686 -1.5315  3.4380
16432TIP3   OH270786   1.711   3.635   5.739  0.0914  0.5161 -0.4318
16432TIP3    H170787   1.709   3.716   5.789 -2.1754  0.4373 -0.3460
16432TIP3    H270788   1.655   3.651   5.663  1.2874 -0.2813 -1.5004
16433TIP3   OH270789   4.079   5.052  10.882  0.0314 -0.5358  0.1154
16433TIP3    H170790   4.124   5.043  10.798 -2.3411 -3.3934 -0.9526
16433TIP3    H270791   3.997   5.096  10.860 -0.1226 -0.3140  1.1246
16434TIP3   OH270792   3.538   3.911   4.346  0.0823 -0.3920  0.0584
16434TIP3    H170793   3.576   3.844   4.291 -0.7638 -0.0107 -1.0064
16434TIP3    H270794   3.602   3.982   4.347  0.4645 -0.7409  0.2504
16435TIP3   OH270795   2.715   3.715   4.898 -0.2519 -0.1658  0.1236
16435TIP3    H170796   2.640   3.725   4.840  0.0926 -0.5789 -0.3951
16435TIP3    H270797   2.757   3.801   4.898 -0.1022 -0.2368 -0.4519
16436TIP3   OH270798   0.951   3.511  12.786 -0.5472  1.6808  0.0472
16436TIP3    H170799   0.870   3.560  12.801 -0.6420  1.6500 -0.3664
16436TIP3    H270800   0.925   3.438  12.730 -0.6109  0.5754  1.4955
16437TIP3   OH270801   0.076   0.279   5.374  0.3478  0.2233 -0.1154
16437TIP3    H170802  -0.009   0.234   5.370  0.4953 -0.0711  0.0921
16437TIP3    H270803   0.110   0.273   5.285  0.7380 -0.7866  0.0977
16438TIP3   OH270804   6.124   1.990   1.348 -0.2624  0.2306  0.4729
16438TIP3    H170805   6.146   1.939   1.270 -1.9716 -0.2537  0.2828
16438TIP3    H270806   6.190   1.964   1.412  2.1786  1.8827 -1.2855
16439TIP3   OH270807   4.249   5.176  11.072 -0.0395  0.1292  0.2257
16439TIP3    H170808   4.185   5.132  11.016 -1.1576  2.7487 -0.6215
16439TIP3    H270809   4.325   5.189  11.014  0.8021 -1.7835  0.8516
16440TIP3   OH270810   1.785   4.610  13.538 -0.4200  0.3185 -0.5788
16440TIP3    H170811   1.880   4.622  13.548 -0.1910 -1.6905  0.0470
16440TIP3    H270812   1.775   4.561  13.457 -0.7830 -0.8422  0.1476
16441TIP3   OH270813   1.216   6.162  16.218  0.1585  0.0236  0.2427
16441TIP3    H170814   1.127   6.157  16.185 -0.6189  1.2740  2.0545
16441TIP3    H270815   1.214   6.114  16.301  1.2256 -0.1343  0.1905
16442TIP3   OH270816   4.223   6.090   5.689  0.6301 -0.1127  0.4389
16442TIP3    H170817   4.231   6.135   5.773 -1.1312  0.6755  0.2109
16442TIP3    H270818   4.142   6.125   5.651  0.7717 -1.3520 -1.0377
16443TIP3   OH270819   5.060   4.118  16.424  0.3411 -0.9886  0.7391
16443TIP3    H170820   4.992   4.174  16.460  1.1650 -0.1745  1.0397
16443TIP3    H270821   5.013   4.040  16.394 -1.1189  0.7029 -1.5922
16444TIP3   OH270822   5.425   5.158   4.459  0.4883  0.6595 -0.4620
16444TIP3    H170823   5.375   5.089   4.503 -0.1725 -0.3748 -2.7632
16444TIP3    H270824   5.406   5.237   4.510 -0.7225 -0.3807  0.7514
16445TIP3   OH270825   3.719   4.638  12.805  0.2064 -0.2326  0.5198
16445TIP3    H170826   3.697   4.712  12.861 -0.2635  0.5486 -0.6921
16445TIP3    H270827   3.786   4.590  12.854 -0.2382  0.4081  1.7739
16446TIP3   OH270828   2.182   6.549   2.486 -0.3345  0.2296  0.4699
16446TIP3    H170829   2.195   6.606   2.562 -0.1983  0.0797  0.5609
16446TIP3    H270830   2.090   6.559   2.463 -0.6959 -0.7353  1.4650
16447TIP3   OH270831   2.617   4.816   3.947  0.4837  0.2189  0.1476
16447TIP3    H170832   2.663   4.735   3.970  1.0199  0.7242  0.8522
16447TIP3    H270833   2.598   4.858   4.031 -0.6625  0.3525 -0.1666
16448TIP3   OH270834   5.980   0.804   1.449 -0.2145 -0.0780  0.5710
16448TIP3    H170835   5.912   0.761   1.397  0.7147 -1.0104  0.1085
16448TIP3    H270836   5.933   0.870   1.500 -1.6122 -1.3420  0.9629
16449TIP3   OH270837   3.517   0.277   5.689 -0.3626 -0.0955  0.0291
16449TIP3    H170838   3.495   0.278   5.782 -0.3099  0.6291  0.0338
16449TIP3    H270839   3.543   0.367   5.669  1.3241 -0.6237 -0.2759
16450TIP3   OH270840   2.195   4.271   3.743 -0.2435  0.1528 -0.1716
16450TIP3    H170841   2.163   4.277   3.833  0.7594  0.5955  0.1539
16450TIP3    H270842   2.147   4.197   3.706 -1.3026  0.5035  0.4588
16451TIP3   OH270843   4.708   5.365   3.759  0.8524 -0.0449  0.2714
16451TIP3    H170844   4.706   5.282   3.712  0.4272  1.3093 -2.2232
16451TIP3    H270845   4.616   5.389   3.770  0.9813  1.0368 -0.8370
16452TIP3   OH270846   4.691   5.621  13.960  0.1179  0.1656  0.1594
16452TIP3    H170847   4.673   5.532  13.928  0.6001  0.2177 -0.2719
16452TIP3    H270848   4.607   5.653  13.990 -0.0444 -0.4753  0.4048
16453TIP3   OH270849   1.277   5.524  11.237 -0.4900 -0.3397  0.2506
16453TIP3    H170850   1.199   5.471  11.217 -1.0936  0.7781 -0.4391
16453TIP3    H270851   1.327   5.471  11.299 -0.8814 -1.8971 -0.7205
16454TIP3   OH270852   3.956   5.964   0.802  0.0225 -0.2355  0.4656
16454TIP3    H170853   4.023   5.989   0.866 -0.7360  0.6489  0.9196
16454TIP3    H270854   3.934   6.045   0.757 -1.5268 -0.2934  1.0738
16455TIP3   OH270855   6.465   0.107   5.644 -0.0979  0.2476  0.6501
16455TIP3    H170856   6.544   0.161   5.653  0.4073 -0.2728 -0.5909
16455TIP3    H270857   6.433   0.096   5.733  1.0893  0.6811  1.1329
16456TIP3   OH270858   4.670   0.931  12.749  0.2436 -0.1486 -0.1613
16456TIP3    H170859   4.631   0.895  12.669 -0.1913 -1.6397  0.7015
16456TIP3    H270860   4.602   0.987  12.785  0.6576  1.0052 -1.1294
16457TIP3   OH270861   2.742   1.146  13.774 -1.0697 -0.0859 -0.3957
16457TIP3    H170862   2.714   1.208  13.841 -2.0537 -0.2644 -0.6319
16457TIP3    H270863   2.761   1.199  13.698  1.3131  0.2531  0.4005
16458TIP3   OH270864   6.423   2.028  16.918 -0.1372 -0.1135  0.0733
16458TIP3    H170865   6.492   2.079  16.877  0.4992 -0.8359  0.2354
16458TIP3    H270866   6.411   2.069  17.004  1.7690 -1.4328  1.0075
16459TIP3   OH270867   6.264   6.228   4.047 -0.1685 -0.2373 -0.8623
16459TIP3    H170868   6.191   6.171   4.021  1.4765 -1.8849 -1.9698
16459TIP3    H270869   6.325   6.224   3.973  1.0830  1.0961  0.0742
16460TIP3   OH270870   2.313   3.229   6.356  0.3742  0.0721  0.4661
16460TIP3    H170871   2.355   3.268   6.279  2.3639 -0.8930  1.0268
16460TIP3    H270872   2.316   3.298   6.422 -1.2689  0.8779 -0.2718
16461TIP3   OH270873   3.918   2.901   5.086  0.2910  0.1156  0.1246
16461TIP3    H170874   3.956   2.825   5.129 -1.4784 -0.2001  1.1974
16461TIP3    H270875   3.841   2.923   5.139 -2.3312 -0.6470 -3.1604
16462TIP3   OH270876   3.387   5.604  16.403 -0.1568  0.0081  0.4805
16462TIP3    H170877   3.460   5.642  16.354 -0.6671  1.3161  0.7049
16462TIP3    H270878   3.401   5.509  16.398  0.8416  0.2004 -0.5624
16463TIP3   OH270879   4.518   5.172   4.231  0.4789 -0.0168  0.2533
16463TIP3    H170880   4.456   5.139   4.166 -0.7751  2.1796  0.2654
16463TIP3    H270881   4.584   5.219   4.180 -1.5751  3.4140  0.5795
16464TIP3   OH270882   5.445   1.676  12.272 -0.0609  0.6026  0.1455
16464TIP3    H170883   5.540   1.670  12.272 -0.0078  1.0359 -1.6239
16464TIP3    H270884   5.420   1.677  12.364  1.6569  0.6610  0.6165
16465TIP3   OH270885   1.617   5.707   2.326  0.4033  0.4250 -0.2150
16465TIP3    H170886   1.635   5.768   2.397  0.8574  0.9175 -0.7500
16465TIP3    H270887   1.660   5.626   2.352 -0.5198  0.2144  0.6753
16466TIP3   OH270888   1.039   0.900   6.005  0.0925  0.1717  0.3134
16466TIP3    H170889   0.946   0.911   5.990  0.1521 -0.0274 -0.2254
16466TIP3    H270890   1.049   0.807   6.026 -0.3011  0.9246  4.0059
16467TIP3   OH270891   6.126   4.913  15.282 -0.4939 -0.1450 -0.3272
16467TIP3    H170892   6.133   4.964  15.362 -0.3023 -0.0733 -0.3871
16467TIP3    H270893   6.050   4.857  15.295  1.2286 -2.2435  1.0929
16468TIP3   OH270894   5.316   2.851   3.114  0.1773 -0.1282 -0.1743
16468TIP3    H170895   5.229   2.814   3.130  1.5021 -3.1028  0.4201
16468TIP3    H270896   5.324   2.852   3.018 -0.8361  1.0305 -0.2638
16469TIP3   OH270897   5.728   0.702   1.960  0.5635  0.1585  0.2231
16469TIP3    H170898   5.660   0.735   2.018  2.8488  1.9708  1.9452
16469TIP3    H270899   5.746   0.614   1.993  0.2050  0.2910  0.7886
16470TIP3   OH270900   0.539   4.231  16.970  0.4374 -0.2578  0.0735
16470TIP3    H170901   0.548   4.321  16.941  1.2212 -0.4314 -0.2548
16470TIP3    H270902   0.560   4.233  17.063  1.4090 -0.2409 -0.1366
16471TIP3   OH270903   2.541   6.385  13.814 -0.0633 -0.0140 -0.0073
16471TIP3    H170904   2.576   6.360  13.899 -0.5809 -1.7660 -0.2769
16471TIP3    H270905   2.446   6.385  13.827 -0.1034  1.0359 -0.2480
16472TIP3   OH270906   6.557   4.354   4.632  0.3064 -0.3921  0.9403
16472TIP3    H170907   6.606   4.388   4.557  0.3099 -1.9930  0.2022
16472TIP3    H270908   6.617   4.365   4.706  1.4621 -1.4751  0.2009
16473TIP3   OH270909   4.254   1.400  14.775  0.4088 -0.4873 -0.6715
16473TIP3    H170910   4.174   1.404  14.722  0.7000 -1.2722 -1.1694
16473TIP3    H270911   4.251   1.479  14.828  0.0788  0.2848 -1.8188
16474TIP3   OH270912   2.455   1.700   0.407  0.5261 -0.2865 -0.6678
16474TIP3    H170913   2.406   1.620   0.426 -0.2651 -0.1877 -2.1490
16474TIP3    H270914   2.391   1.757   0.363  1.4849  0.5723 -0.9704
16475TIP3   OH270915   3.436   2.628  14.376 -0.5561  0.9495 -0.3652
16475TIP3    H170916   3.504   2.603  14.314 -1.8131  1.5463 -2.0089
16475TIP3    H270917   3.412   2.717  14.352 -0.5703  1.4674  1.4383
16476TIP3   OH270918   4.641   0.723   3.460  0.0391 -0.2602 -0.4448
16476TIP3    H170919   4.568   0.704   3.519  0.1835  0.9716  0.1383
16476TIP3    H270920   4.602   0.777   3.390  0.7018  1.7870  0.7331
16477TIP3   OH270921   5.190   5.034   0.129 -0.6792  0.2755 -0.2401
16477TIP3    H170922   5.193   4.962   0.192 -0.7144  0.0574 -0.4823
16477TIP3    H270923   5.097   5.057   0.123 -0.6499  0.4409 -0.0503
16478TIP3   OH270924   3.456   6.677   4.527 -0.6262  0.4388 -0.0713
16478TIP3    H170925   3.504   6.651   4.606  0.3985 -1.5507 -1.3302
16478TIP3    H270926   3.520   6.672   4.457 -2.7156 -2.8161 -1.8894
16479TIP3   OH270927   0.139   2.416  13.860  0.8326 -0.5455 -0.0544
16479TIP3    H170928   0.091   2.355  13.917  1.1764 -1.0791 -0.3227
16479TIP3    H270929   0.197   2.359  13.809  1.5794  0.0661  0.1024
16480TIP3   OH270930   0.316   0.624  15.278  0.0922 -0.1793  0.6245
16480TIP3    H170931   0.319   0.578  15.362  1.2734 -1.8896 -0.3214
16480TIP3    H270932   0.322   0.717  15.301 -3.4136 -0.3792  2.6315
16481TIP3   OH270933   6.696   5.271   1.256 -0.5839 -0.0219  0.5317
16481TIP3    H170934   6.731   5.216   1.186 -1.7755 -1.0196  0.7067
16481TIP3    H270935   6.765   5.273   1.322  0.4820  0.7837 -0.5719
16482TIP3   OH270936   2.323   6.141   3.550 -0.1771 -0.3424  0.1576
16482TIP3    H170937   2.333   6.113   3.641 -0.8748 -1.0731  0.0198
16482TIP3    H270938   2.258   6.211   3.554  0.9793  0.7299  0.4074
16483TIP3   OH270939   6.065   6.414  16.623 -0.4425 -0.2313  0.7207
16483TIP3    H170940   6.096   6.477  16.687 -0.3269  0.4157  0.0320
16483TIP3    H270941   6.105   6.441  16.540  0.2897 -1.6979  0.5721
16484TIP3   OH270942   2.830   3.838  12.148  0.2521 -0.1110  0.3280
16484TIP3    H170943   2.814   3.847  12.055 -0.6163 -2.3879  0.2237
16484TIP3    H270944   2.904   3.777  12.155  2.5049  2.5560  1.0915
16485TIP3   OH270945   3.804   1.227  16.761 -0.8341 -0.1793  0.2424
16485TIP3    H170946   3.814   1.226  16.666  0.1910  0.4490  0.3343
16485TIP3    H270947   3.856   1.152  16.791 -1.5023 -0.6321  0.2867
16486TIP3   OH270948   5.620   4.681   2.934 -0.2342 -0.0580 -0.5513
16486TIP3    H170949   5.697   4.654   2.985  0.4948  0.5958 -1.2935
16486TIP3    H270950   5.546   4.652   2.986  0.4941  0.7496  0.9745
16487TIP3   OH270951   0.938   2.162   4.400  0.0135 -0.0302 -0.3632
16487TIP3    H170952   0.975   2.124   4.480  0.3233 -1.8297 -1.3319
16487TIP3    H270953   1.004   2.146   4.333  0.1842  2.3316 -0.8042
16488TIP3   OH270954   5.758   6.723  14.180  0.5083 -0.6148  0.5385
16488TIP3    H170955   5.828   6.685  14.234  2.1928  3.4452  1.3597
16488TIP3    H270956   5.679   6.713  14.234  1.0447 -2.0700  1.0928
16489TIP3   OH270957   0.334   3.976  12.935 -0.3982 -0.1249  0.2236
16489TIP3    H170958   0.290   3.923  13.001 -1.1874  0.7831  0.4503
16489TIP3    H270959   0.346   4.062  12.977 -0.2814  0.2500 -0.5616
16490TIP3   OH270960   4.690   5.731   3.881  0.5055 -0.3498 -0.3941
16490TIP3    H170961   4.612   5.687   3.849 -0.1928  0.0644  0.7125
16490TIP3    H270962   4.737   5.663   3.931  0.1586 -0.2210  0.1026
16491TIP3   OH270963   2.920   0.205  11.552 -0.4221 -0.0624 -0.0629
16491TIP3    H170964   2.831   0.200  11.587 -0.0220  0.2570  1.0215
16491TIP3    H270965   2.947   0.295  11.571 -0.4189  0.3169 -1.7664
16492TIP3   OH270966   5.111   0.257   4.884  0.5017 -0.0139  0.0625
16492TIP3    H170967   5.135   0.347   4.862  0.6308 -0.2167 -0.6345
16492TIP3    H270968   5.016   0.255   4.879  0.5743 -0.2449 -1.1885
16493TIP3   OH270969   4.551   5.811   2.235  0.5042 -0.1369 -0.0359
16493TIP3    H170970   4.637   5.854   2.233 -0.2845  1.4753  0.4777
16493TIP3    H270971   4.529   5.805   2.328 -0.1284 -0.1638 -0.1847
16494TIP3   OH270972   4.308   0.293   2.042  0.5478  0.2036  0.7022
16494TIP3    H170973   4.304   0.230   2.114 -2.4136 -0.5912 -0.0653
16494TIP3    H270974   4.269   0.373   2.078  0.6060  0.3304  0.4854
16495TIP3   OH270975   1.625   1.006  15.524  0.0478  0.2342 -0.1182
16495TIP3    H170976   1.685   0.942  15.484  1.6247  1.0979  0.7963
16495TIP3    H270977   1.562   1.026  15.455  0.9065 -0.5884 -1.1677
16496TIP3   OH270978   4.028   2.231   2.313  0.0843  0.0712 -0.4262
16496TIP3    H170979   3.998   2.144   2.286  2.6151 -1.4840  1.4646
16496TIP3    H270980   3.963   2.259   2.379  2.2877 -3.0563  3.3235
16497TIP3   OH270981   1.985   4.029   1.714  0.1875  0.0922  0.1372
16497TIP3    H170982   1.942   3.945   1.731 -0.7918  0.5494 -0.0538
16497TIP3    H270983   1.934   4.093   1.763  2.4565  0.2640  2.3838
16498TIP3   OH270984   2.064   3.590   3.856  0.0714 -0.5264 -0.4090
16498TIP3    H170985   1.994   3.647   3.887  0.2122 -0.0574 -0.9528
16498TIP3    H270986   2.022   3.533   3.791 -0.5789 -2.5449  1.6970
16499TIP3   OH270987   4.838   6.203   0.525  0.2230 -0.3079 -0.6310
16499TIP3    H170988   4.873   6.139   0.463  0.9126  0.5866 -1.1662
16499TIP3    H270989   4.762   6.159   0.565 -0.0579 -0.9871 -1.8969
16500TIP3   OH270990   4.521   3.576   6.278  0.3576 -0.3117  0.3308
16500TIP3    H170991   4.537   3.513   6.348  1.5402  0.9884  1.2798
16500TIP3    H270992   4.453   3.634   6.313  0.8982  0.2965  0.3887
16501TIP3   OH270993   1.863   0.796  16.490 -0.3425  0.2666 -0.3014
16501TIP3    H170994   1.821   0.801  16.404 -0.3722 -1.6818 -0.4012
16501TIP3    H270995   1.812   0.731  16.538  0.6648  0.1577  0.6449
16502TIP3   OH270996   0.257   3.646  15.531  0.5565  0.1165 -0.4864
16502TIP3    H170997   0.166   3.625  15.553  0.2624  0.7382 -1.0894
16502TIP3    H270998   0.299   3.560  15.519 -0.2601 -0.1665 -1.4354
16503TIP3   OH270999   1.041   3.116   6.242  0.3274  0.1188 -0.1684
16503TIP3    H171000   1.044   3.205   6.276  0.1406  0.6895 -1.6584
16503TIP3    H271001   1.031   3.062   6.321  2.9737  1.2119  1.0105
16504TIP3   OH271002   1.352   2.657  11.997  0.4003 -0.8064 -0.2570
16504TIP3    H171003   1.402   2.589  12.043  1.5102  0.6126  0.6854
16504TIP3    H271004   1.419   2.718  11.964 -0.5594 -0.3126 -1.3403
16505TIP3   OH271005   1.768   5.456   5.227 -0.2842 -0.1352  0.1600
16505TIP3    H171006   1.758   5.428   5.318 -0.7555  1.2595  0.5499
16505TIP3    H271007   1.844   5.514   5.228 -0.8673  0.6332 -0.1604
16506TIP3   OH271008   2.876   2.502   4.932 -0.0309 -0.0846  1.0405
16506TIP3    H171009   2.942   2.563   4.899 -0.1138 -0.1138  0.8228
16506TIP3    H271010   2.811   2.497   4.863 -0.3955  0.1495  1.3645
16507TIP3   OH271011   2.010   0.814   1.926 -0.8420  0.4318  0.3104
16507TIP3    H171012   2.038   0.874   1.856  1.1023 -2.1290 -1.2120
16507TIP3    H271013   2.019   0.865   2.006  1.8485  1.8814 -0.8269
16508TIP3   OH271014   1.361   0.283  14.427  0.0907 -0.8138 -0.1074
16508TIP3    H171015   1.429   0.333  14.474 -0.8574  2.0472 -1.6453
16508TIP3    H271016   1.333   0.216  14.489  0.4889  1.4089  2.5686
16509TIP3   OH271017   2.218   3.008   1.437  0.0549 -0.2141 -0.5145
16509TIP3    H171018   2.281   3.066   1.478  0.2158  0.3888 -1.5812
16509TIP3    H271019   2.232   2.923   1.478  2.2128 -0.3120 -1.3949
16510TIP3   OH271020   5.157   6.218   3.242  0.5043 -0.6262 -0.1482
16510TIP3    H171021   5.112   6.248   3.321  1.3233  1.3711 -0.3944
16510TIP3    H271022   5.238   6.177   3.273  0.3877 -0.6608  0.1015
16511TIP3   OH271023   1.934   2.856  15.729  0.4283  0.2900  0.1462
16511TIP3    H171024   1.920   2.791  15.798 -1.2854 -0.6717 -1.1032
16511TIP3    H271025   1.870   2.925  15.747 -0.5602 -0.3432 -0.9604
16512TIP3   OH271026   4.340   1.156   3.575  0.0473  0.0135 -0.0716
16512TIP3    H171027   4.248   1.172   3.595 -0.0368  0.4735 -0.7856
16512TIP3    H271028   4.372   1.240   3.541  0.9173  0.0638  0.8518
16513TIP3   OH271029   3.385   5.342   0.486  0.2936 -0.1393 -0.1757
16513TIP3    H171030   3.299   5.350   0.443  0.8745  0.4169 -1.2586
16513TIP3    H271031   3.387   5.251   0.517 -0.9219  0.0134  0.3867
16514TIP3   OH271032   1.797   0.608   4.326 -0.2952 -0.1968 -0.3818
16514TIP3    H171033   1.762   0.690   4.291  0.9228  1.0435  1.1905
16514TIP3    H271034   1.892   0.622   4.330 -0.1082 -1.5562  0.2269
16515TIP3   OH271035   5.519   5.910  14.337 -0.1209 -0.7481  0.3706
16515TIP3    H171036   5.435   5.865  14.345 -1.0087  1.0665  1.4871
16515TIP3    H271037   5.579   5.843  14.303 -2.2847 -1.7255 -1.6508
16516TIP3   OH271038   6.473   6.569   0.812 -0.3915  0.0527  0.6818
16516TIP3    H171039   6.539   6.607   0.753 -0.2015  0.1280  0.9389
16516TIP3    H271040   6.472   6.476   0.789 -1.1263  0.2829 -0.2014
16517TIP3   OH271041   4.093   2.324   2.972 -0.1279  0.1211 -0.1366
16517TIP3    H171042   4.090   2.331   3.067 -0.0930 -4.7990  0.3526
16517TIP3    H271043   4.182   2.352   2.949 -0.1549  1.4045  1.2627
16518TIP3   OH271044   6.371   2.842  17.090 -0.3140 -0.4868  0.4575
16518TIP3    H171045   6.451   2.866  17.137 -0.3626 -0.9098  0.7651
16518TIP3    H271046   6.330   2.775  17.146 -0.8708 -0.2873  0.2897
16519TIP3   OH271047   0.803   3.171  14.955 -0.0820 -0.3321 -0.6393
16519TIP3    H171048   0.771   3.115  15.025  0.6338 -0.6695 -0.5733
16519TIP3    H271049   0.889   3.201  14.986  0.3831 -0.7480 -1.5052
16520TIP3   OH271050   2.577   3.316  14.986  0.0415  0.3469  0.5557
16520TIP3    H171051   2.510   3.251  14.967  1.2010 -0.5672 -0.5491
16520TIP3    H271052   2.529   3.391  15.020 -1.3053 -1.1737  2.1199
16521TIP3   OH271053   0.600   6.621   2.438  0.1262 -0.2180  0.0177
16521TIP3    H171054   0.610   6.677   2.360  1.0329 -1.2292 -0.6029
16521TIP3    H271055   0.673   6.559   2.433  0.7584  0.3054  2.1978
16522TIP3   OH271056   0.593   1.613  14.535 -0.9548  0.0513  0.0870
16522TIP3    H171057   0.680   1.638  14.506 -1.0840 -0.7260 -0.9794
16522TIP3    H271058   0.599   1.611  14.631  0.2809 -0.3588  0.0041
16523TIP3   OH271059   0.780   1.208   2.089 -0.1312  0.1651  0.1237
16523TIP3    H171060   0.716   1.145   2.122 -0.5806  0.0685 -0.9069
16523TIP3    H271061   0.835   1.228   2.165 -0.7518 -0.5207  0.7688
16524TIP3   OH271062   0.712   2.530   1.891 -0.2028 -0.0678 -0.2823
16524TIP3    H171063   0.689   2.438   1.873 -0.1974 -0.0019 -0.6291
16524TIP3    H271064   0.763   2.526   1.972 -0.8982 -0.2841  0.1476
16525TIP3   OH271065   4.104   3.897   4.393  0.2330 -0.7031  0.1913
16525TIP3    H171066   4.012   3.918   4.408  0.4636 -0.4647  1.3264
16525TIP3    H271067   4.146   3.916   4.476  1.4015 -0.3157 -0.4810
16526TIP3   OH271068   0.632   4.182   3.936  0.7625 -0.0115  0.1239
16526TIP3    H171069   0.668   4.113   3.992  0.0185  0.6337  1.4081
16526TIP3    H271070   0.576   4.233   3.993 -1.7101 -0.5951 -1.6814
16527TIP3   OH271071   1.770   3.858   5.887  1.0844 -0.0820 -0.1897
16527TIP3    H171072   1.709   3.903   5.945  1.2585 -2.7500  2.1798
16527TIP3    H271073   1.850   3.911   5.890  1.0820 -0.1602  2.0406
16528TIP3   OH271074   3.374   1.145  12.762 -0.2858 -0.0178 -0.2607
16528TIP3    H171075   3.407   1.056  12.773  1.1893  0.5559  0.1030
16528TIP3    H271076   3.442   1.201  12.799 -1.0040  1.2886 -0.8527
16529TIP3   OH271077   0.043   5.079   2.391 -0.1669 -0.2660  0.0954
16529TIP3    H171078   0.014   5.143   2.326 -0.8674 -0.9495 -0.2703
16529TIP3    H271079   0.015   5.116   2.475  1.4203  0.9916  0.0977
16530TIP3   OH271080   0.634   4.967  12.205 -0.2108 -0.1550 -0.1141
16530TIP3    H171081   0.672   5.047  12.241  1.2205 -0.5973 -0.5677
16530TIP3    H271082   0.545   4.991  12.180  0.1475  1.2452 -0.0843
16531TIP3   OH271083   6.764   2.039   0.382 -0.4837  0.1183  0.5293
16531TIP3    H171084   6.836   2.048   0.443 -0.8549  1.2791  0.8023
16531TIP3    H271085   6.686   2.034   0.438 -0.7484  0.3173  0.1774
16532TIP3   OH271086   4.465   3.190  11.126  0.1530 -0.1574  0.5401
16532TIP3    H171087   4.429   3.190  11.037 -2.7870 -3.5630  1.6129
16532TIP3    H271088   4.442   3.276  11.162 -0.4830  0.4544 -1.2759
16533TIP3   OH271089   2.788   0.305   0.125  0.3836  0.4507 -0.5755
16533TIP3    H171090   2.838   0.352   0.193  0.1075  1.8838 -1.3464
16533TIP3    H271091   2.853   0.282   0.059  0.2438  1.1793 -0.9671
16534TIP3   OH271092   5.429   3.815  15.614  0.1296 -0.4342  0.9088
16534TIP3    H171093   5.370   3.847  15.683  0.1980  0.5242  0.5361
16534TIP3    H271094   5.492   3.760  15.660 -0.2084 -0.3133  1.5239
16535TIP3   OH271095   1.934   4.372  14.304 -0.4841 -0.0743  0.3745
16535TIP3    H171096   1.955   4.282  14.278 -0.9294  0.3830 -1.6374
16535TIP3    H271097   1.858   4.395  14.251  1.4593  2.5452 -1.3922
16536TIP3   OH271098   2.129   6.468  12.921 -0.3154 -0.2443 -0.5030
16536TIP3    H171099   2.177   6.385  12.920  1.0796  0.5466 -1.3533
16536TIP3    H271100   2.169   6.518  12.992  0.2740  0.5085 -1.3661
16537TIP3   OH271101   1.088   5.643  14.012  0.4895  0.1543 -0.0439
16537TIP3    H171102   1.083   5.555  14.048 -0.4213  0.3793  0.3991
16537TIP3    H271103   1.065   5.633  13.920 -1.1016  0.1424  0.3536
16538TIP3   OH271104   4.219   2.836  12.119  0.5525 -0.2211 -0.1559
16538TIP3    H171105   4.201   2.914  12.171 -1.3068 -1.3960  1.0218
16538TIP3    H271106   4.176   2.765  12.166  0.9348 -1.7226 -1.9947
16539TIP3   OH271107   2.822   5.699  16.834  0.1311 -0.1261  0.1023
16539TIP3    H171108   2.815   5.691  16.739  2.2734  0.2882 -0.1241
16539TIP3    H271109   2.917   5.701  16.851 -0.2233  0.2457  2.2002
16540TIP3   OH271110   2.990   0.458   0.285  0.0660  0.0273  0.5601
16540TIP3    H171111   2.929   0.487   0.352  1.1358 -2.2952  2.6223
16540TIP3    H271112   3.076   0.466   0.327  0.7116 -1.8416 -0.3607
16541TIP3   OH271113   6.446   4.115   3.854 -0.4211  0.0760 -0.3774
16541TIP3    H171114   6.394   4.177   3.802 -2.9473  0.5356  2.5518
16541TIP3    H271115   6.401   4.031   3.842 -0.5446  0.0305  0.3975
16542TIP3   OH271116   1.177   2.563   4.168  0.2417  0.6551 -0.6238
16542TIP3    H171117   1.165   2.488   4.110  0.3569  0.4988 -0.4480
16542TIP3    H271118   1.241   2.618   4.124 -2.9492  2.7764 -2.8232
16543TIP3   OH271119   2.473   5.269   2.595  0.4126 -0.0941 -0.0325
16543TIP3    H171120   2.508   5.195   2.644 -0.4164 -0.7246 -0.3723
16543TIP3    H271121   2.549   5.323   2.574  1.0187 -0.8458  0.2271
16544TIP3   OH271122   2.677   6.541  12.164 -0.2182 -0.3809  0.1416
16544TIP3    H171123   2.750   6.509  12.111  0.0247  0.5898 -0.1240
16544TIP3    H271124   2.613   6.470  12.162  0.3171 -0.8555 -0.4206
16545TIP3   OH271125   5.223   3.558  15.928 -0.4353 -0.1907 -0.1754
16545TIP3    H171126   5.149   3.536  15.985 -1.0043  0.2568 -0.7403
16545TIP3    H271127   5.227   3.486  15.865 -0.2550 -0.3167 -0.0238
16546TIP3   OH271128   2.507   2.510   5.371 -0.4617  0.0019  0.0437
16546TIP3    H171129   2.531   2.601   5.387  0.5550  0.1204 -2.0458
16546TIP3    H271130   2.505   2.501   5.276 -1.1830 -2.0026  0.2135
16547TIP3   OH271131   2.706   0.150   4.018 -0.5182  0.4477  0.3663
16547TIP3    H171132   2.734   0.229   3.971 -0.7522  1.6513  2.1862
16547TIP3    H271133   2.688   0.181   4.107 -3.3577 -1.1203  0.3926
16548TIP3   OH271134   5.678   2.589  14.033  0.0222  0.8071  0.0485
16548TIP3    H171135   5.686   2.683  14.018 -0.8997  0.6079 -1.8143
16548TIP3    H271136   5.586   2.578  14.057 -0.4503  0.0985 -2.0246
16549TIP3   OH271137   2.767   3.046  12.902  0.0690  0.1575 -0.3195
16549TIP3    H171138   2.707   3.117  12.924 -1.0620 -0.4171 -1.5178
16549TIP3    H271139   2.748   2.977  12.965 -1.0156 -0.2906 -1.1320
16550TIP3   OH271140   1.477   2.798   4.323  0.1011 -0.6006 -0.2762
16550TIP3    H171141   1.486   2.703   4.324 -0.1844 -0.6267 -0.0740
16550TIP3    H271142   1.493   2.824   4.414  0.3617 -0.4409 -0.3700
16551TIP3   OH271143   3.691   4.037   0.828 -0.2061  0.6191  0.3671
16551TIP3    H171144   3.749   4.031   0.904 -0.4217 -1.7120  0.3884
16551TIP3    H271145   3.605   4.008   0.861 -0.5229  0.5430 -0.5091
16552TIP3   OH271146   6.302   3.181  12.107 -0.2937 -0.0837 -0.3169
16552TIP3    H171147   6.347   3.166  12.190  2.5315  2.8168 -1.2350
16552TIP3    H271148   6.230   3.241  12.129  0.7228  1.0389 -0.0278
16553TIP3   OH271149   1.539   4.605  10.702  0.5024  0.1380 -0.5027
16553TIP3    H171150   1.634   4.606  10.686  0.4516  1.6806 -0.7829
16553TIP3    H271151   1.509   4.691  10.672 -1.1882 -0.8137 -1.6015
16554TIP3   OH271152   3.993   4.698   3.436 -0.0934  0.1171 -0.7211
16554TIP3    H171153   4.059   4.744   3.488  1.0107 -2.7662  0.5307
16554TIP3    H271154   4.015   4.605   3.446 -2.2296 -0.7078 -3.1775
16555TIP3   OH271155   2.792   6.662   3.001 -0.1801  0.0512 -0.5103
16555TIP3    H171156   2.777   6.744   3.049  0.5271 -0.8432  1.2906
16555TIP3    H271157   2.749   6.676   2.916 -0.6179  2.0410  0.0034
16556TIP3   OH271158   3.632   6.116  12.567  0.0406  0.5262 -0.2775
16556TIP3    H171159   3.634   6.093  12.474  0.4927 -0.0453 -0.1305
16556TIP3    H271160   3.671   6.203  12.572 -1.7434  1.3796 -0.8503
16557TIP3   OH271161   0.811   4.567  15.959 -0.6622  0.8889  0.0734
16557TIP3    H171162   0.832   4.545  16.050  0.2782  2.1972  0.1772
16557TIP3    H271163   0.766   4.651  15.964 -0.2514  1.1600 -0.6980
16558TIP3   OH271164   6.582   1.492   5.797  0.5418  0.3676  0.4120
16558TIP3    H171165   6.525   1.463   5.725  0.8705  1.0632 -0.1385
16558TIP3    H271166   6.635   1.561   5.758 -0.0417  1.5161  1.6301
16559TIP3   OH271167   1.443   0.121  12.377 -0.7069  0.0421 -0.5980
16559TIP3    H171168   1.537   0.117  12.393 -0.5016  1.0426 -1.4636
16559TIP3    H271169   1.420   0.032  12.347  0.2306  0.1643 -1.7371
16560TIP3   OH271170   3.421   5.480  15.614  0.4848  0.2222  0.1046
16560TIP3    H171171   3.400   5.388  15.594  1.3856  0.1016 -0.3182
16560TIP3    H271172   3.441   5.519  15.529 -0.2642  0.9169  0.2382
16561TIP3   OH271173   0.851   5.225   2.212 -1.1287 -0.1823  0.1971
16561TIP3    H171174   0.882   5.148   2.165 -0.5799 -0.2374  0.6558
16561TIP3    H271175   0.866   5.297   2.151  0.5395 -0.1110  0.6878
16562TIP3   OH271176   4.991   1.908   0.442 -0.6143 -0.5464  0.4216
16562TIP3    H171177   5.007   1.996   0.408 -2.4528 -0.2673  0.2023
16562TIP3    H271178   5.014   1.850   0.369 -0.9230 -0.1575  0.0100
16563TIP3   OH271179   2.103   2.986   2.874 -0.0931 -0.8256  0.3427
16563TIP3    H171180   2.165   2.933   2.824 -1.6473 -2.3737  0.0093
16563TIP3    H271181   2.107   3.072   2.832 -0.1689 -1.6577 -1.4488
16564TIP3   OH271182   5.180   6.222   2.848  0.1110  0.4808 -0.4695
16564TIP3    H171183   5.186   6.139   2.802  1.1952  0.7679 -0.8578
16564TIP3    H271184   5.270   6.247   2.865 -0.2431  0.8231  1.0179
16565TIP3   OH271185   3.126   3.791   4.379 -0.5812  0.1861  0.0891
16565TIP3    H171186   3.155   3.868   4.330 -2.6006 -0.3643 -2.0513
16565TIP3    H271187   3.207   3.751   4.410  0.7124  1.2200 -1.8364
16566TIP3   OH271188   2.765   0.046   2.390  0.2267  0.0687 -0.6428
16566TIP3    H171189   2.860   0.042   2.376  0.0576  2.4987 -2.8714
16566TIP3    H271190   2.738  -0.046   2.399  2.8915 -0.6118  1.0369
16567TIP3   OH271191   1.054   2.303  16.656  0.0477  0.4121 -0.6996
16567TIP3    H171192   1.056   2.285  16.750 -0.5693  0.4789 -0.6691
16567TIP3    H271193   1.019   2.222  16.617  1.1651  0.0472 -0.9569
16568TIP3   OH271194   6.392   4.821  11.303  0.7196  0.1898 -0.3141
16568TIP3    H171195   6.324   4.865  11.253  0.7536  2.5400  1.6334
16568TIP3    H271196   6.377   4.847  11.393  3.4275 -0.2545  0.3208
16569TIP3   OH271197   0.203   5.425  15.529 -0.6247  0.1122  0.0286
16569TIP3    H171198   0.221   5.413  15.622 -1.3352 -0.5571  0.0855
16569TIP3    H271199   0.282   5.467  15.494 -0.1732 -0.0639  0.8372
16570TIP3   OH271200   6.672   4.802  11.292  0.6018 -0.2358 -0.4754
16570TIP3    H171201   6.578   4.817  11.289  0.8071  1.1445 -0.1484
16570TIP3    H271202   6.710   4.871  11.238  1.5088 -0.0322  0.3931
16571TIP3   OH271203   5.169   5.939   4.096  0.2527  0.7269 -0.1932
16571TIP3    H171204   5.227   5.996   4.147 -0.5182  1.0782  0.3058
16571TIP3    H271205   5.123   5.887   4.162  1.8407 -1.3769 -0.6806
16572TIP3   OH271206   0.262   5.406  12.693  0.1309  0.2250  0.9839
16572TIP3    H171207   0.178   5.429  12.653  0.4360 -1.3953 -0.6743
16572TIP3    H271208   0.251   5.315  12.721  1.0155  0.3144  1.6411
16573TIP3   OH271209   5.638   2.673   1.665  0.4100 -0.5085 -0.3163
16573TIP3    H171210   5.594   2.700   1.585 -0.6797 -0.8863  0.1489
16573TIP3    H271211   5.712   2.620   1.634 -0.1386 -0.8486 -1.0646
16574TIP3   OH271212   3.636   2.238   0.587  0.1877 -0.4528  0.6516
16574TIP3    H171213   3.632   2.334   0.591  0.6081 -0.4109  0.0991
16574TIP3    H271214   3.596   2.216   0.503  0.2702 -0.7497  0.6909
16575TIP3   OH271215   2.211   4.433  14.748  0.2185 -0.5586 -0.2149
16575TIP3    H171216   2.215   4.417  14.653 -0.6966  0.0366 -0.3589
16575TIP3    H271217   2.133   4.386  14.776  1.1422 -1.7232  0.4590
16576TIP3   OH271218   2.992   4.504   2.066 -0.0869  0.4187 -0.4155
16576TIP3    H171219   3.084   4.511   2.039  0.2968 -0.1104  0.7128
16576TIP3    H271220   2.946   4.473   1.988  0.5692  1.4256 -1.2102
16577TIP3   OH271221   4.620   5.445   4.174  0.5874 -0.1828 -0.1931
16577TIP3    H171222   4.704   5.474   4.210 -0.0230  0.3575  0.8166
16577TIP3    H271223   4.559   5.515   4.196 -0.5686 -1.4900  0.8954
16578TIP3   OH271224   4.249   6.616   3.519 -0.6148 -0.4260  0.4607
16578TIP3    H171225   4.312   6.686   3.498  1.0872 -1.5002  1.8738
16578TIP3    H271226   4.167   6.663   3.536  0.7639  1.3709  2.5238
16579TIP3   OH271227   5.016   4.440   5.538 -0.8434 -0.0467 -0.4496
16579TIP3    H171228   4.926   4.440   5.505 -0.4508  1.3855 -1.5947
16579TIP3    H271229   5.063   4.381   5.480 -0.9548 -0.4270 -0.1480
16580TIP3   OH271230   2.755   6.004  10.914  0.2140  0.3764 -0.5556
16580TIP3    H171231   2.692   5.999  10.843 -0.3238 -0.2926 -0.0316
16580TIP3    H271232   2.779   5.913  10.932  1.8119  0.6452 -1.1756
16581TIP3   OH271233   5.428   1.256   3.114 -0.6917  0.2629 -0.1622
16581TIP3    H171234   5.429   1.178   3.169  0.5527  0.6864  0.4350
16581TIP3    H271235   5.392   1.325   3.171 -2.2912  0.0107 -0.8531
16582TIP3   OH271236   4.229   0.764  14.199  0.3949  0.3090  0.3622
16582TIP3    H171237   4.323   0.774  14.188  0.3475  0.0684 -0.3346
16582TIP3    H271238   4.216   0.669  14.202  0.0410  0.2973 -0.9474
16583TIP3   OH271239   6.599   4.528  10.795  0.0968 -0.1098  0.2117
16583TIP3    H171240   6.527   4.534  10.858  2.3757 -1.3842  3.0473
16583TIP3    H271241   6.677   4.513  10.849  2.7241  2.5727 -2.6821
16584TIP3   OH271242   2.770   3.981   1.550  0.1767 -0.8853  0.2311
16584TIP3    H171243   2.695   3.987   1.492 -0.2818 -3.2992  0.5262
16584TIP3    H271244   2.739   4.016   1.634 -0.4944 -1.5616  0.2576
16585TIP3   OH271245   1.821   5.469  12.709 -0.2776 -0.5796  0.3249
16585TIP3    H171246   1.841   5.560  12.687 -1.4817 -0.2355  0.6269
16585TIP3    H271247   1.763   5.440  12.639 -1.8820 -0.3445  1.5373
16586TIP3   OH271248   6.460   0.602   1.594 -0.5033 -0.1181 -0.1765
16586TIP3    H171249   6.489   0.666   1.659 -0.0587 -1.0322  0.5418
16586TIP3    H271250   6.414   0.653   1.528  0.4922  1.0403  0.0132
16587TIP3   OH271251   6.189   1.184   0.946  0.2388 -0.7041  0.5377
16587TIP3    H171252   6.184   1.271   0.985  1.3051 -1.1981  1.8045
16587TIP3    H271253   6.249   1.135   1.003  1.0003 -1.7552 -1.1180
16588TIP3   OH271254   4.407   4.654  13.014  0.1123 -0.0408  0.1945
16588TIP3    H171255   4.417   4.747  13.031 -0.4310 -0.2443  1.7383
16588TIP3    H271256   4.496   4.622  13.000  0.5471  0.2545  2.1626
16589TIP3   OH271257   1.395   0.714  13.443 -0.5632 -0.5806 -0.4282
16589TIP3    H171258   1.472   0.705  13.387  0.1085  0.1055  0.3725
16589TIP3    H271259   1.346   0.787  13.405  0.4197  0.5648  0.4707
16590TIP3   OH271260   5.551   4.118  14.053 -0.0879  0.1949  0.1020
16590TIP3    H171261   5.549   4.213  14.037  0.7459  0.2051  0.0220
16590TIP3    H271262   5.500   4.080  13.982 -1.1088  0.6457  0.5932
16591TIP3   OH271263   0.629   1.749  13.947  0.6375  0.0771  0.0140
16591TIP3    H171264   0.652   1.837  13.917  0.9922 -0.0301 -0.0296
16591TIP3    H271265   0.594   1.706  13.869  0.3466  0.2195  0.0651
16592TIP3   OH271266   5.172   5.504  16.415 -0.5394  0.5769  0.1109
16592TIP3    H171267   5.206   5.441  16.351 -0.2450  2.1314 -1.2921
16592TIP3    H271268   5.199   5.469  16.500  0.3398 -0.7515 -0.6935
16593TIP3   OH271269   4.004   5.200  11.730  0.2886  0.8084 -0.0863
16593TIP3    H171270   4.013   5.115  11.687 -0.2201  0.3691  0.6636
16593TIP3    H271271   3.926   5.239  11.691 -0.1194  0.4494  0.3645
16594TIP3   OH271272   0.712   4.945  12.804 -0.3080  0.1093  0.3843
16594TIP3    H171273   0.749   4.952  12.716  1.1018  0.1337  0.9661
16594TIP3    H271274   0.624   4.983  12.797 -0.5449 -0.6921 -1.2107
16595TIP3   OH271275   5.869   2.634   2.463  0.0174  0.1714 -0.1283
16595TIP3    H171276   5.954   2.637   2.506  0.0483 -0.3121 -0.1536
16595TIP3    H271277   5.843   2.726   2.454  1.5526  0.4597 -2.1155
16596TIP3   OH271278   4.521   1.632   1.611  0.0950  0.3438  0.5527
16596TIP3    H171279   4.516   1.581   1.692  2.1898 -0.3715  0.2652
16596TIP3    H271280   4.540   1.721   1.639 -1.1748  0.4994  0.9364
16597TIP3   OH271281   1.595   1.969   5.549  0.0989 -0.2797  0.0440
16597TIP3    H171282   1.585   1.939   5.640  0.6069 -1.2406 -0.2055
16597TIP3    H271283   1.690   1.970   5.535  0.0185 -0.1538 -0.4780
16598TIP3   OH271284   2.308   5.691   5.464  0.1804 -0.1123 -0.4514
16598TIP3    H171285   2.251   5.617   5.442  0.6309 -0.4350 -0.5314
16598TIP3    H271286   2.377   5.689   5.398  1.0534 -0.5556  0.4577
16599TIP3   OH271287   4.135   5.405   6.048 -0.4638  0.3087 -0.4422
16599TIP3    H171288   4.214   5.353   6.056 -0.6156  0.1862  0.2489
16599TIP3    H271289   4.131   5.429   5.955  0.0637 -0.1786 -0.5876
16600TIP3   OH271290   1.923   3.664  13.360 -0.3482 -0.3453 -0.0299
16600TIP3    H171291   1.990   3.634  13.421 -0.5606  0.1690  0.4550
16600TIP3    H271292   1.922   3.759  13.370 -0.8494 -0.3168 -0.3488
16601TIP3   OH271293   5.050   3.220  12.653  0.0072 -0.0871  0.7347
16601TIP3    H171294   5.085   3.154  12.593  0.9936  0.2335  0.9575
16601TIP3    H271295   5.094   3.203  12.737 -0.1200  0.5261  0.9297
16602TIP3   OH271296   6.359   1.115   1.873 -0.2012 -0.1726 -0.6147
16602TIP3    H171297   6.351   1.202   1.833  1.1263 -0.7391 -2.1969
16602TIP3    H271298   6.424   1.070   1.819  0.4319 -1.5595  1.2314
16603TIP3   OH271299   2.643   5.462   2.491  0.1214  0.2284  0.1038
16603TIP3    H171300   2.732   5.491   2.511 -0.0356  0.2633  0.7753
16603TIP3    H271301   2.620   5.508   2.411  0.9757 -0.3295 -0.4651
16604TIP3   OH271302   5.329   1.023  15.204  0.4658 -0.0953 -0.8248
16604TIP3    H171303   5.271   0.965  15.156 -1.2750  1.4757 -0.6613
16604TIP3    H271304   5.274   1.097  15.229  1.8518  0.1263  1.7366
16605TIP3   OH271305   1.296   1.700   1.161  0.4068  0.1039  0.9347
16605TIP3    H171306   1.347   1.693   1.080  0.9934 -0.5841  1.3546
16605TIP3    H271307   1.352   1.661   1.228 -0.0654  0.6911  1.6773
16606TIP3   OH271308   4.051   1.487   2.402 -0.2097 -0.0017  0.4077
16606TIP3    H171309   3.983   1.429   2.368 -0.1256  1.0311 -1.6228
16606TIP3    H271310   4.014   1.524   2.482 -0.5838 -2.2033  1.2777
16607TIP3   OH271311   4.356   3.979  14.045 -0.5954  0.0767  0.4157
16607TIP3    H171312   4.392   4.036  14.112 -1.5323  0.0198  0.9681
16607TIP3    H271313   4.269   4.014  14.028 -0.9249 -0.7976  0.2892
16608TIP3   OH271314   3.337   6.118  10.624  0.0069 -0.2743  0.2748
16608TIP3    H171315   3.304   6.183  10.562  1.4370 -0.3968 -0.6335
16608TIP3    H271316   3.259   6.072  10.654 -0.7320 -0.0626 -1.2646
16609TIP3   OH271317   2.073   2.506  15.711  0.0753  0.3687 -0.0277
16609TIP3    H171318   2.076   2.474  15.802  1.9898 -0.0544 -0.2117
16609TIP3    H271319   1.980   2.521  15.694 -0.4216 -0.6702  1.6202
16610TIP3   OH271320   1.100   5.403  14.154  0.0645 -0.1094  0.7443
16610TIP3    H171321   1.077   5.327  14.100 -1.0552 -0.9310  2.2981
16610TIP3    H271322   1.115   5.365  14.241 -3.8782  1.8227  2.3543
16611TIP3   OH271323   2.715   4.300   0.545  0.2222 -0.6114 -0.9392
16611TIP3    H171324   2.743   4.209   0.534 -0.3955 -0.8185 -0.8372
16611TIP3    H271325   2.749   4.345   0.468  1.7190 -0.6323 -0.3020
16612TIP3   OH271326   2.146   5.884  12.849 -0.1928  0.3680  0.7101
16612TIP3    H171327   2.060   5.874  12.889 -0.7419  2.4300  0.1598
16612TIP3    H271328   2.132   5.948  12.778  1.6746  0.3392  0.2751
16613TIP3   OH271329   0.922   0.021  13.299  0.2387 -0.1224 -0.9255
16613TIP3    H171330   1.014   0.036  13.318 -0.1723  0.5052  0.7262
16613TIP3    H271331   0.905  -0.069  13.329  0.0425  0.1790 -0.1293
16614TIP3   OH271332   3.761   2.956  14.452 -0.2879  0.1264  0.2203
16614TIP3    H171333   3.747   3.007  14.532  0.3595  0.7661 -0.0754
16614TIP3    H271334   3.838   2.903  14.471 -1.0546 -0.8804  0.5879
16615TIP3   OH271335   0.898   5.834   6.011 -0.3130  0.6954  0.3822
16615TIP3    H171336   0.872   5.828   5.920 -0.3685  1.2339  0.3590
16615TIP3    H271337   0.874   5.923   6.037 -1.7565  0.0241  1.3804
16616TIP3   OH271338   4.248   0.270  12.718 -0.5154  0.2460 -0.0891
16616TIP3    H171339   4.259   0.211  12.792 -0.5493  2.1318  1.4421
16616TIP3    H271340   4.173   0.234  12.669 -1.1197 -0.4426  1.3312
16617TIP3   OH271341   5.065   2.957  17.171  0.3544 -0.6164  0.5481
16617TIP3    H171342   5.037   2.873  17.133 -0.5757 -0.6628  1.2950
16617TIP3    H271343   4.983   3.003  17.188  0.8744  0.4932  0.0406
16618TIP3   OH271344   2.593   1.320  12.397 -0.0446  0.4938  1.0305
16618TIP3    H171345   2.589   1.407  12.357  0.9412  0.0092 -0.1483
16618TIP3    H271346   2.663   1.327  12.461  1.0902  0.1428 -0.1509
16619TIP3   OH271347   5.003   3.809  15.165  0.1290  0.5651  0.6682
16619TIP3    H171348   5.039   3.895  15.187  1.8315  0.0735 -0.1274
16619TIP3    H271349   5.066   3.771  15.104 -2.3350  0.1686 -1.7212
16620TIP3   OH271350   3.856   5.426  12.701 -1.0632  0.2928  0.2048
16620TIP3    H171351   3.866   5.403  12.793  1.0949  1.2516  0.2343
16620TIP3    H271352   3.874   5.345  12.654 -0.7537  0.1575  0.5601
16621TIP3   OH271353   4.851   3.423  17.265  0.3073 -0.0673 -0.5385
16621TIP3    H171354   4.908   3.485  17.219  0.4016  0.7948  0.7104
16621TIP3    H271355   4.770   3.472  17.280  0.3400 -0.2654  0.3414
16622TIP3   OH271356   4.944   1.061  16.224  0.1199  0.2639 -0.3431
16622TIP3    H171357   4.903   1.122  16.163 -1.2983  1.1350  1.4253
16622TIP3    H271358   4.874   1.038  16.285  2.0671  1.1443  2.2918
16623TIP3   OH271359   2.418   3.765  16.017  0.2618  0.1385  0.0090
16623TIP3    H171360   2.491   3.822  15.995  0.5965 -1.6104 -3.8573
16623TIP3    H271361   2.343   3.823  16.026  1.3553  1.5597  0.0241
16624TIP3   OH271362   6.420   2.884  13.477 -0.3029 -0.4515 -0.3213
16624TIP3    H171363   6.381   2.936  13.406 -1.1772 -0.2630  0.2854
16624TIP3    H271364   6.493   2.838  13.436 -1.4242 -1.1280 -1.5944
16625TIP3   OH271365   0.452   4.095   1.237  0.1920  0.5811  0.4432
16625TIP3    H171366   0.366   4.132   1.218  0.5843  0.0417 -2.6203
16625TIP3    H271367   0.445   4.061   1.326 -2.6577  0.8624  0.3503
16626TIP3   OH271368   0.749   3.089   4.711  0.3769  0.0987  0.2044
16626TIP3    H171369   0.654   3.075   4.718  0.0789  2.3337  1.0048
16626TIP3    H271370   0.766   3.087   4.617 -0.9239  2.2761 -0.1246
16627TIP3   OH271371   5.899   1.118  16.818  0.4217 -0.0764 -0.2330
16627TIP3    H171372   5.860   1.031  16.812  1.8805 -0.8741  1.2429
16627TIP3    H271373   5.992   1.104  16.801  1.1451  0.7302  2.7230
16628TIP3   OH271374   0.271   3.953  16.615  0.0270  0.5094 -0.2558
16628TIP3    H171375   0.348   3.898  16.601 -0.7034 -0.0186 -2.3373
16628TIP3    H271376   0.304   4.043  16.612  0.6592  0.2717 -0.4426
16629TIP3   OH271377   1.609   5.758  12.657 -0.3656  0.0202 -0.3545
16629TIP3    H171378   1.584   5.793  12.743  0.4841 -0.7231  0.2136
16629TIP3    H271379   1.580   5.667  12.660 -0.0983 -0.0775 -0.7505
16630TIP3   OH271380   2.028   4.092  11.807 -0.0797 -0.3184  0.5181
16630TIP3    H171381   1.940   4.126  11.790  1.1946  2.4458 -0.9319
16630TIP3    H271382   2.032   4.010  11.759 -1.2891  0.4162 -0.8736
16631TIP3   OH271383   5.982   4.532  12.619 -0.3037  0.3429 -0.1535
16631TIP3    H171384   5.979   4.592  12.545 -0.9186  0.4625 -0.0344
16631TIP3    H271385   6.029   4.580  12.688  0.7936  0.0060 -0.6613
16632TIP3   OH271386   3.240   5.154  13.360 -0.5231 -0.2266  0.0499
16632TIP3    H171387   3.156   5.169  13.317 -0.1425  0.8120 -0.3469
16632TIP3    H271388   3.218   5.142  13.452 -1.1723 -0.6993 -0.1613
16633TIP3   OH271389   0.918   4.801   6.132  0.1432  0.1485  0.3983
16633TIP3    H171390   0.867   4.801   6.213  0.1899  1.6133  0.4413
16633TIP3    H271391   0.892   4.720   6.087 -0.9592  0.0485  1.1956
16634TIP3   OH271392   4.534   3.910   5.274 -0.1771  0.1837  0.6018
16634TIP3    H171393   4.492   3.824   5.264  0.4511 -0.1729  0.9796
16634TIP3    H271394   4.620   3.900   5.234  0.3780  0.2623  1.7499
16635TIP3   OH271395   1.485   3.984  15.385  0.2059  0.4089  0.1429
16635TIP3    H171396   1.540   3.905  15.391  0.2266  0.5193  1.8273
16635TIP3    H271397   1.402   3.957  15.424  0.2787  1.2715  0.8979
16636TIP3   OH271398   6.545   4.766   1.712 -0.0149  0.2168 -0.0536
16636TIP3    H171399   6.551   4.676   1.679  0.5086  0.3458 -0.3280
16636TIP3    H271400   6.636   4.794   1.720 -0.1610  1.7864 -2.9092
16637TIP3   OH271401   2.569   2.429  14.115  0.0439 -0.5000 -0.3588
16637TIP3    H171402   2.550   2.431  14.209 -2.4499  1.0088 -0.8319
16637TIP3    H271403   2.622   2.350  14.103  0.7227 -0.5170  2.3538
16638TIP3   OH271404   1.678   2.337   3.041  0.3979  0.4911 -0.3795
16638TIP3    H171405   1.603   2.298   2.996  0.4885 -1.1109  0.8082
16638TIP3    H271406   1.643   2.367   3.125  0.3900  2.7850 -1.1567
16639TIP3   OH271407   3.732   4.267   3.177  0.1893 -0.4177  0.7505
16639TIP3    H171408   3.698   4.180   3.197  0.0415  0.0488  2.6064
16639TIP3    H271409   3.657   4.315   3.142  0.0827 -0.8078  0.4466
16640TIP3   OH271410   2.861   4.536  16.987 -0.0995 -0.5166 -0.4103
16640TIP3    H171411   2.885   4.514  16.897  0.9253  1.6577 -0.6977
16640TIP3    H271412   2.789   4.599  16.978  0.6084  0.3978  0.2581
16641TIP3   OH271413   0.270   5.860  12.363 -0.8125 -0.6503 -0.4949
16641TIP3    H171414   0.191   5.862  12.417  0.1675 -0.2018  0.9540
16641TIP3    H271415   0.305   5.949  12.369  0.6247 -1.2408  0.1375
16642TIP3   OH271416   5.933   3.645   4.535  0.2760 -0.1284 -0.2174
16642TIP3    H171417   5.878   3.669   4.610  0.7545  1.4735 -0.3609
16642TIP3    H271418   5.872   3.608   4.471 -0.3236 -0.3099  0.4554
16643TIP3   OH271419   0.388   5.236   3.529  0.2935  0.2864 -0.3204
16643TIP3    H171420   0.476   5.273   3.526  0.1189  0.6706 -0.8753
16643TIP3    H271421   0.400   5.144   3.505  0.3197  0.7831 -2.3314
16644TIP3   OH271422   2.108   1.150  12.265  0.2830  0.0258  0.0331
16644TIP3    H171423   2.016   1.156  12.240  0.8085 -0.2122 -2.0172
16644TIP3    H271424   2.108   1.094  12.342 -1.2750 -0.0145  0.0300
16645TIP3   OH271425   1.836   4.656  12.697  0.2916  0.4719 -0.1548
16645TIP3    H171426   1.911   4.632  12.643 -0.3949 -0.0407 -0.8916
16645TIP3    H271427   1.796   4.573  12.721 -0.0421  0.7398  0.2252
16646TIP3   OH271428   4.753   1.229   6.054 -0.2393 -0.5696 -0.5901
16646TIP3    H171429   4.690   1.287   6.011  1.3148  0.5151 -1.4487
16646TIP3    H271430   4.756   1.151   5.999 -3.1732 -2.0262  1.1623
16647TIP3   OH271431   1.753   5.495   1.996  0.5131  0.0668  0.0157
16647TIP3    H171432   1.740   5.466   1.906  1.6807 -0.3202 -0.0420
16647TIP3    H271433   1.758   5.591   1.990  0.1893  0.0670 -0.2726
16648TIP3   OH271434   2.115   1.463   5.738 -0.3140 -0.3610  0.3466
16648TIP3    H171435   2.037   1.408   5.745 -1.5403  1.2280 -0.5097
16648TIP3    H271436   2.089   1.548   5.774  0.9529  0.2599 -0.1427
16649TIP3   OH271437   1.813   6.720  11.632 -0.4566 -0.1094 -0.2974
16649TIP3    H171438   1.890   6.663  11.640 -0.6532 -0.3943 -0.3884
16649TIP3    H271439   1.796   6.723  11.538 -0.3181  0.2807 -0.3106
16650TIP3   OH271440   6.071   0.409   4.278 -0.1069  0.2866 -0.2162
16650TIP3    H171441   6.050   0.436   4.189 -1.6777 -2.5986 -0.7898
16650TIP3    H271442   6.085   0.315   4.272  0.1892  0.1100  2.5253
16651TIP3   OH271443   1.696   0.584   3.811  0.8352  0.3316  0.1568
16651TIP3    H171444   1.668   0.496   3.785 -0.0043  0.1931  1.4711
16651TIP3    H271445   1.738   0.620   3.733 -0.7445 -0.4301 -1.0771
16652TIP3   OH271446   3.762   4.298   1.410 -0.0302 -0.0154  0.2561
16652TIP3    H171447   3.838   4.281   1.354  0.7567  0.7701  1.0770
16652TIP3    H271448   3.725   4.211   1.428  1.7502 -0.5706  1.3608
16653TIP3   OH271449   0.258   4.858   3.145 -0.1977 -0.1399  0.0137
16653TIP3    H171450   0.351   4.838   3.151 -0.0601 -0.2154 -2.0640
16653TIP3    H271451   0.214   4.780   3.180  0.4756 -1.2408 -1.5265
16654TIP3   OH271452   5.949   2.353   4.103 -0.5673  0.2598  0.1680
16654TIP3    H171453   6.036   2.367   4.141 -1.3222  1.1860  1.6000
16654TIP3    H271454   5.912   2.280   4.154 -0.5919 -0.2209 -0.5261
16655TIP3   OH271455   1.833   0.594  17.285  0.3059  0.1631 -0.1872
16655TIP3    H171456   1.759   0.623  17.338 -1.1138 -0.4806 -1.7725
16655TIP3    H271457   1.910   0.615  17.338 -1.0447 -0.3975  2.0815
16656TIP3   OH271458   0.139   3.560  13.313 -0.2544 -0.5485  0.2600
16656TIP3    H171459   0.138   3.633  13.251  0.8894 -0.6600  0.1076
16656TIP3    H271460   0.230   3.554  13.341 -0.8433 -0.2215  2.2855
16657TIP3   OH271461   0.325   4.444  13.427 -0.8770 -0.2353 -0.5818
16657TIP3    H171462   0.410   4.419  13.390 -1.0867 -0.3199 -1.0140
16657TIP3    H271463   0.300   4.522  13.377 -0.6076  0.3580  0.1949
16658TIP3   OH271464   4.520   1.939   2.069 -0.5319  0.1873 -0.7018
16658TIP3    H171465   4.542   1.867   2.009  1.8838  1.7011 -1.6943
16658TIP3    H271466   4.595   1.945   2.127 -1.0143  1.5184 -0.2115
16659TIP3   OH271467   6.091   0.933   0.754 -0.1605 -0.3090  0.0995
16659TIP3    H171468   6.182   0.937   0.780 -0.2335 -0.1029  0.3257
16659TIP3    H271469   6.042   0.963   0.831 -0.4501 -0.9794  0.1785
16660TIP3   OH271470   2.723   0.205   2.843  0.1965 -0.2251  0.0602
16660TIP3    H171471   2.632   0.175   2.839  0.2145 -0.2003 -0.8230
16660TIP3    H271472   2.763   0.152   2.912 -0.3186 -0.7169 -0.0155
16661TIP3   OH271473   3.209   5.140   4.628 -0.2085 -0.2963  0.1469
16661TIP3    H171474   3.190   5.204   4.561 -4.1388  0.8707  2.2190
16661TIP3    H271475   3.158   5.063   4.603  0.2897 -0.7291  0.4515
16662TIP3   OH271476   4.605   5.503  16.796  0.3533 -0.3286  0.7725
16662TIP3    H171477   4.677   5.447  16.824  1.3152  1.8080  2.6280
16662TIP3    H271478   4.645   5.567  16.738 -0.8698 -1.9104 -1.9433
16663TIP3   OH271479   5.302   4.569  14.310  0.6672  0.4508  0.1424
16663TIP3    H171480   5.207   4.576  14.298  0.7632 -0.6635 -1.4293
16663TIP3    H271481   5.339   4.612  14.233  1.4043 -0.8716 -0.2566
16664TIP3   OH271482   6.754   2.815   0.804  0.1589 -0.1763  0.1139
16664TIP3    H171483   6.832   2.760   0.803  0.3798  0.1404 -0.0318
16664TIP3    H271484   6.682   2.755   0.822  0.0602 -0.9738 -2.6452
16665TIP3   OH271485   2.879   3.757   1.285  0.2223 -0.0104 -0.0517
16665TIP3    H171486   2.883   3.853   1.293  0.7627 -0.0390  0.0309
16665TIP3    H271487   2.849   3.742   1.195 -0.9028  0.2489  0.2728
16666TIP3   OH271488   3.127   0.269  11.127 -0.1704 -0.9520 -0.5740
16666TIP3    H171489   3.142   0.240  11.037  1.1756 -2.2490  0.0625
16666TIP3    H271490   3.214   0.287  11.162 -0.5966 -1.4940  0.8158
16667TIP3   OH271491   4.389   2.825   2.804  0.1042 -0.1895  0.3070
16667TIP3    H171492   4.336   2.770   2.747  0.0391  0.5693 -0.3918
16667TIP3    H271493   4.366   2.799   2.893  0.5847 -1.7540 -0.0209
16668TIP3   OH271494   6.637   2.984   2.074  0.9101 -0.1890 -0.1751
16668TIP3    H171495   6.598   2.898   2.057 -0.0300  0.1639  0.1632
16668TIP3    H271496   6.676   2.976   2.161 -1.4861  0.5262  0.9876
16669TIP3   OH271497   4.576   0.148  13.367  0.2976  0.3918  0.4866
16669TIP3    H171498   4.654   0.172  13.416 -0.9596  1.8523  1.7934
16669TIP3    H271499   4.514   0.218  13.384 -1.0951 -0.4270 -1.0596
16670TIP3   OH271500   3.837   5.225   2.769  0.0439 -0.0395 -0.1902
16670TIP3    H171501   3.767   5.242   2.706  0.4593 -1.6998 -1.1452
16670TIP3    H271502   3.905   5.288   2.747  0.3406 -0.8530 -1.6753
16671TIP3   OH271503   6.695   4.217   3.944  0.5747  0.1395 -0.6284
16671TIP3    H171504   6.610   4.179   3.921 -0.1088  1.2613  0.0006
16671TIP3    H271505   6.688   4.236   4.038  2.1972 -1.4859 -0.1488
16672TIP3   OH271506   6.576   5.647  17.142 -0.3392  0.1010 -0.1479
16672TIP3    H171507   6.511   5.690  17.086 -1.3727  0.3425  1.1924
16672TIP3    H271508   6.525   5.584  17.193  0.9267 -1.6417 -1.0035
16673TIP3   OH271509   0.258   1.448   2.701  0.0512  0.0248  0.7573
16673TIP3    H171510   0.307   1.452   2.619  1.4345 -2.4927  1.4282
16673TIP3    H271511   0.318   1.483   2.767  0.4986 -1.8264  1.3628
16674TIP3   OH271512   2.251   0.507   6.675 -0.1312 -0.5122  0.1046
16674TIP3    H171513   2.280   0.420   6.649  1.6908  0.6002 -1.7578
16674TIP3    H271514   2.321   0.565   6.644 -2.0978  1.7802 -0.1498
16675TIP3   OH271515   5.235   2.474  15.508 -0.3044  0.3949 -0.2683
16675TIP3    H171516   5.220   2.498  15.417 -0.6266  0.7146 -0.1316
16675TIP3    H271517   5.255   2.557  15.552  0.4413  0.1678 -0.1637
16676TIP3   OH271518   4.781   4.777  13.507  0.2515 -0.5456  0.4510
16676TIP3    H171519   4.736   4.814  13.582 -1.3360  2.4947 -1.8897
16676TIP3    H271520   4.873   4.802  13.519 -0.2517  1.3061  0.6093
16677TIP3   OH271521   5.297   4.372   4.001  0.1542 -0.2984 -0.8055
16677TIP3    H171522   5.278   4.404   3.913 -0.5406 -3.1183 -1.7106
16677TIP3    H271523   5.386   4.404   4.019  0.3516  0.2047 -2.5680
16678TIP3   OH271524   2.388   3.023   4.823  0.6276  0.3716  0.5313
16678TIP3    H171525   2.309   3.061   4.861  0.4085  0.6423 -0.1966
16678TIP3    H271526   2.359   2.939   4.786  0.9228 -0.0787  1.3111
16679TIP3   OH271527   6.120   1.904  10.992 -0.1683  0.2895 -0.8811
16679TIP3    H171528   6.164   1.857  10.922  0.6830  0.6045 -0.5694
16679TIP3    H271529   6.030   1.915  10.961 -0.2641 -1.1498 -1.1417
16680TIP3   OH271530   6.570   3.867   0.839  0.4716 -0.2147 -0.2442
16680TIP3    H171531   6.575   3.775   0.810 -1.4027 -0.5768  0.5433
16680TIP3    H271532   6.543   3.862   0.930 -0.4119  1.1500 -0.4235
16681TIP3   OH271533   6.642   0.072  11.335  0.1612  0.5145 -0.8549
16681TIP3    H171534   6.683  -0.001  11.288 -0.6582 -0.5679  0.0693
16681TIP3    H271535   6.711   0.105  11.391 -0.7318 -2.7549  2.3791
16682TIP3   OH271536   6.392   2.382   0.796 -0.0732 -0.0103  0.1212
16682TIP3    H171537   6.417   2.461   0.747  1.1439 -1.7208 -2.1537
16682TIP3    H271538   6.475   2.344   0.824 -0.6333 -0.6578  0.9386
16683TIP3   OH271539   6.651   6.476   2.783 -0.4906 -0.0376  0.4270
16683TIP3    H171540   6.681   6.464   2.872 -1.2282 -2.0917  0.4336
16683TIP3    H271541   6.728   6.461   2.728 -0.2479  0.2932  0.6820
16684TIP3   OH271542   1.096   0.742   2.620  0.5419  0.0962 -0.1360
16684TIP3    H171543   1.054   0.722   2.703 -0.7913  2.4360 -0.2096
16684TIP3    H271544   1.033   0.714   2.554  0.7712  0.0302 -0.3282
16685TIP3   OH271545   1.806   0.293  14.311  0.4403  0.0129  0.1380
16685TIP3    H171546   1.806   0.201  14.284  1.0884  0.4029 -1.2194
16685TIP3    H271547   1.718   0.309  14.344 -0.1266 -0.6777 -1.0315
16686TIP3   OH271548   0.575   6.505  13.742  0.3602  0.1399 -0.3142
16686TIP3    H171549   0.525   6.578  13.706  0.1229  0.3274  0.3908
16686TIP3    H271550   0.636   6.546  13.803  1.0197 -0.1409 -0.7801
16687TIP3   OH271551   6.303   5.391   2.681 -0.2109 -0.0585 -0.1477
16687TIP3    H171552   6.248   5.460   2.644  1.0117  0.1844 -1.5657
16687TIP3    H271553   6.249   5.352   2.749 -1.6633  0.9979 -0.6520
16688TIP3   OH271554   2.080   6.769   1.881  0.1906  0.2342  0.0711
16688TIP3    H171555   2.019   6.695   1.878  1.0049 -0.4566  0.4895
16688TIP3    H271556   2.056   6.816   1.960  1.4277 -1.1092  1.2745
16689TIP3   OH271557   0.517   0.033  14.041  0.1002 -0.0818 -0.4891
16689TIP3    H171558   0.549  -0.015  13.965 -0.2272 -0.3916 -0.4292
16689TIP3    H271559   0.585   0.098  14.059  0.5952 -0.5975 -0.4951
16690TIP3   OH271560   0.294   0.206  15.666 -0.0511  0.1710  0.0314
16690TIP3    H171561   0.348   0.166  15.598  2.7816 -0.9650  2.8301
16690TIP3    H271562   0.260   0.132  15.716  0.1902  1.0790  1.5586
16691TIP3   OH271563   1.504   1.445   5.413 -0.1954 -0.3197  0.7866
16691TIP3    H171564   1.484   1.410   5.326 -0.8453  1.3361  0.2456
16691TIP3    H271565   1.588   1.490   5.402 -0.2450 -0.1642  1.0405
16692TIP3   OH271566   4.117   6.446   0.738 -0.0732  0.2171  0.2146
16692TIP3    H171567   4.129   6.351   0.744 -0.3107  0.2364  1.0148
16692TIP3    H271568   4.099   6.474   0.827 -2.6191  0.6666 -0.4175
16693TIP3   OH271569   3.638   0.220   2.383 -0.7354  0.0614 -0.2300
16693TIP3    H171570   3.732   0.221   2.397 -0.4946  1.9403 -1.8218
16693TIP3    H271571   3.618   0.129   2.360  0.6749 -0.3431  0.1507
16694TIP3   OH271572   6.273   3.892   5.382  0.5434  0.5482  0.5633
16694TIP3    H171573   6.293   3.868   5.473  0.5170  0.2061  0.4804
16694TIP3    H271574   6.182   3.921   5.385  0.2153 -0.4371  0.4716
16695TIP3   OH271575   1.650   6.393  16.735 -0.7402  0.0693 -0.5888
16695TIP3    H171576   1.714   6.323  16.745  0.0911  0.5504 -2.3497
16695TIP3    H271577   1.572   6.361  16.780  0.4994 -0.8258  0.9611
16696TIP3   OH271578   2.554   1.662   5.559  0.4036 -0.2221  0.2887
16696TIP3    H171579   2.603   1.671   5.477 -0.1052  0.0077  0.0007
16696TIP3    H271580   2.520   1.751   5.576 -0.7330 -0.5757 -0.0532
16697TIP3   OH271581   0.381   3.346   1.889 -0.1848 -0.4907  0.9821
16697TIP3    H171582   0.340   3.339   1.803  1.8849  0.7219 -0.1636
16697TIP3    H271583   0.399   3.255   1.914 -1.2270 -0.8764  0.3468
16698TIP3   OH271584   1.664   5.944  11.987  0.0422  0.1827 -0.1585
16698TIP3    H171585   1.606   5.933  11.912  1.1599  0.2757 -1.0422
16698TIP3    H271586   1.748   5.971  11.950  0.5709  0.3764  1.1314
16699TIP3   OH271587   4.410   0.615   0.092  0.1536  0.2637 -0.4874
16699TIP3    H171588   4.404   0.652   0.180  1.4675  1.1581 -0.7612
16699TIP3    H271589   4.359   0.534   0.097 -0.7308  0.8803  0.7745
16700TIP3   OH271590   0.507   2.114   6.249 -0.1137 -0.6108 -0.1683
16700TIP3    H171591   0.536   2.035   6.294 -1.0743 -0.1700  1.2620
16700TIP3    H271592   0.422   2.134   6.289  0.3942  1.4597 -0.0885
16701TIP3   OH271593   4.238   0.137  13.331 -0.1512  0.4384 -0.1434
16701TIP3    H171594   4.203   0.226  13.338 -0.3133  0.4059 -0.5664
16701TIP3    H271595   4.231   0.102  13.420  1.1758  1.3226  0.3211
16702TIP3   OH271596   5.215   5.423  16.970 -0.4325  0.5825  0.2793
16702TIP3    H171597   5.174   5.383  16.893  1.4260 -0.4187 -0.2200
16702TIP3    H271598   5.173   5.381  17.045  2.1579 -3.0846 -0.2327
16703TIP3   OH271599   2.560   1.853  12.428 -0.1499  0.2085 -0.5771
16703TIP3    H171600   2.529   1.926  12.482 -0.1644  0.7183 -1.2745
16703TIP3    H271601   2.498   1.847  12.356  1.0119  0.8564 -1.6632
16704TIP3   OH271602   5.049   1.380  16.065 -0.9251  0.1931 -0.4885
16704TIP3    H171603   5.092   1.369  16.150 -0.5618 -2.6969 -1.0100
16704TIP3    H271604   4.958   1.355  16.080 -1.1466  0.8882 -0.6681
16705TIP3   OH271605   4.297   1.421  13.274 -0.2517 -0.7389  0.2311
16705TIP3    H171606   4.225   1.476  13.244 -0.5130 -0.8878  0.5792
16705TIP3    H271607   4.348   1.479  13.331 -0.6064 -0.8932  0.7119
16706TIP3   OH271608   0.530   3.342   1.441 -0.0506  0.6869  0.8598
16706TIP3    H171609   0.521   3.323   1.534 -0.6353 -0.7667  0.5161
16706TIP3    H271610   0.455   3.397   1.420 -0.3965  0.2962  1.0663
16707TIP3   OH271611   1.696   6.112  13.988 -0.5935  0.1378 -0.0658
16707TIP3    H171612   1.626   6.047  13.983 -3.4136  3.0151  0.6035
16707TIP3    H271613   1.683   6.155  14.073  1.3260  1.4566 -0.4133
16708TIP3   OH271614   0.001   3.134  13.212 -0.2830 -0.1058 -0.6318
16708TIP3    H171615  -0.072   3.124  13.152 -1.6598  1.8058  0.6802
16708TIP3    H271616   0.075   3.159  13.157 -1.8950  3.1345 -1.3949
16709TIP3   OH271617   0.770   3.419   5.992  0.1573 -0.3428 -0.0695
16709TIP3    H171618   0.861   3.431   5.963  0.2671  0.2255  0.5015
16709TIP3    H271619   0.770   3.448   6.083 -0.6280 -0.2189 -0.1078
16710TIP3   OH271620   4.699   4.856  12.868  0.3406  0.1795  0.0514
16710TIP3    H171621   4.688   4.767  12.835  0.0001 -1.0169  3.1605
16710TIP3    H271622   4.624   4.904  12.833  1.0127 -0.4819 -2.3906
16711TIP3   OH271623   5.600   1.338  13.070  0.8700 -0.5161  0.3744
16711TIP3    H171624   5.561   1.307  13.152  0.1505 -2.4437 -0.6648
16711TIP3    H271625   5.694   1.339  13.087  0.6999 -0.4585  1.3699
16712TIP3   OH271626   1.101   1.599   2.380 -0.1786 -0.2998  0.2210
16712TIP3    H171627   1.008   1.576   2.380 -0.1276 -0.5041  0.1491
16712TIP3    H271628   1.103   1.694   2.365 -0.2578 -0.6941 -2.5074
16713TIP3   OH271629   4.639   1.631   2.043  0.1427  0.1521 -0.5037
16713TIP3    H171630   4.604   1.621   1.955  1.2389 -0.4640 -0.8858
16713TIP3    H271631   4.584   1.574   2.097 -1.2785  1.4378 -0.5699
16714TIP3   OH271632   3.634   6.795   2.082 -0.0139 -0.2633 -0.0929
16714TIP3    H171633   3.614   6.874   2.032  1.8304 -0.1063 -0.6229
16714TIP3    H271634   3.556   6.779   2.134 -0.1123  2.3963  0.6693
16715TIP3   OH271635   4.233   4.536   2.020 -0.1618  0.4057 -0.1690
16715TIP3    H171636   4.319   4.517   2.059 -1.5961 -0.8671  2.5279
16715TIP3    H271637   4.206   4.453   1.979 -1.0337  0.1535  0.8884
16716TIP3   OH271638   0.351   6.197  14.144  0.6189  0.1175 -0.0534
16716TIP3    H171639   0.419   6.150  14.193  0.9978  1.1644  0.4554
16716TIP3    H271640   0.399   6.252  14.083  0.1351 -1.5244 -1.9754
16717TIP3   OH271641   5.137   2.640   4.303 -0.6885  0.1452 -0.3150
16717TIP3    H171642   5.062   2.597   4.344 -0.7214  0.7325  0.2529
16717TIP3    H271643   5.137   2.728   4.339  0.5565  0.0040  0.0677
16718TIP3   OH271644   2.808   1.473   5.905 -0.1812  0.6201  0.0209
16718TIP3    H171645   2.864   1.420   5.848 -0.2309 -0.3492  0.8713
16718TIP3    H271646   2.824   1.440   5.993 -2.6220 -0.1572  0.1936
16719TIP3   OH271647   1.269   0.021   4.236  0.0144 -0.7810 -0.1857
16719TIP3    H171648   1.342  -0.006   4.291  0.4704  1.1307  0.1916
16719TIP3    H271649   1.273  -0.038   4.161  2.5211 -0.1542 -0.6048
16720TIP3   OH271650   3.512   0.523   3.725 -0.0271 -0.2486 -0.3558
16720TIP3    H171651   3.507   0.597   3.785  1.0596 -0.5714  0.1481
16720TIP3    H271652   3.540   0.561   3.642 -1.1940  0.1505 -0.5776
16721TIP3   OH271653   3.188   6.121  17.228  0.3855 -0.6163  0.1355
16721TIP3    H171654   3.205   6.029  17.248 -0.4763 -0.8218 -0.0770
16721TIP3    H271655   3.269   6.152  17.187  0.1498 -1.6706 -1.1560
16722TIP3   OH271656   4.903   3.649   0.604 -0.1517 -0.5273 -0.1520
16722TIP3    H171657   4.906   3.569   0.657  0.8416 -1.1647 -1.1503
16722TIP3    H271658   4.865   3.715   0.662 -1.2885 -1.7983  0.5824
16723TIP3   OH271659   6.020   1.564   4.374 -0.1177 -0.1978  0.2097
16723TIP3    H171660   5.947   1.591   4.431  0.5781 -0.1084  1.0685
16723TIP3    H271661   6.008   1.616   4.295  0.0941  1.2353  1.0906
16724TIP3   OH271662   3.625   4.708  17.046 -0.5969  0.5243 -0.1911
16724TIP3    H171663   3.654   4.658  16.970  0.3061  2.3023 -1.0711
16724TIP3    H271664   3.530   4.703  17.044 -0.5139 -1.4902  0.0011
16725TIP3   OH271665   0.896   3.926   2.606  0.1385  0.2004  0.3290
16725TIP3    H171666   0.897   4.011   2.561  1.0751 -0.0676 -0.1676
16725TIP3    H271667   0.981   3.887   2.586 -0.8598 -1.5309 -0.7356
16726TIP3   OH271668   4.824   2.715  12.621 -0.1863  0.2132 -0.1407
16726TIP3    H171669   4.742   2.735  12.576 -1.1952 -0.8087  1.2314
16726TIP3    H271670   4.839   2.791  12.678  0.0464  0.5910 -0.7030
16727TIP3   OH271671   2.449   3.097  12.365 -0.2291  0.5622 -0.4033
16727TIP3    H171672   2.450   3.107  12.461  0.2140 -1.0341 -0.2224
16727TIP3    H271673   2.492   3.176  12.333  0.6509  0.5863  0.7818
16728TIP3   OH271674   2.527   1.558   1.591  0.3159  0.5340 -0.3163
16728TIP3    H171675   2.610   1.546   1.638  0.3190  3.4314  0.5268
16728TIP3    H271676   2.552   1.584   1.503  0.2862 -3.5118 -1.6478
16729TIP3   OH271677   5.914   1.428   2.109 -1.1704 -0.1418  0.5519
16729TIP3    H171678   5.901   1.491   2.038 -1.1449  0.2190  0.8683
16729TIP3    H271679   5.936   1.346   2.064  0.1877  0.4149  0.1752
16730TIP3   OH271680   6.727   0.661   0.387  0.0743 -0.2103  0.0247
16730TIP3    H171681   6.633   0.644   0.378  0.1048 -1.1696  1.4313
16730TIP3    H271682   6.734   0.756   0.382 -1.1293 -0.0458  1.2943
16731TIP3   OH271683   2.628   5.415   1.427 -0.0513  0.0764 -0.1515
16731TIP3    H171684   2.687   5.467   1.481  0.2796 -1.4904  1.0360
16731TIP3    H271685   2.550   5.402   1.482 -0.1023 -0.7179 -0.3967
16732TIP3   OH271686   1.092   0.152  16.173 -0.1784  0.0844 -0.3419
16732TIP3    H171687   1.083   0.094  16.249  1.4244  1.7837  1.1785
16732TIP3    H271688   1.015   0.208  16.176  0.4105  0.8478  0.6457
16733TIP3   OH271689   3.164   1.193   2.831  0.1631  0.1645 -0.6478
16733TIP3    H171690   3.214   1.113   2.846 -0.1715 -0.2888 -1.8851
16733TIP3    H271691   3.091   1.166   2.775  0.3902  1.4339 -1.5906
16734TIP3   OH271692   2.966   0.419  12.265 -0.4424  0.3496 -0.2916
16734TIP3    H171693   2.900   0.379  12.322  0.3208  0.5161  0.7136
16734TIP3    H271694   2.914   0.465  12.198 -1.3459  0.2604  0.3307
16735TIP3   OH271695   3.536   4.378   6.170  0.0121  0.3650  0.4051
16735TIP3    H171696   3.487   4.449   6.127 -1.7485 -0.0395  1.7042
16735TIP3    H271697   3.502   4.298   6.130 -1.3650  0.0051  2.2327
16736TIP3   OH271698   1.970   4.223  17.128  0.2158  0.3900 -0.3991
16736TIP3    H171699   2.059   4.225  17.092  0.3734 -0.6680 -0.0885
16736TIP3    H271700   1.982   4.194  17.218 -0.4608  0.1125 -0.3965
16737TIP3   OH271701   4.670   0.437   5.393  0.0123  0.0748  0.9441
16737TIP3    H171702   4.697   0.404   5.307  0.4838  0.4305  0.9557
16737TIP3    H271703   4.667   0.359   5.448  0.0308 -0.1090  0.6871
16738TIP3   OH271704   5.190   0.503  13.780 -0.2651  0.1845 -0.3887
16738TIP3    H171705   5.173   0.549  13.862 -1.5509 -0.0906 -0.4953
16738TIP3    H271706   5.279   0.529  13.756 -1.0788  2.9039 -0.6232
16739TIP3   OH271707   0.820   2.665   1.689 -0.3946  1.0607  0.1231
16739TIP3    H171708   0.897   2.621   1.652 -0.9805 -0.0548  0.1987
16739TIP3    H271709   0.811   2.626   1.776 -0.3307  2.0682  0.5856
16740TIP3   OH271710   4.448   0.010   4.192  0.0518  0.1306  0.0722
16740TIP3    H171711   4.511   0.051   4.251  0.3106  1.9553 -1.4430
16740TIP3    H271712   4.461   0.054   4.108 -2.1646 -0.5594 -0.6700
16741TIP3   OH271713   1.274   6.591  15.161  0.2178 -0.3496 -0.2387
16741TIP3    H171714   1.266   6.654  15.090 -0.4174  1.6448  1.5508
16741TIP3    H271715   1.198   6.534  15.152  0.3822 -0.3913 -1.4185
16742TIP3   OH271716   5.268   4.564  11.129  0.4075 -0.4662  0.5329
16742TIP3    H171717   5.203   4.612  11.180  0.9863  0.5718  0.3183
16742TIP3    H271718   5.352   4.588  11.168  0.7543 -0.7019 -0.0583
16743TIP3   OH271719   4.992   4.886   1.149  0.9389 -0.5544  0.2313
16743TIP3    H171720   4.916   4.829   1.164 -0.2639  1.1147  0.5936
16743TIP3    H271721   5.006   4.882   1.054 -0.4378  0.1895 -0.0019
16744TIP3   OH271722   4.559   2.912  16.279 -0.0081 -0.2765 -0.0760
16744TIP3    H171723   4.526   2.962  16.206 -1.2762 -0.0035  0.6688
16744TIP3    H271724   4.513   2.946  16.355  2.2478  0.3626  1.0659
16745TIP3   OH271725   2.186   2.456   1.227 -0.0888 -0.0988  0.2975
16745TIP3    H171726   2.260   2.397   1.245 -0.8516 -1.0880  0.2506
16745TIP3    H271727   2.129   2.405   1.170 -0.5745  0.8442 -0.0718
16746TIP3   OH271728   6.084   6.438  12.948  0.3297 -0.2334  0.0384
16746TIP3    H171729   6.025   6.505  12.912 -0.2611 -0.0062  1.3738
16746TIP3    H271730   6.137   6.410  12.874  0.1091  1.2306 -0.6928
16747TIP3   OH271731   1.026   0.473   2.320  0.2014  0.5014  0.3357
16747TIP3    H171732   0.996   0.532   2.390 -0.8996 -1.0240  1.1929
16747TIP3    H271733   1.114   0.504   2.299  1.1649  0.0924  3.4691
16748TIP3   OH271734   3.613   1.175  14.481  0.0513  0.0172 -0.4820
16748TIP3    H171735   3.657   1.261  14.481 -0.7520  0.4621  1.3743
16748TIP3    H271736   3.527   1.193  14.519  0.2599 -1.7865  0.9166
16749TIP3   OH271737   0.662   4.323  12.107 -0.4445 -0.2322 -0.2594
16749TIP3    H171738   0.669   4.230  12.088  0.2401 -0.2955  0.2755
16749TIP3    H271739   0.572   4.335  12.139 -1.1874 -0.3402 -2.2697
16750TIP3   OH271740   4.576   5.678   0.334  0.2313  0.0241 -0.0359
16750TIP3    H171741   4.641   5.695   0.265  0.8059 -0.2417  0.4395
16750TIP3    H271742   4.524   5.758   0.338 -1.0088 -0.6505 -2.0906
16751TIP3   OH271743   5.096   1.141   0.301  0.4865 -0.2629  0.0494
16751TIP3    H171744   5.149   1.084   0.357  0.8132 -2.3821 -2.3136
16751TIP3    H271745   5.159   1.201   0.262  0.5087  0.0642  0.5840
16752TIP3   OH271746   0.573   2.809   4.905 -0.0876 -0.1655  0.4880
16752TIP3    H171747   0.650   2.846   4.947 -0.3540  0.0186  0.8081
16752TIP3    H271748   0.543   2.877   4.845  0.0564 -0.2774  0.2833
16753TIP3   OH271749   5.204   3.348  15.752  0.0448 -0.2309  0.1359
16753TIP3    H171750   5.146   3.379  15.683  1.1490 -0.7046 -1.0235
16753TIP3    H271751   5.188   3.253  15.757  1.6265 -0.6003 -1.1116
16754TIP3   OH271752   3.145   5.058  12.069 -0.1555  0.3702  0.0584
16754TIP3    H171753   3.240   5.063  12.056 -0.0111 -0.0972  0.9092
16754TIP3    H271754   3.109   5.116  12.002  0.7257  0.4801 -0.3329
16755TIP3   OH271755   4.723   2.481   2.540  0.6305 -0.4840  0.2565
16755TIP3    H171756   4.764   2.501   2.456 -0.7635 -1.5593 -0.7150
16755TIP3    H271757   4.788   2.504   2.605  2.6946 -1.9244 -1.2312
16756TIP3   OH271758   6.212   4.011  15.518  0.3015  0.4953 -0.2165
16756TIP3    H171759   6.132   4.064  15.524  0.7146  1.0354  0.5249
16756TIP3    H271760   6.280   4.065  15.557  1.2654  0.4550 -1.7869
16757TIP3   OH271761   5.800   6.047  15.461 -0.4071  0.1426 -0.1466
16757TIP3    H171762   5.881   6.079  15.422 -0.9513  0.5645 -0.9408
16757TIP3    H271763   5.741   6.122  15.461 -1.3691 -0.5805 -1.1462
16758TIP3   OH271764   2.062   1.765  14.997  0.2562  0.1329 -0.0773
16758TIP3    H171765   2.047   1.763  15.092  1.0082  1.4607  0.0702
16758TIP3    H271766   1.982   1.726  14.960 -0.4997  0.5938  1.0402
16759TIP3   OH271767   2.915   3.892   5.755 -0.2023 -0.1332  0.5833
16759TIP3    H171768   2.941   3.972   5.708 -0.9877 -0.7484 -0.9443
16759TIP3    H271769   2.958   3.899   5.840 -0.3366  1.9720  0.5091
16760TIP3   OH271770   5.420   1.363   1.652 -0.4308 -0.2017  0.3082
16760TIP3    H171771   5.509   1.398   1.659 -0.1109 -0.9025 -0.1410
16760TIP3    H271772   5.364   1.433   1.685  0.0989  1.1738 -1.6195
16761TIP3   OH271773   2.473   3.787   6.338  0.6506  0.2268 -0.3071
16761TIP3    H171774   2.558   3.745   6.323  1.1165  0.9703  0.2545
16761TIP3    H271775   2.436   3.740   6.413 -0.1601 -1.1823 -1.5593
16762TIP3   OH271776   5.821   4.484  13.821 -0.3450  0.3335  0.3846
16762TIP3    H171777   5.796   4.407  13.769 -0.9929  1.1484 -0.5395
16762TIP3    H271778   5.913   4.469  13.842 -0.3117 -0.4395 -0.2517
16763TIP3   OH271779   2.850   5.140   3.634 -0.3632 -0.5521 -0.7312
16763TIP3    H171780   2.855   5.235   3.627  0.0882 -0.4180  1.0860
16763TIP3    H271781   2.769   5.116   3.589 -0.0413  0.5938 -1.9432
16764TIP3   OH271782   2.266   2.381  12.465  0.0046 -0.8726 -0.3660
16764TIP3    H171783   2.351   2.411  12.497 -0.6792  0.8426 -0.0832
16764TIP3    H271784   2.216   2.361  12.544 -0.6466  0.4156 -0.4349
16765TIP3   OH271785   1.347   4.882  16.713 -0.0939  0.1201  0.3136
16765TIP3    H171786   1.303   4.799  16.695  0.1644  0.0828 -0.1557
16765TIP3    H271787   1.339   4.894  16.807  1.4901 -1.3550  0.6517
16766TIP3   OH271788   3.977   4.076  12.459  0.1910  0.1320  0.2165
16766TIP3    H171789   3.997   3.996  12.410  2.6704  1.1861 -0.6124
16766TIP3    H271790   4.007   4.058  12.548 -4.1902 -1.7359  1.4215
16767TIP3   OH271791   1.678   5.201  12.739 -0.1840 -0.0618 -0.0390
16767TIP3    H171792   1.772   5.186  12.729 -0.2891 -1.2431  0.6613
16767TIP3    H271793   1.652   5.242  12.657  0.5951 -1.5226 -1.0503
16768TIP3   OH271794   5.987   3.585   1.530  0.2250  0.3594  0.1896
16768TIP3    H171795   5.976   3.512   1.591  0.0622  0.7879  0.6799
16768TIP3    H271796   6.042   3.550   1.460  0.0577 -0.2654  0.3631
16769TIP3   OH271797   6.802   5.914  16.637  0.2262 -0.2105  0.0341
16769TIP3    H171798   6.775   5.941  16.549 -1.9580 -0.3951  0.6119
16769TIP3    H271799   6.743   5.842  16.659  0.4302  0.1539  1.8349
16770TIP3   OH271800   2.737   1.451  17.059  0.3386 -0.1508  0.7102
16770TIP3    H171801   2.774   1.390  16.996  2.9160  1.9830  0.0887
16770TIP3    H271802   2.799   1.524  17.062 -1.0828  1.0319  3.7165
16771TIP3   OH271803   1.372   2.783   1.737 -0.0582  0.0613  0.2743
16771TIP3    H171804   1.294   2.832   1.765 -0.6859 -2.2921  2.8420
16771TIP3    H271805   1.408   2.748   1.818  2.7726 -0.2684 -1.0737
16772TIP3   OH271806   0.828   6.592  11.119  0.6665 -0.2328 -0.0855
16772TIP3    H171807   0.870   6.641  11.048 -0.7598 -0.2804 -0.9847
16772TIP3    H271808   0.885   6.607  11.195  0.8602  1.9299 -0.6087
16773TIP3   OH271809   1.959   0.664   3.954  0.5380  0.1354  0.2192
16773TIP3    H171810   1.875   0.648   3.910 -0.7157  0.0667  2.5442
16773TIP3    H271811   1.966   0.593   4.017  1.8437  0.7620  0.7839
16774TIP3   OH271812   6.476   0.887  16.062  0.0236 -0.1187 -0.0212
16774TIP3    H171813   6.532   0.850  15.994 -2.0544 -0.0486 -1.8268
16774TIP3    H271814   6.457   0.814  16.121 -1.2146 -1.0976 -1.6184
16775TIP3   OH271815   6.445   1.909  15.785 -0.0257  0.0525  0.0093
16775TIP3    H171816   6.353   1.896  15.810  0.3334  1.0521  2.0182
16775TIP3    H271817   6.492   1.839  15.830  0.5269  1.3101  1.4257
16776TIP3   OH271818   3.089   2.217   0.901 -0.5615  0.1838 -0.7965
16776TIP3    H171819   3.056   2.197   0.988 -1.4568 -0.3075 -1.2417
16776TIP3    H271820   3.166   2.273   0.916 -0.6271 -0.0185  0.3009
16777TIP3   OH271821   0.275   0.772   0.185 -0.3790  0.4417  0.1127
16777TIP3    H171822   0.219   0.802   0.114 -2.2339  0.8841  1.7041
16777TIP3    H271823   0.234   0.691   0.216  1.2167 -0.5300 -0.2220
16778TIP3   OH271824   1.952   0.647  12.960 -0.0415 -0.2280  0.4889
16778TIP3    H171825   1.967   0.555  12.981 -1.3637 -0.1984  1.5536
16778TIP3    H271826   2.036   0.677  12.924 -0.5709 -2.7155 -3.0886
16779TIP3   OH271827   1.549   2.348   5.088 -0.3828  0.0462 -0.3236
16779TIP3    H171828   1.603   2.356   5.009 -1.1945  0.3401 -0.8502
16779TIP3    H271829   1.606   2.303   5.151 -0.0992 -1.1435 -1.4141
16780TIP3   OH271830   0.099   3.303  12.534 -0.3195 -0.0932  0.3736
16780TIP3    H171831   0.046   3.359  12.591 -0.2831  1.5205 -1.1419
16780TIP3    H271832   0.141   3.363  12.472  2.1341 -1.4934  0.6073
16781TIP3   OH271833   1.102   6.146   4.180 -0.1919 -0.2110 -0.1595
16781TIP3    H171834   1.056   6.176   4.259 -0.8905 -2.0825  0.1581
16781TIP3    H271835   1.182   6.199   4.178 -0.6084  0.5031  1.2947
16782TIP3   OH271836   2.457   4.473  13.952  0.6021 -0.7025 -0.1545
16782TIP3    H171837   2.443   4.378  13.942  1.3752 -0.7676 -0.6451
16782TIP3    H271838   2.408   4.511  13.879  0.4106 -0.7336 -0.0424
16783TIP3   OH271839   1.940   5.116   2.766  0.6777  0.4103 -0.2763
16783TIP3    H171840   2.028   5.083   2.750  0.5122  0.5622 -1.5471
16783TIP3    H271841   1.886   5.073   2.699 -0.5750 -1.2361  1.7395
16784TIP3   OH271842   2.097   5.680   2.860  0.5415  0.0965  0.1715
16784TIP3    H171843   2.117   5.591   2.886  1.9739  0.5076  0.5323
16784TIP3    H271844   2.095   5.678   2.764  2.5869  0.0691  0.1035
16785TIP3   OH271845   5.206   1.603   0.978  0.2808 -0.1791  0.3705
16785TIP3    H171846   5.177   1.569   1.063  0.8508 -2.0379 -0.1599
16785TIP3    H271847   5.137   1.662   0.950 -1.5048 -2.1363  0.5719
16786TIP3   OH271848   0.148   2.081  14.175 -0.5953 -0.2740 -0.4677
16786TIP3    H171849   0.082   2.018  14.205  0.0789 -1.7988 -2.0859
16786TIP3    H271850   0.225   2.027  14.156  0.1086  1.0916 -1.5496
16787TIP3   OH271851   1.900   1.437   4.988 -0.3190  0.0342  0.1095
16787TIP3    H171852   1.836   1.399   5.048 -0.4800  1.6122  0.9812
16787TIP3    H271853   1.979   1.385   5.001 -1.7595 -2.8195 -1.9695
16788TIP3   OH271854   5.797   1.294   1.605 -0.0044 -0.2593  0.3035
16788TIP3    H171855   5.751   1.250   1.676 -0.4033  1.2609  1.0170
16788TIP3    H271856   5.773   1.246   1.526 -0.9058 -0.9332  0.9875
16789TIP3   OH271857   1.060   0.597   4.542  0.0423 -0.1293 -0.1877
16789TIP3    H171858   1.132   0.635   4.492  0.4485 -2.3577 -1.3848
16789TIP3    H271859   1.087   0.507   4.558 -1.5028 -0.3451  1.3096
16790TIP3   OH271860   2.536   3.486   2.720 -0.5354  0.2776 -0.0133
16790TIP3    H171861   2.575   3.570   2.699 -2.4338  1.0093 -0.7831
16790TIP3    H271862   2.577   3.424   2.660  0.8926  0.6411  0.5831
16791TIP3   OH271863   0.978   0.691  11.860  0.0021  0.1761 -0.6463
16791TIP3    H171864   0.945   0.769  11.904  3.5392  0.5201  1.6569
16791TIP3    H271865   1.011   0.724  11.776  1.0684  1.1232  0.1198
16792TIP3   OH271866   2.667   2.662   2.913  0.0619  0.3277  0.6782
16792TIP3    H171867   2.614   2.586   2.936 -0.6693 -0.1681 -2.4210
16792TIP3    H271868   2.757   2.628   2.908  0.1850  0.3669  2.2817
16793TIP3   OH271869   2.647   4.884  12.703 -0.4632  0.0886  0.0844
16793TIP3    H171870   2.666   4.967  12.658  4.7188 -0.5177  0.7832
16793TIP3    H271871   2.618   4.825  12.634 -2.6454  1.9540 -0.6796
16794TIP3   OH271872   6.165   6.511   1.074  0.1312 -0.4811  0.0501
16794TIP3    H171873   6.079   6.548   1.092 -0.7453 -1.6431 -1.5434
16794TIP3    H271874   6.152   6.416   1.078  1.0255 -0.6863 -1.4639
16795TIP3   OH271875   2.157   1.206  16.361 -0.3796 -0.5204 -0.2281
16795TIP3    H171876   2.085   1.203  16.425 -0.1108 -0.0386  0.0981
16795TIP3    H271877   2.134   1.139  16.297 -0.7481 -0.8848  0.2729
16796TIP3   OH271878   3.621   1.897   2.850 -0.0820 -0.1879 -0.1514
16796TIP3    H171879   3.579   1.811   2.844 -0.6684  0.1138 -0.5445
16796TIP3    H271880   3.688   1.888   2.917 -2.2140 -0.1037  2.0692
16797TIP3   OH271881   2.632   4.007   0.696 -0.1745  0.5948  0.5109
16797TIP3    H171882   2.614   4.082   0.753 -2.2592  0.8371 -0.4003
16797TIP3    H271883   2.596   3.932   0.743  0.8672  0.3322  0.8961
16798TIP3   OH271884   3.164   5.612   4.760 -0.3203  0.1276 -0.2459
16798TIP3    H171885   3.140   5.578   4.674  2.8861 -0.3726 -1.0291
16798TIP3    H271886   3.200   5.536   4.806 -0.7856  0.6852  1.0663
16799TIP3   OH271887   1.836   5.390   5.498  0.6776 -0.0999  0.7627
16799TIP3    H171888   1.819   5.331   5.572  1.2115 -1.2752 -0.0299
16799TIP3    H271889   1.880   5.465   5.536  0.2618 -0.3615  1.7577
16800TIP3   OH271890   3.577   5.625   1.676 -0.2897 -0.0546  0.6860
16800TIP3    H171891   3.667   5.595   1.687  0.5335  2.1385  0.0414
16800TIP3    H271892   3.565   5.630   1.581 -1.4820 -1.4197  0.7367
16801TIP3   OH271893   6.234   2.323   3.170  0.5643  0.1068  0.3319
16801TIP3    H171894   6.150   2.279   3.168  1.6521 -2.0877  1.2176
16801TIP3    H271895   6.291   2.270   3.113  1.1830  1.9447 -0.8167
16802TIP3   OH271896   0.933   4.281  13.881  0.5753  0.2535 -0.1123
16802TIP3    H171897   0.991   4.274  13.957  0.9244  2.0944 -0.1994
16802TIP3    H271898   0.989   4.263  13.806  0.7073  0.6161 -0.0979
16803TIP3   OH271899   2.124   4.101   5.588  0.5209 -0.3486  0.0440
16803TIP3    H171900   2.107   4.162   5.516 -0.0209  0.5964  0.9520
16803TIP3    H271901   2.037   4.069   5.613  0.5469  0.5505  1.3180
16804TIP3   OH271902   3.065   3.204  12.923 -0.3766 -0.6247  0.0445
16804TIP3    H171903   3.014   3.123  12.918  0.7513 -1.3394 -0.0265
16804TIP3    H271904   3.070   3.235  12.833 -0.3609 -0.7457  0.0049
16805TIP3   OH271905   5.618   4.811  15.151  1.0250 -0.0733  0.5887
16805TIP3    H171906   5.638   4.726  15.189  1.1953 -0.2994 -0.0012
16805TIP3    H271907   5.692   4.866  15.175  1.9412 -0.6674 -0.8238
16806TIP3   OH271908   3.432   3.647   3.146  0.2902 -0.1849  0.4543
16806TIP3    H171909   3.515   3.600   3.152  0.5467  0.0833 -0.8578
16806TIP3    H271910   3.366   3.579   3.133  0.8125 -0.1478 -2.8267
16807TIP3   OH271911   1.902   3.879  14.933  0.0571  1.0536  0.5457
16807TIP3    H171912   1.895   3.931  14.853 -3.5057  2.0080  1.3931
16807TIP3    H271913   1.949   3.936  14.995  0.7565  1.2104 -0.1210
16808TIP3   OH271914   3.926   2.959  17.169 -0.6392  0.1595 -0.0349
16808TIP3    H171915   3.932   3.054  17.169 -0.3669  0.1422  0.0883
16808TIP3    H271916   4.015   2.929  17.153 -0.5156 -0.0824  1.0347
16809TIP3   OH271917   3.543   3.247   5.439  0.2943 -0.2488  0.5857
16809TIP3    H171918   3.597   3.268   5.363  0.4780  0.3812  0.8878
16809TIP3    H271919   3.581   3.167   5.475  0.6964 -0.0995  0.4891
16810TIP3   OH271920   0.727   4.423  15.438 -0.2015  0.1133  0.0576
16810TIP3    H171921   0.706   4.382  15.521  1.0553 -0.9910 -0.1438
16810TIP3    H271922   0.762   4.509  15.461 -0.6983  0.1654  0.6130
16811TIP3   OH271923   0.111   4.422  15.013 -0.2440  0.7271  0.7513
16811TIP3    H171924   0.080   4.472  14.938  0.5337 -1.4573 -1.0953
16811TIP3    H271925   0.062   4.340  15.009  0.8394  0.0066  1.8047
16812TIP3   OH271926   6.073   0.694   4.830 -0.1065 -0.2179 -0.0871
16812TIP3    H171927   6.156   0.717   4.872 -0.3383 -1.1542  0.9032
16812TIP3    H271928   6.094   0.618   4.776 -0.4804 -0.8999  0.7307
16813TIP3   OH271929   0.644   5.621   5.035 -0.6719 -0.3082  0.3823
16813TIP3    H171930   0.673   5.674   4.960  2.4732  0.4344  2.0416
16813TIP3    H271931   0.694   5.541   5.028 -0.3345 -0.2175  1.7257
16814TIP3   OH271932   0.342   0.164  12.720  0.8174  0.0007  0.2509
16814TIP3    H171933   0.261   0.166  12.669 -0.7861  1.6081  2.7642
16814TIP3    H271934   0.400   0.106  12.670 -2.2851 -2.2119 -0.9915
16815TIP3   OH271935   6.208   6.213  11.793 -0.2726  0.4642  0.0790
16815TIP3    H171936   6.210   6.127  11.751 -0.9596 -0.2281  1.4354
16815TIP3    H271937   6.180   6.195  11.883  1.3184  1.9106  0.8834
16816TIP3   OH271938   1.195   5.900   6.203 -0.6176 -0.2334  0.0346
16816TIP3    H171939   1.238   5.846   6.268  2.0905  1.4405 -0.3019
16816TIP3    H271940   1.121   5.939   6.250  0.9937  0.5485  1.9860
16817TIP3   OH271941   4.185   1.313  16.634 -0.2850  0.2224  0.0270
16817TIP3    H171942   4.207   1.391  16.584  1.3293  0.0305  0.3887
16817TIP3    H271943   4.150   1.346  16.717  0.9817  0.5866  0.4333
16818TIP3   OH271944   1.150   0.396   0.527  0.1408 -0.0431  0.3051
16818TIP3    H171945   1.061   0.418   0.556 -0.1166 -0.8292  0.1222
16818TIP3    H271946   1.195   0.369   0.607 -0.2141 -1.0456  0.1686
16819TIP3   OH271947   0.129   5.115   6.498  0.2565 -0.0109 -0.8327
16819TIP3    H171948   0.175   5.150   6.574 -0.1081  0.8698 -1.0080
16819TIP3    H271949   0.136   5.020   6.507  1.9728  0.0979 -0.7778
16820TIP3   OH271950   2.040   0.310   3.888 -0.1716 -0.6635  0.1405
16820TIP3    H171951   2.081   0.371   3.949 -0.8342 -1.4056  1.3653
16820TIP3    H271952   1.963   0.277   3.935 -0.8624 -1.0376 -1.2154
16821TIP3   OH271953   2.775   5.846  14.764  0.4966  0.6819  0.0978
16821TIP3    H171954   2.770   5.941  14.755  1.5146  0.7008 -0.3064
16821TIP3    H271955   2.707   5.825  14.829  0.3930  1.6985  0.3347
16822TIP3   OH271956   1.590   6.337   1.679 -0.2401 -0.2630 -0.5736
16822TIP3    H171957   1.561   6.297   1.597 -0.6939  0.4725 -0.7818
16822TIP3    H271958   1.576   6.431   1.666 -1.4717 -0.2384  0.7805
16823TIP3   OH271959   1.512   5.915  13.982  0.1228 -0.4043  0.2267
16823TIP3    H171960   1.423   5.918  14.016  0.3018 -1.8688  0.8438
16823TIP3    H271961   1.517   5.833  13.933 -0.1124  1.5786 -3.3458
16824TIP3   OH271962   6.619   1.683  11.780  0.4189  0.7375 -0.1146
16824TIP3    H171963   6.621   1.722  11.867 -0.3746  1.2464 -0.3122
16824TIP3    H271964   6.563   1.742  11.729  0.9043  0.4676 -0.9769
16825TIP3   OH271965   5.262   5.309   3.294  0.1513 -0.0472  0.7748
16825TIP3    H171966   5.308   5.252   3.232 -1.3371  1.5646 -1.8641
16825TIP3    H271967   5.318   5.387   3.301 -0.3381  0.3338  0.4396
16826TIP3   OH271968   1.929   0.340   5.888  0.3483 -0.5336  0.2230
16826TIP3    H171969   1.917   0.416   5.832 -1.0360  0.5738  1.9720
16826TIP3    H271970   1.860   0.279   5.862 -0.1240 -0.1354  0.5508
16827TIP3   OH271971   1.615   5.162   5.060 -0.1374 -0.3470  0.2801
16827TIP3    H171972   1.666   5.093   5.103 -0.4017 -0.5476  0.2721
16827TIP3    H271973   1.533   5.167   5.110 -0.7906 -1.1385 -0.6773
16828TIP3   OH271974   3.198   4.888  15.800 -0.3033 -0.0445 -0.6019
16828TIP3    H171975   3.163   4.929  15.721  0.0622  0.1513 -0.6687
16828TIP3    H271976   3.264   4.826  15.767  0.2593  0.4552 -0.4268
16829TIP3   OH271977   6.583   1.144   2.493 -0.8500 -0.0054 -0.0446
16829TIP3    H171978   6.515   1.210   2.478 -1.0619 -0.0826  0.5800
16829TIP3    H271979   6.579   1.126   2.587  0.8505  0.8631  0.2058
16830TIP3   OH271980   1.774   6.558  10.951 -0.1486  0.3245  0.0792
16830TIP3    H171981   1.825   6.624  10.999 -0.9286  1.2401 -0.3133
16830TIP3    H271982   1.824   6.477  10.961  0.4142  0.7925  1.2762
16831TIP3   OH271983   4.971   5.745  14.162 -0.0419  0.5798 -0.5056
16831TIP3    H171984   4.998   5.698  14.241 -0.9633  0.7800 -0.0646
16831TIP3    H271985   4.878   5.760  14.174 -0.1700  0.6856 -1.6068
16832TIP3   OH271986   1.174   3.605  13.469  0.1564 -0.3897  0.1343
16832TIP3    H171987   1.102   3.620  13.531  0.1072 -2.9831  0.7516
16832TIP3    H271988   1.252   3.601  13.524  0.7166  1.7161 -0.4689
16833TIP3   OH271989   2.043   2.581   2.801  0.3246  0.6228  0.3429
16833TIP3    H171990   2.138   2.569   2.806  0.2887 -0.5289 -1.4834
16833TIP3    H271991   2.009   2.540   2.881  1.2225 -0.5112  0.1476
16834TIP3   OH271992   4.484   1.708  16.924  0.2464 -0.1445  0.4424
16834TIP3    H171993   4.391   1.685  16.931  0.2561 -0.6536 -1.0249
16834TIP3    H271994   4.485   1.804  16.929 -0.7598  0.1363 -3.5315
16835TIP3   OH271995   1.339   1.730   0.881  0.4461  0.0491 -0.2480
16835TIP3    H171996   1.314   1.821   0.899  0.4935 -0.1444  0.8180
16835TIP3    H271997   1.345   1.725   0.786 -3.3236  0.1671 -0.5528
16836TIP3   OH271998   4.268   4.391   5.757  0.1552 -0.0922 -0.3322
16836TIP3    H171999   4.291   4.407   5.849 -1.3622 -1.2150  0.2718
16836TIP3    H272000   4.251   4.297   5.752  1.0153 -0.1801 -1.9605
16837TIP3   OH272001   6.468   0.133   0.016  0.3548  0.0540  0.4658
16837TIP3    H172002   6.427   0.111  -0.068 -1.6160 -0.0748  1.4384
16837TIP3    H272003   6.453   0.057   0.071 -2.2033  1.8107  2.2895
16838TIP3   OH272004   6.723   2.036   1.328  0.6356  0.1041  0.6212
16838TIP3    H172005   6.678   2.120   1.315 -2.3743 -1.3721  1.2688
16838TIP3    H272006   6.777   2.050   1.406  0.0783  1.3856  0.7927
16839TIP3   OH272007   6.681   5.843   1.214 -0.1126  0.0963  0.4487
16839TIP3    H172008   6.690   5.750   1.235  0.2725  0.4621  1.9597
16839TIP3    H272009   6.765   5.868   1.176  0.1102  0.0531  0.9192
16840TIP3   OH272010   4.751   3.030   4.220 -0.6001  0.0046  0.0984
16840TIP3    H172011   4.843   3.046   4.202 -0.1577  0.7292  2.8127
16840TIP3    H272012   4.744   2.934   4.224 -0.2576 -0.0995 -1.3808
16841TIP3   OH272013   2.826   5.365   1.753  0.5068 -0.1356 -0.0137
16841TIP3    H172014   2.885   5.352   1.678  1.4761 -1.6591  0.9760
16841TIP3    H272015   2.764   5.292   1.748  0.2479  0.0569  0.3704
16842TIP3   OH272016   3.770   3.599   6.253  0.1865 -0.0823 -0.2615
16842TIP3    H172017   3.764   3.693   6.271  0.3544  0.3268 -2.2990
16842TIP3    H272018   3.806   3.561   6.334  0.0766  1.5871  0.5825
16843TIP3   OH272019   2.818   6.006  11.599  0.1943 -0.1197 -0.1202
16843TIP3    H172020   2.815   5.963  11.513  1.1715  2.1078 -1.3189
16843TIP3    H272021   2.728   6.034  11.615 -0.2396 -1.6122  0.1848
16844TIP3   OH272022   3.160   4.877   0.232 -0.2375  0.2881  0.3889
16844TIP3    H172023   3.225   4.946   0.245 -1.2279  1.7082 -1.9173
16844TIP3    H272024   3.078   4.924   0.217 -0.8007 -1.3641 -1.9510
16845TIP3   OH272025   5.131   2.106   3.144 -0.3192  0.0576 -0.0727
16845TIP3    H172026   5.136   2.113   3.048 -1.5565 -0.1490 -0.1631
16845TIP3    H272027   5.215   2.069   3.169  0.4548  1.1438 -0.9750
16846TIP3   OH272028   4.282   0.525   3.807  0.3091  0.7424 -0.1050
16846TIP3    H172029   4.373   0.498   3.815  0.6081  1.1158 -2.0001
16846TIP3    H272030   4.233   0.457   3.853  1.5631  0.8521  1.4412
16847TIP3   OH272031   5.231   4.169  13.540  0.1080 -0.0563 -0.1933
16847TIP3    H172032   5.305   4.118  13.508  0.2237  1.1974 -2.0021
16847TIP3    H272033   5.230   4.247  13.485 -1.2316  0.9823  1.2582
16848TIP3   OH272034   0.627   5.455  15.904  0.1127 -0.7457  0.5303
16848TIP3    H172035   0.679   5.375  15.898  0.3430 -0.5024 -1.0646
16848TIP3    H272036   0.682   5.522  15.864  0.1220  0.3197  2.3086
16849TIP3   OH272037   3.576   3.151  13.580  0.5060 -0.5187 -0.5712
16849TIP3    H172038   3.665   3.162  13.614  1.0758 -2.5482 -1.3376
16849TIP3    H272039   3.584   3.082  13.515 -1.3845  0.2966 -1.7014
16850TIP3   OH272040   2.652   4.386  14.157  0.0116 -0.2971  0.1751
16850TIP3    H172041   2.624   4.358  14.244 -2.9728  0.7154 -0.3878
16850TIP3    H272042   2.574   4.426  14.118  1.5809  0.2838 -2.5533
16851TIP3   OH272043   4.209   5.465  15.405  0.5300 -0.1386 -0.2371
16851TIP3    H172044   4.277   5.510  15.355  0.0985  0.5138 -0.2502
16851TIP3    H272045   4.235   5.475  15.496 -0.5835  1.8678 -0.1148
16852TIP3   OH272046   5.624   6.596  12.763 -0.0362  0.2255 -0.0455
16852TIP3    H172047   5.662   6.664  12.818  1.9339  1.5718 -3.0051
16852TIP3    H272048   5.656   6.614  12.675 -0.6643 -3.6576 -1.1809
16853TIP3   OH272049   5.091   2.249   1.419  0.4937  0.6783  0.2514
16853TIP3    H172050   5.119   2.323   1.366 -0.3111  0.5169 -0.4194
16853TIP3    H272051   5.039   2.195   1.359 -0.2908  0.4004  1.1629
16854TIP3   OH272052   4.701   4.394   5.793  0.3994  0.0406  0.0529
16854TIP3    H172053   4.613   4.357   5.792 -0.3548  1.7691 -0.8937
16854TIP3    H272054   4.711   4.429   5.882  0.0683 -0.0350  0.1199
16855TIP3   OH272055   0.719   4.177  11.542  0.1457  0.4033  0.1623
16855TIP3    H172056   0.767   4.258  11.556 -0.3552  0.7419 -0.0647
16855TIP3    H272057   0.627   4.204  11.538 -0.0470 -0.2145  0.4209
16856TIP3   OH272058   3.546   4.117  14.059  0.0808 -0.4179  0.4987
16856TIP3    H172059   3.555   4.200  14.105  0.5324  0.5516 -1.3006
16856TIP3    H272060   3.456   4.089  14.077 -0.6413  1.3359 -0.2983
16857TIP3   OH272061   3.937   0.178  12.191  0.2845 -0.3768 -0.2904
16857TIP3    H172062   4.029   0.191  12.214  0.5304 -1.3588 -0.7370
16857TIP3    H272063   3.890   0.240  12.248  1.1247 -0.6548  0.7247
16858TIP3   OH272064   4.413   0.096  15.854 -0.1338  0.5331 -0.0687
16858TIP3    H172065   4.351   0.164  15.830 -0.5782  0.0208 -0.3942
16858TIP3    H272066   4.361   0.032  15.902  0.1726  0.1809 -0.2008
16859TIP3   OH272067   1.494   1.795   0.203  0.8389 -0.2704 -0.6008
16859TIP3    H172068   1.538   1.859   0.259  0.7817 -0.8936  0.1602
16859TIP3    H272069   1.565   1.750   0.158  0.9937 -1.2956  0.6475
16860TIP3   OH272070   2.960   6.010   3.421  0.5382  0.6675  0.2703
16860TIP3    H172071   2.905   5.982   3.348  1.3991  0.7746 -0.4271
16860TIP3    H272072   3.048   6.019   3.383  0.7881  1.7294  1.0823
16861TIP3   OH272073   1.446   4.039  16.183  0.2830  0.5757  0.0174
16861TIP3    H172074   1.473   4.097  16.254 -1.0475  2.8428 -1.2642
16861TIP3    H272075   1.509   4.056  16.112 -0.8068  1.3191 -0.7799
16862TIP3   OH272076   0.190   1.533  17.191 -0.5052  0.0968  0.6089
16862TIP3    H172077   0.167   1.494  17.106 -0.0405 -0.5787  0.7844
16862TIP3    H272078   0.264   1.590  17.172 -0.6136  0.2006  0.4992
16863TIP3   OH272079   2.767   0.466  16.162 -0.0970 -0.6715 -0.6462
16863TIP3    H172080   2.728   0.379  16.160 -0.2356 -0.6044 -0.8781
16863TIP3    H272081   2.698   0.525  16.131  0.0497 -0.5001 -0.6527
16864TIP3   OH272082   2.837   0.671   2.824  0.0538 -0.6371 -0.1200
16864TIP3    H172083   2.833   0.706   2.913  0.2690  0.0993 -0.4006
16864TIP3    H272084   2.758   0.617   2.817 -1.3381  1.3589 -0.3402
16865TIP3   OH272085   5.363   4.809  14.644 -0.0537 -0.0272 -0.2233
16865TIP3    H172086   5.407   4.797  14.728  1.1890 -1.3770 -1.0513
16865TIP3    H272087   5.276   4.770  14.658  0.4948 -1.1553  0.1479
16866TIP3   OH272088   4.953   4.594  12.618 -0.3003  0.3285  0.4277
16866TIP3    H172089   5.037   4.575  12.659 -1.1166 -0.0263  1.9865
16866TIP3    H272090   4.975   4.637  12.535  1.4154 -0.4649  0.4629
16867TIP3   OH272091   0.047   2.133   3.102  0.3967  0.0847 -0.3287
16867TIP3    H172092  -0.034   2.177   3.130 -1.0570 -3.2179  0.8972
16867TIP3    H272093   0.024   2.092   3.019  1.0458 -0.2563 -0.3426
16868TIP3   OH272094   0.771   0.877   2.408  0.4690 -0.4250  0.3089
16868TIP3    H172095   0.690   0.923   2.388  0.0616 -0.9989  0.6415
16868TIP3    H272096   0.791   0.900   2.498  3.9716  4.7032 -1.5171
16869TIP3   OH272097   0.754   3.887  11.633 -0.6421  0.5030 -0.1489
16869TIP3    H172098   0.676   3.846  11.595 -0.9638  0.2772  0.7498
16869TIP3    H272099   0.762   3.970  11.586 -2.6929  1.5413  1.2456
16870TIP3   OH272100   1.533   0.436   4.082  0.1803 -0.6572  0.0859
16870TIP3    H172101   1.440   0.413   4.086 -0.4534  1.7374 -0.3018
16870TIP3    H272102   1.571   0.372   4.023 -1.7786  0.0478 -1.9940
16871TIP3   OH272103   0.052   3.497   2.977 -0.0538 -0.5066 -0.2598
16871TIP3    H172104  -0.040   3.512   2.998 -0.0465  2.4768 -2.0616
16871TIP3    H272105   0.089   3.459   3.056 -2.4957 -0.3237  1.0267
16872TIP3   OH272106   4.789   5.389  15.204 -0.9197  0.2739 -0.6702
16872TIP3    H172107   4.701   5.407  15.237  0.2924  2.4503  1.5221
16872TIP3    H272108   4.804   5.297  15.227 -1.2675  0.9026  2.2894
16873TIP3   OH272109   2.345   3.292  13.499 -0.2921 -0.1878  0.4922
16873TIP3    H172110   2.343   3.385  13.520  2.4932  0.3074 -1.1110
16873TIP3    H272111   2.414   3.257  13.556  0.0599 -0.8668 -0.3442
16874TIP3   OH272112   3.502   3.533   5.068 -0.0651  0.1121  0.1949
16874TIP3    H172113   3.461   3.617   5.090  0.3397  0.2460  0.4454
16874TIP3    H272114   3.452   3.501   4.994 -0.6531  0.2586  0.5224
16875TIP3   OH272115   3.872   2.563  12.556 -0.3660  0.0228  0.2279
16875TIP3    H172116   3.925   2.504  12.611  0.1954  0.8018  0.5266
16875TIP3    H272117   3.788   2.568  12.601  0.4585  1.5559  1.6515
16876TIP3   OH272118   6.316   4.524  16.925  0.1035 -0.5430 -0.1376
16876TIP3    H172119   6.294   4.512  16.832 -0.4915  0.1514 -0.0884
16876TIP3    H272120   6.311   4.436  16.962  2.0195 -1.1129 -1.1093
16877TIP3   OH272121   6.064   5.570  15.141  0.1957  0.4534 -0.3376
16877TIP3    H172122   6.099   5.633  15.203 -0.2498  1.4780 -1.1161
16877TIP3    H272123   5.992   5.616  15.097 -1.1118 -1.0781  0.1269
16878TIP3   OH272124   2.914   0.069   1.664  0.1695  0.3725 -0.3724
16878TIP3    H172125   2.833   0.022   1.685  0.8626 -0.2028  1.0515
16878TIP3    H272126   2.981   0.027   1.717  1.3055  1.2368 -1.0951
16879TIP3   OH272127   0.119   1.413  12.036 -0.2983  0.2578  0.3106
16879TIP3    H172128   0.162   1.463  12.106  2.1582  0.3395 -1.1731
16879TIP3    H272129   0.026   1.433  12.045  0.0824  0.9835  2.9687
16880TIP3   OH272130   3.626   1.019   0.919  0.3832 -0.4487 -0.3311
16880TIP3    H172131   3.590   1.093   0.870  1.7594  0.2477 -0.2969
16880TIP3    H272132   3.565   1.008   0.993  1.7605  2.5577  1.3417
16881TIP3   OH272133   3.032   6.078   2.862 -0.2646 -0.2765  0.3667
16881TIP3    H172134   2.965   6.097   2.928 -2.6248  0.8041 -2.2365
16881TIP3    H272135   3.031   5.983   2.854 -1.1233 -0.3130  0.7734
16882TIP3   OH272136   6.285   4.394   1.604 -0.3309 -0.7404  0.1954
16882TIP3    H172137   6.362   4.445   1.631 -0.4914 -0.5311  0.2595
16882TIP3    H272138   6.315   4.345   1.528 -0.7827  1.1273 -1.2320
16883TIP3   OH272139   2.618   6.270  15.979  0.0267 -0.2890 -0.4076
16883TIP3    H172140   2.648   6.358  15.957 -0.8666  0.2506  0.4699
16883TIP3    H272141   2.544   6.254  15.921 -0.3825 -0.0986  0.0615
16884TIP3   OH272142   2.683   3.405  14.466 -0.2946 -0.0055  0.5329
16884TIP3    H172143   2.689   3.315  14.436  0.5607  0.3626 -0.4546
16884TIP3    H272144   2.601   3.410  14.514 -0.0436 -1.4642  1.1315
16885TIP3   OH272145   5.587   2.327  11.952  0.1215 -0.4740  0.2570
16885TIP3    H172146   5.668   2.346  11.999  2.1224 -1.2060 -2.6943
16885TIP3    H272147   5.569   2.408  11.903 -0.1441 -0.7929 -0.1748
16886TIP3   OH272148   0.637   4.327  16.108 -0.2497  0.1487 -0.6322
16886TIP3    H172149   0.611   4.418  16.096 -2.1218 -0.2679  0.0020
16886TIP3    H272150   0.656   4.320  16.202 -0.1848 -0.1202 -0.6665
16887TIP3   OH272151   2.108   5.809   1.726  0.0602  0.5601 -0.4016
16887TIP3    H172152   2.072   5.788   1.812  0.0931  1.0051 -0.2781
16887TIP3    H272153   2.190   5.855   1.744  0.5957 -0.2688 -0.6832
16888TIP3   OH272154   4.518   2.416   5.099  0.4068  0.1508  0.3128
16888TIP3    H172155   4.608   2.389   5.115  0.3949 -1.5437 -2.1988
16888TIP3    H272156   4.516   2.442   5.007 -1.1774  2.3655  0.9269
16889TIP3   OH272157   3.479   2.905   5.039 -0.1772 -0.0332  0.2798
16889TIP3    H172158   3.462   2.988   4.995 -1.4211  0.6719  2.0509
16889TIP3    H272159   3.394   2.878   5.074  0.7396 -0.6388  2.1361
16890TIP3   OH272160   1.088   3.435   1.207 -0.0319 -0.2436  0.3906
16890TIP3    H172161   1.064   3.361   1.151  0.8453 -0.7198  0.6334
16890TIP3    H272162   1.045   3.510   1.166  0.6362 -0.5751 -0.9719
16891TIP3   OH272163   1.369   1.292  15.536 -0.1822 -0.6695  0.7674
16891TIP3    H172164   1.402   1.301  15.447 -1.1392  1.8572  0.6050
16891TIP3    H272165   1.301   1.225  15.531 -0.2047 -0.5648 -0.4028
16892TIP3   OH272166   4.567   5.295   4.485  0.0040  0.1688  0.3024
16892TIP3    H172167   4.484   5.319   4.525 -0.0171 -1.2549  1.1449
16892TIP3    H272168   4.543   5.256   4.402 -0.1412  0.0698  0.3915
16893TIP3   OH272169   6.256   1.805  12.022 -0.4071 -0.0715  0.8091
16893TIP3    H172170   6.292   1.864  11.956 -1.1415  0.8226  1.1954
16893TIP3    H272171   6.312   1.818  12.099  0.3882 -1.0409  0.4108
16894TIP3   OH272172   0.537   6.807  17.178  0.2456 -0.2932  0.1072
16894TIP3    H172173   0.623   6.810  17.135  0.4159  0.7165  0.5035
16894TIP3    H272174   0.527   6.894  17.216  0.4885 -1.4238  2.8884
16895TIP3   OH272175   0.180   1.986   6.214  0.4506  0.1920 -0.3369
16895TIP3    H172176   0.260   1.936   6.230 -0.5316 -1.1339  0.5676
16895TIP3    H272177   0.158   2.025   6.298 -0.4066 -0.3143 -0.3079
16896TIP3   OH272178   2.137   0.455   5.206  0.0311 -0.3091  0.5548
16896TIP3    H172179   2.123   0.452   5.301 -0.0188 -0.7026  0.5375
16896TIP3    H272180   2.118   0.545   5.181 -1.5646 -0.5864  0.6824
16897TIP3   OH272181   3.623   1.065  15.086 -0.3593 -0.2397  0.4130
16897TIP3    H172182   3.651   0.973  15.083  0.5309 -0.0013  1.0520
16897TIP3    H272183   3.560   1.073  15.015 -0.0188 -1.2079 -0.0147
16898TIP3   OH272184   2.761   1.973   1.934  0.0551 -0.4355  0.1325
16898TIP3    H172185   2.775   2.066   1.917  0.7147 -0.7086 -0.8951
16898TIP3    H272186   2.705   1.944   1.862 -0.5078 -0.7381  0.6937
16899TIP3   OH272187   4.730   5.707  16.610 -0.7318 -0.2821 -0.2059
16899TIP3    H172188   4.814   5.692  16.565 -1.5919  0.8066 -2.2210
16899TIP3    H272189   4.742   5.791  16.655 -0.9199  0.1275 -0.9221
16900TIP3   OH272190   3.383   1.947   0.218  0.6546  0.1585  0.4675
16900TIP3    H172191   3.421   1.939   0.131  1.9971 -0.0201  1.0504
16900TIP3    H272192   3.374   1.856   0.249 -1.4956  0.1294 -0.1741
16901TIP3   OH272193   4.585   4.210   4.853  0.1278  0.7180  0.7764
16901TIP3    H172194   4.600   4.123   4.817  0.4352  1.3402 -0.6729
16901TIP3    H272195   4.608   4.203   4.945  2.3341 -0.1871  0.1836
16902TIP3   OH272196   1.817   1.459  11.504 -0.0984 -0.0583  0.3664
16902TIP3    H172197   1.774   1.377  11.481 -2.3683  1.2539 -0.2760
16902TIP3    H272198   1.870   1.481  11.426  2.0856 -1.8392  1.2833
16903TIP3   OH272199   5.317   2.904  13.323 -0.0532  0.0927  0.3154
16903TIP3    H172200   5.263   2.972  13.285 -1.0438 -2.2258 -2.5906
16903TIP3    H272201   5.255   2.845  13.366  0.7797  0.8378  2.6544
16904TIP3   OH272202   1.136   0.648   2.031  0.2843  0.2885  0.2998
16904TIP3    H172203   1.197   0.640   2.104 -1.3703 -3.0666  1.4750
16904TIP3    H272204   1.183   0.611   1.956  0.8298  0.6845  0.4458
16905TIP3   OH272205   1.209   1.420  13.081  0.2553 -0.1156 -0.0699
16905TIP3    H172206   1.145   1.373  13.136  0.9613  1.3178  2.0517
16905TIP3    H272207   1.294   1.400  13.120  0.7271  1.3462 -0.3057
16906TIP3   OH272208   5.934   1.580   1.261  0.0261 -0.2653  0.0415
16906TIP3    H172209   5.946   1.612   1.172  1.6969 -4.1865 -1.2666
16906TIP3    H272210   5.853   1.529   1.257 -1.2438  1.5570  1.4570
16907TIP3   OH272211   6.440   3.189  15.206  0.2140 -0.0181  0.3657
16907TIP3    H172212   6.432   3.218  15.114  1.8309 -1.2733 -0.1888
16907TIP3    H272213   6.436   3.271  15.256 -0.4985  0.7051 -0.8182
16908TIP3   OH272214   2.864   0.747  16.031 -0.0644  0.1454  0.4210
16908TIP3    H172215   2.862   0.687  16.105 -0.7764  1.0063  1.1097
16908TIP3    H272216   2.913   0.823  16.062 -0.4672  0.5624  0.0482
16909TIP3   OH272217   3.135   0.027   1.318 -0.2213  0.4323 -0.9955
16909TIP3    H172218   3.066  -0.033   1.346  0.1685  0.7319  0.6142
16909TIP3    H272219   3.177  -0.018   1.245  1.7658 -2.4852  1.8282
16910TIP3   OH272220   1.269   5.562   3.217 -0.0935 -0.1759  0.2111
16910TIP3    H172221   1.220   5.624   3.162  1.1605  0.2399 -0.4561
16910TIP3    H272222   1.312   5.504   3.154  1.7558  0.6125  0.7189
16911TIP3   OH272223   4.930   0.761  15.351 -0.3559  0.1720 -0.1734
16911TIP3    H172224   4.943   0.800  15.437 -2.3646 -0.3062  0.3683
16911TIP3    H272225   4.896   0.832  15.297  2.6070  0.9430 -1.0887
16912TIP3   OH272226   4.697   4.497   3.914  0.6926  0.4247  0.2066
16912TIP3    H172227   4.766   4.557   3.941  0.9734 -0.5394  1.6967
16912TIP3    H272228   4.710   4.485   3.820  1.7114  1.3055  0.2309
16913TIP3   OH272229   1.134   1.184  11.560  0.3416 -0.5561  0.4733
16913TIP3    H172230   1.086   1.231  11.627  0.6946  1.6355 -0.7473
16913TIP3    H272231   1.068   1.131  11.515 -0.2534 -0.4175  1.1756
16914TIP3   OH272232   2.215   5.437  12.035  0.2944 -0.2262  0.0612
16914TIP3    H172233   2.227   5.531  12.030  1.7179 -0.4282 -0.3507
16914TIP3    H272234   2.187   5.411  11.947  1.0384 -0.3408 -0.1467
16915TIP3   OH272235   0.974   1.677   4.196  0.5097 -0.0640  0.2051
16915TIP3    H172236   0.996   1.584   4.194  1.9826  0.2773 -0.0489
16915TIP3    H272237   0.921   1.687   4.275  1.7856 -0.8206  1.1766
16916TIP3   OH272238   4.118   2.751   5.922  0.5142  0.3654 -0.3637
16916TIP3    H172239   4.089   2.813   5.989  0.0157  0.0855 -0.3197
16916TIP3    H272240   4.200   2.789   5.888  1.0753  0.2254  0.7977
16917TIP3   OH272241   5.105   1.538   0.349 -0.4383 -0.0692 -0.2946
16917TIP3    H172242   5.127   1.617   0.399 -2.4374  0.0976  0.3723
16917TIP3    H272243   5.044   1.491   0.406 -0.0906 -1.5750 -1.1539
16918TIP3   OH272244   3.410   0.732  14.422 -0.0536 -1.2240 -0.4023
16918TIP3    H172245   3.450   0.728  14.335 -0.0135 -1.0480 -0.3926
16918TIP3    H272246   3.428   0.647  14.461  0.5598 -1.0413 -0.2873
16919TIP3   OH272247   5.989   5.952   5.036  0.3157  0.2611  0.8238
16919TIP3    H172248   5.905   5.985   5.002  1.1606  3.3482  1.5397
16919TIP3    H272249   5.965   5.892   5.106 -1.3286 -1.1730 -0.9048
16920TIP3   OH272250   6.431   1.362   5.577 -0.1331 -0.4115 -0.8660
16920TIP3    H172251   6.504   1.310   5.544  0.7230 -0.7457  1.4343
16920TIP3    H272252   6.410   1.422   5.506  1.7442 -0.9670 -1.9341
16921TIP3   OH272253   3.181   6.280  12.376 -0.5452 -0.0379  0.5839
16921TIP3    H172254   3.194   6.218  12.304  0.0928  1.4472 -0.6324
16921TIP3    H272255   3.257   6.267  12.433 -0.2533 -0.1691  0.1697
16922TIP3   OH272256   0.634   4.381  14.133 -0.0710 -0.4154 -0.2407
16922TIP3    H172257   0.687   4.305  14.156  2.2377 -0.0231 -3.8233
16922TIP3    H272258   0.686   4.457  14.162 -0.5432 -0.1163 -0.1687
16923TIP3   OH272259   0.048   6.169  15.053  0.2636  0.6187 -0.2099
16923TIP3    H172260   0.121   6.116  15.021 -1.1987 -1.5425 -0.0357
16923TIP3    H272261   0.006   6.203  14.973  0.1413  0.0575 -0.3850
16924TIP3   OH272262   2.319   1.834   5.758 -0.3948 -0.0290 -0.2972
16924TIP3    H172263   2.348   1.916   5.798 -0.1366 -0.2620  0.0044
16924TIP3    H272264   2.332   1.847   5.664  1.4948 -0.4058 -0.1265
16925TIP3   OH272265   1.977   5.719  13.496 -0.4875  0.0413  1.0051
16925TIP3    H172266   1.885   5.699  13.516 -0.1264 -1.5481  1.1339
16925TIP3    H272267   1.978   5.731  13.401 -0.8988  0.4724  1.0506
16926TIP3   OH272268   4.894   3.293  10.371  0.2782 -0.3370 -0.5334
16926TIP3    H172269   4.866   3.206  10.401  1.0057 -1.3037 -2.5899
16926TIP3    H272270   4.830   3.317  10.304 -0.0192  0.8198  0.1420
16927TIP3   OH272271   2.697   3.724  11.412 -0.0712 -0.1773 -0.1279
16927TIP3    H172272   2.775   3.670  11.428 -0.1938 -0.5412 -0.7042
16927TIP3    H272273   2.720   3.810  11.445 -0.3997 -0.9387  2.1383
16928TIP3   OH272274   6.084   4.538  14.172  0.3401  0.3563  0.0009
16928TIP3    H172275   5.999   4.501  14.149 -0.0994  1.2896  0.0694
16928TIP3    H272276   6.076   4.562  14.264  1.4966 -1.7342  0.6736
16929TIP3   OH272277   5.759   0.274   0.917  0.2983  0.2929  0.1740
16929TIP3    H172278   5.792   0.203   0.862  0.2875  1.8692 -1.9734
16929TIP3    H272279   5.699   0.323   0.860 -0.3546  1.5194  1.8533
16930TIP3   OH272280   2.056   5.519  17.103 -0.2295  0.0444  0.6161
16930TIP3    H172281   2.116   5.444  17.106  0.8520  0.8741  0.0262
16930TIP3    H272282   1.990   5.499  17.169  0.1977 -1.3051  0.6555
16931TIP3   OH272283   1.586   4.426   3.959  0.0751  0.0475  0.0969
16931TIP3    H172284   1.659   4.388   3.910  1.5291  1.7483  0.8703
16931TIP3    H272285   1.584   4.518   3.932 -2.8253 -0.3296 -1.0990
16932TIP3   OH272286   4.819   2.812   3.992 -0.2186 -0.2338 -0.2761
16932TIP3    H172287   4.912   2.836   3.986  0.1335 -1.1607  1.2258
16932TIP3    H272288   4.819   2.717   3.983 -0.8267 -0.4271  1.5255
16933TIP3   OH272289   2.474   1.834  14.010  0.1941 -0.1263 -0.4995
16933TIP3    H172290   2.502   1.910  14.061 -1.6047  0.0048  0.3300
16933TIP3    H272291   2.543   1.823  13.945  2.7969 -0.6451  2.2633
16934TIP3   OH272292   5.872   1.589   1.884 -0.0799 -0.2446  0.2043
16934TIP3    H172293   5.853   1.680   1.905  0.2378 -0.3862  1.1015
16934TIP3    H272294   5.924   1.594   1.803 -1.9047  0.2495 -0.9827
16935TIP3   OH272295   1.008   1.318   5.485 -0.1570 -0.1155  0.2462
16935TIP3    H172296   0.923   1.306   5.443 -0.7361  0.9037  1.0922
16935TIP3    H272297   1.064   1.353   5.415 -1.1977  1.8860  0.3633
16936TIP3   OH272298   4.055   0.814   4.550  0.2146  0.1964 -0.0504
16936TIP3    H172299   3.983   0.842   4.494  0.0655 -0.9496 -0.4478
16936TIP3    H272300   4.130   0.868   4.522 -0.0565  0.1933 -0.8009
16937TIP3   OH272301   5.210   5.980  16.613 -0.2706  0.3634 -0.0371
16937TIP3    H172302   5.303   6.000  16.610 -0.3419  0.5513 -0.8678
16937TIP3    H272303   5.199   5.908  16.551 -1.0334  1.7253 -1.5159
16938TIP3   OH272304   1.839   5.265   4.297  0.2826 -0.0089  0.0994
16938TIP3    H172305   1.796   5.180   4.292  1.4843 -0.5139 -2.7677
16938TIP3    H272306   1.900   5.265   4.223  1.0122  2.9552  0.6458
16939TIP3   OH272307   4.488   4.381  16.418  0.6791  0.1719 -1.2900
16939TIP3    H172308   4.561   4.319  16.414 -0.0056 -0.6623 -0.9239
16939TIP3    H272309   4.414   4.335  16.378 -0.9892 -0.9570  2.8006
16940TIP3   OH272310   0.959   1.827  11.314 -0.3179  0.7400 -0.0587
16940TIP3    H172311   1.049   1.810  11.341 -0.4331  1.5233  0.8380
16940TIP3    H272312   0.964   1.841  11.219  0.4079  0.1553 -0.1050
16941TIP3   OH272313   0.037   0.749   0.003 -0.2603 -0.4263  0.2450
16941TIP3    H172314  -0.027   0.696   0.049 -2.5506  1.5905 -0.5345
16941TIP3    H272315  -0.005   0.770  -0.081  1.0009  1.7879  0.1418
16942TIP3   OH272316   2.996   2.468   0.366 -0.1943 -0.2293  0.8116
16942TIP3    H172317   2.943   2.546   0.353  1.2389  0.7293  0.5929
16942TIP3    H272318   3.038   2.453   0.281  0.6939 -0.3567  1.2617
16943TIP3   OH272319   6.231   1.329   4.165  0.4453 -0.5322  0.6823
16943TIP3    H172320   6.324   1.352   4.166  0.2567  0.4592 -1.1234
16943TIP3    H272321   6.189   1.404   4.123 -1.0249 -1.4530  0.4784
16944TIP3   OH272322   0.606   1.564   1.662  0.1579 -0.0710  0.1694
16944TIP3    H172323   0.526   1.593   1.707  0.1483  0.0343  0.0848
16944TIP3    H272324   0.677   1.602   1.713  0.1562 -0.1768  0.2532
16945TIP3   OH272325   2.534   0.629  12.630  0.4619  0.1836  0.2455
16945TIP3    H172326   2.529   0.534  12.624 -0.3604  0.2361  0.0492
16945TIP3    H272327   2.627   0.648  12.641  0.6629 -0.6201 -0.1027
16946TIP3   OH272328   5.430   2.254  14.098 -0.3039  0.5328 -0.6082
16946TIP3    H172329   5.386   2.338  14.089 -0.5081  0.6156  0.9884
16946TIP3    H272330   5.521   2.276  14.115  0.2144  0.3719 -2.9307
16947TIP3   OH272331   4.353   3.417   0.837 -0.1757 -0.6142  0.5581
16947TIP3    H172332   4.279   3.473   0.813 -1.0120 -0.6739  2.8840
16947TIP3    H272333   4.327   3.329   0.809 -0.6162 -0.4974  0.5996
16948TIP3   OH272334   0.501   0.029  13.247 -0.0737 -0.6161  0.5882
16948TIP3    H172335   0.555   0.056  13.321  0.3973 -2.3447  0.8925
16948TIP3    H272336   0.416   0.071  13.262 -0.3835 -1.9663  2.8062
16949TIP3   OH272337   3.747   5.299  11.316 -0.4021 -0.2479 -0.0759
16949TIP3    H172338   3.669   5.251  11.342 -0.5640 -0.1512 -0.3798
16949TIP3    H272339   3.807   5.289  11.389 -0.2517 -1.3246 -0.3426
16950TIP3   OH272340   1.005   5.726   1.454 -0.2126 -0.5561  0.2869
16950TIP3    H172341   0.984   5.763   1.368 -0.3652  0.5219  0.7747
16950TIP3    H272342   1.091   5.686   1.442  0.3980  0.8111 -0.0254
16951TIP3   OH272343   2.255   2.324  13.702  0.3765  0.3757 -0.7861
16951TIP3    H172344   2.262   2.229  13.710  0.2156  0.2586 -1.9329
16951TIP3    H272345   2.163   2.343  13.721  0.4551  0.3287 -0.3486
16952TIP3   OH272346   5.401   5.364   2.591 -0.0305 -0.5852 -0.1828
16952TIP3    H172347   5.401   5.385   2.685  3.2422 -1.8141  0.1520
16952TIP3    H272348   5.423   5.447   2.548 -2.2754  0.1634  0.0370
16953TIP3   OH272349   6.065   4.875  12.201 -0.2183  0.0342 -0.2277
16953TIP3    H172350   6.073   4.873  12.106  1.5551 -0.8423 -0.0791
16953TIP3    H272351   6.111   4.955  12.227 -0.4219  0.1036 -0.0816
16954TIP3   OH272352   6.447   4.842   3.145  0.8030 -0.0426  0.1592
16954TIP3    H172353   6.436   4.898   3.222 -1.0698  0.2904 -0.3235
16954TIP3    H272354   6.444   4.753   3.180 -1.0367  0.0820  0.4053
16955TIP3   OH272355   6.320   4.269   2.204 -0.5633  0.2035 -0.2272
16955TIP3    H172356   6.304   4.345   2.147  2.2678  0.2213 -1.0496
16955TIP3    H272357   6.397   4.227   2.167  1.0236 -0.1287  3.2659
16956TIP3   OH272358   1.729   5.009   4.323  0.6245 -0.0560 -0.2712
16956TIP3    H172359   1.703   4.993   4.413 -1.6663  0.9364 -0.7262
16956TIP3    H272360   1.732   4.922   4.282 -3.3088 -0.1631 -0.5157
16957TIP3   OH272361   3.829   6.484   6.168  0.2416  0.4561  0.6658
16957TIP3    H172362   3.840   6.533   6.086 -0.5420 -1.5990 -0.7163
16957TIP3    H272363   3.753   6.524   6.209  0.0928  0.9251 -0.0495
16958TIP3   OH272364   4.018   6.665  16.570  0.5654 -0.2791 -0.5014
16958TIP3    H172365   3.979   6.750  16.589 -0.1018 -0.7320  0.1748
16958TIP3    H272366   3.948   6.615  16.528  0.9560 -0.4984 -0.9037
16959TIP3   OH272367   3.342   1.935   1.485  0.4557  0.1351 -0.3810
16959TIP3    H172368   3.297   1.977   1.558  0.0526  0.1342 -0.6330
16959TIP3    H272369   3.335   1.997   1.413  1.8090  0.6208 -0.1074
16960TIP3   OH272370   0.091   1.810   1.045  0.2039  0.1556 -0.1340
16960TIP3    H172371   0.018   1.871   1.031 -0.5599 -0.4471  1.1588
16960TIP3    H272372   0.127   1.796   0.958 -2.2866 -0.8468 -1.0527
16961TIP3   OH272373   2.758   2.567   5.527  0.4624  0.6169  0.7057
16961TIP3    H172374   2.796   2.515   5.597  1.1164  1.5138  1.0322
16961TIP3    H272375   2.706   2.505   5.476  0.3285 -0.1220  1.7293
16962TIP3   OH272376   4.076   3.997   5.993 -0.0231 -0.0141 -0.1123
16962TIP3    H172377   4.014   4.007   6.065  1.5696 -1.8132  1.5720
16962TIP3    H272378   4.040   3.926   5.940 -0.4552  0.3441 -0.3027
16963TIP3   OH272379   0.890   1.201  14.607  0.6509  0.4788  0.2719
16963TIP3    H172380   0.819   1.260  14.632 -0.3979 -1.3003  1.5773
16963TIP3    H272381   0.894   1.208  14.511 -0.1511  1.8776  0.3371
16964TIP3   OH272382   0.221   5.605   3.112  0.5839  0.2758 -0.1075
16964TIP3    H172383   0.138   5.652   3.126  0.6056  0.1499  0.4597
16964TIP3    H272384   0.207   5.520   3.156  1.3351  0.5983  0.7608
16965TIP3   OH272385   4.587   5.322   0.866  0.2634 -0.1543 -0.3557
16965TIP3    H172386   4.661   5.311   0.805  0.0638 -0.6614 -0.5116
16965TIP3    H272387   4.573   5.416   0.869  1.0948 -0.0319 -0.1131
16966TIP3   OH272388   4.257   1.792   0.547  0.1713  0.4150  0.2358
16966TIP3    H172389   4.289   1.831   0.466 -0.9232 -0.1923 -0.5048
16966TIP3    H272390   4.197   1.858   0.583 -0.6618 -0.0153 -0.3400
16967TIP3   OH272391   6.006   3.465  13.021  0.4771 -0.4704 -0.4681
16967TIP3    H172392   5.970   3.442  13.107  0.6572 -2.1883 -0.8297
16967TIP3    H272393   5.975   3.554  13.004 -3.1721 -1.6802 -0.5111
16968TIP3   OH272394   1.567   1.012  10.846  0.3929 -0.2870  0.0128
16968TIP3    H172395   1.499   0.953  10.813 -0.9903  1.1307  0.2766
16968TIP3    H272396   1.602   1.055  10.768 -0.3464  0.3821  0.0441
16969TIP3   OH272397   1.816   6.511  12.228  0.6177  0.0978  0.4253
16969TIP3    H172398   1.806   6.445  12.296  1.8830 -0.8660 -0.3243
16969TIP3    H272399   1.909   6.511  12.206  0.3033  0.6841 -1.0247
16970TIP3   OH272400   2.341   3.586  13.946 -0.5364 -0.2638 -0.6547
16970TIP3    H172401   2.334   3.533  14.025 -0.2040  1.8711  0.8356
16970TIP3    H272402   2.251   3.590  13.912 -0.6337 -1.3923 -0.5564
16971TIP3   OH272403   0.104   1.930   5.422 -0.2176 -0.9462 -0.4007
16971TIP3    H172404   0.119   1.954   5.330  1.0836 -0.2982 -0.0353
16971TIP3    H272405   0.191   1.934   5.462 -0.9553  0.0423  1.1520
16972TIP3   OH272406   2.397   0.545   4.521 -0.3666 -0.2104  0.4448
16972TIP3    H172407   2.483   0.558   4.562 -0.6829 -2.3978  1.8782
16972TIP3    H272408   2.335   0.580   4.585 -0.6522 -0.3007  0.2180
16973TIP3   OH272409   6.668   0.612  14.987  0.1661 -0.3143 -0.0894
16973TIP3    H172410   6.719   0.671  15.043 -0.5876  1.0286 -0.7984
16973TIP3    H272411   6.598   0.667  14.952  0.7711 -1.0873 -2.5592
16974TIP3   OH272412   0.464   0.518   3.635  0.5539  0.1637 -0.0322
16974TIP3    H172413   0.381   0.477   3.658  0.1271  0.0465 -1.7229
16974TIP3    H272414   0.501   0.545   3.719 -1.2750  0.3951  0.7308
16975TIP3   OH272415   4.709   1.535  15.551  0.0142  0.0444 -0.3113
16975TIP3    H172416   4.665   1.582  15.623  2.0024  0.8399  0.4043
16975TIP3    H272417   4.728   1.603  15.486 -0.4585 -0.4283 -0.9528
16976TIP3   OH272418   5.845   6.653  15.289  0.0764 -0.4665 -0.5152
16976TIP3    H172419   5.800   6.615  15.213  1.1848 -2.5014 -0.1892
16976TIP3    H272420   5.819   6.745  15.288 -2.0688 -1.0367 -1.7918
16977TIP3   OH272421   5.070   1.243   0.724  0.5126  0.0334 -0.4455
16977TIP3    H172422   4.990   1.194   0.745  0.3616  1.0709  1.5642
16977TIP3    H272423   5.041   1.335   0.720  1.8014  0.5703  1.6408
16978TIP3   OH272424   0.428   2.564   5.295 -0.1988 -0.2308  0.6415
16978TIP3    H172425   0.371   2.495   5.262 -0.5670 -0.4822  1.7870
16978TIP3    H272426   0.422   2.634   5.230 -0.5326 -0.9145 -0.0639
16979TIP3   OH272427   3.661   6.001  13.114 -0.5724 -0.8790 -0.0755
16979TIP3    H172428   3.587   5.995  13.053  0.3051 -0.9122 -1.1486
16979TIP3    H272429   3.739   6.001  13.058  0.1850  1.9638  0.8774
16980TIP3   OH272430   3.988   3.749  13.490  0.2175  0.2139 -0.2618
16980TIP3    H172431   3.913   3.799  13.520  0.2895  0.3037 -0.2327
16980TIP3    H272432   4.047   3.814  13.451 -0.9673 -0.1773 -2.8271
16981TIP3   OH272433   5.805   5.457   5.199 -0.2188  0.5654  0.8411
16981TIP3    H172434   5.896   5.460   5.170 -0.8138  0.8929 -1.0560
16981TIP3    H272435   5.805   5.502   5.283  1.6330 -0.7861  1.6068
16982TIP3   OH272436   0.661   0.528   2.621 -0.3802  0.3156  1.1312
16982TIP3    H172437   0.643   0.434   2.620 -0.3368  0.3075  0.3122
16982TIP3    H272438   0.621   0.560   2.702 -0.6683 -0.3582  1.2543
16983TIP3   OH272439   2.772   0.980   1.282 -0.3582  0.1130 -0.2869
16983TIP3    H172440   2.776   0.942   1.370  1.0414 -1.1559 -0.8762
16983TIP3    H272441   2.860   1.013   1.266 -1.0596  1.8797 -0.5632
16984TIP3   OH272442   6.588   2.800   1.301 -0.2747 -0.5798  0.3218
16984TIP3    H172443   6.574   2.894   1.300  1.1109 -0.3732 -1.1243
16984TIP3    H272444   6.661   2.787   1.362  2.4780 -0.2433 -2.7868
16985TIP3   OH272445   2.301   0.643   1.313  0.1161  0.0105 -0.2282
16985TIP3    H172446   2.234   0.710   1.301  2.4469  2.2261 -1.3712
16985TIP3    H272447   2.362   0.657   1.240  2.3991 -1.2277  1.3716
16986TIP3   OH272448   1.622   1.280  16.405 -0.8855  0.1982 -0.1839
16986TIP3    H172449   1.689   1.348  16.417 -0.9062  0.0960  0.5847
16986TIP3    H272450   1.616   1.269  16.311  0.7371 -0.3288 -0.2518
16987TIP3   OH272451   5.233   4.828   0.317  0.6692  0.1157 -1.0641
16987TIP3    H172452   5.294   4.809   0.388  0.0081  0.7659 -0.3141
16987TIP3    H272453   5.166   4.761   0.323 -1.1894  2.0740  1.0365
16988TIP3   OH272454   5.593   1.788   2.435  0.1070 -0.5696 -0.2470
16988TIP3    H172455   5.645   1.777   2.355 -0.7613 -0.2025 -0.8819
16988TIP3    H272456   5.508   1.819   2.403 -0.8695 -2.2402  0.6640
16989TIP3   OH272457   6.026   1.245   1.927  0.5315  0.1936 -0.2351
16989TIP3    H172458   6.121   1.249   1.937  0.3395  1.8289  0.9557
16989TIP3    H272459   6.011   1.270   1.835  1.2878 -0.7955 -0.6370
16990TIP3   OH272460   6.774   5.216  12.434  0.5903  0.4706  0.7789
16990TIP3    H172461   6.824   5.135  12.425  0.6308  0.3827  1.7707
16990TIP3    H272462   6.839   5.285  12.428  0.5829  0.4358  0.1629
16991TIP3   OH272463   6.669   4.427  14.549  0.1898 -0.3501 -0.2763
16991TIP3    H172464   6.624   4.347  14.578  1.5487 -1.2590 -0.6076
16991TIP3    H272465   6.720   4.399  14.474  0.1832  0.9980 -0.7921
16992TIP3   OH272466   6.303   5.757  13.932 -0.2215 -0.0908 -0.0456
16992TIP3    H172467   6.339   5.697  13.867  2.6052  1.3431  0.0681
16992TIP3    H272468   6.294   5.705  14.012  1.3500 -0.6090 -0.1882
16993TIP3   OH272469   0.258   4.357  13.693  0.3979  0.3234  0.1894
16993TIP3    H172470   0.220   4.272  13.670  2.3349 -0.6748  0.5837
16993TIP3    H272471   0.272   4.400  13.609  2.1646 -0.9929 -0.2273
16994TIP3   OH272472   3.640   4.216  13.824  0.1029  0.4539  0.6629
16994TIP3    H172473   3.580   4.192  13.894 -1.1926  1.8724  0.0693
16994TIP3    H272474   3.658   4.309  13.838 -1.3854  1.1411 -1.7443
16995TIP3   OH272475   0.714   2.234  11.166 -0.0019 -0.1771 -0.5040
16995TIP3    H172476   0.643   2.298  11.158 -0.9084 -1.2673 -1.2234
16995TIP3    H272477   0.715   2.188  11.083  1.4906 -0.2481 -0.4550
16996TIP3   OH272478   6.249   0.952   4.223 -0.3480 -0.1320 -0.1410
16996TIP3    H172479   6.327   0.996   4.189 -0.4984 -0.1231 -0.4757
16996TIP3    H272480   6.219   1.009   4.293 -0.5640  0.3264 -0.5987
16997TIP3   OH272481   1.768   3.025   3.798  0.2974  0.6063 -0.1212
16997TIP3    H172482   1.682   3.039   3.758  0.6012  0.4979 -0.8187
16997TIP3    H272483   1.827   3.081   3.749  0.8308 -0.1923 -0.4090
16998TIP3   OH272484   2.687   4.075  12.637  0.5089  0.0024  0.3184
16998TIP3    H172485   2.600   4.036  12.651  0.5416 -0.1176  0.1847
16998TIP3    H272486   2.712   4.045  12.550 -0.2262  1.7532 -0.5090
16999TIP3   OH272487   4.881   2.933   0.454 -0.3718  0.2506 -0.0426
16999TIP3    H172488   4.794   2.907   0.483 -0.0774 -0.0409  0.5811
16999TIP3    H272489   4.876   3.028   0.445 -1.3234  0.0476 -1.9326
17000TIP3   OH272490   1.104   6.445   0.990 -0.3023 -0.7885 -0.0514
17000TIP3    H172491   1.143   6.372   0.943 -0.1785  0.0310 -1.2343
17000TIP3    H272492   1.073   6.505   0.921 -0.3318  0.3068  0.8972
17001TIP3   OH272493   5.345   5.050  17.041 -0.3450  0.3983 -0.2038
17001TIP3    H172494   5.284   5.005  16.981  0.9543  2.1337 -2.9304
17001TIP3    H272495   5.399   4.980  17.077 -0.7366 -0.6363 -1.5594
17002TIP3   OH272496   2.807   6.283  15.628 -0.3221 -0.6740  0.0977
17002TIP3    H172497   2.747   6.211  15.649  0.7925 -1.8761 -0.7614
17002TIP3    H272498   2.792   6.302  15.536 -1.5675  1.1499  0.6313
17003TIP3   OH272499   3.213   6.390  11.421 -0.3651 -0.8647  0.4151
17003TIP3    H172500   3.149   6.323  11.442 -1.8223  0.9214  1.8195
17003TIP3    H272501   3.168   6.448  11.360  0.4305 -0.4020  0.2616
17004TIP3   OH272502   2.584   2.693  12.865 -0.1431 -0.2315 -0.1365
17004TIP3    H172503   2.502   2.727  12.828 -2.1704 -1.7503  2.7317
17004TIP3    H272504   2.584   2.725  12.955  2.1136 -0.7653  0.0661
17005TIP3   OH272505   4.489   1.290   0.955 -0.0856  0.9693 -0.1053
17005TIP3    H172506   4.478   1.281   1.050 -0.2779  1.2966 -0.0960
17005TIP3    H272507   4.459   1.379   0.936 -1.7155  0.3079 -0.7224
17006TIP3   OH272508   1.991   2.398  16.907  0.5958 -0.0162 -0.0078
17006TIP3    H172509   2.066   2.396  16.967  0.2675  0.0615  0.4047
17006TIP3    H272510   1.929   2.459  16.948 -0.1273 -0.8609  0.1498
17007TIP3   OH272511   3.357   0.474   1.373 -0.7012 -0.1932  0.3950
17007TIP3    H172512   3.338   0.441   1.461 -0.7270 -1.2836 -0.0177
17007TIP3    H272513   3.285   0.535   1.354  0.1890  1.3267  1.7877
17008TIP3   OH272514   5.885   4.625  14.636 -0.0157 -0.7975  0.6168
17008TIP3    H172515   5.841   4.627  14.721  0.5539 -2.7318  0.9610
17008TIP3    H272516   5.835   4.561  14.584 -2.0556  2.3054 -1.4887
17009TIP3   OH272517   6.186   1.681  11.143  0.0760 -0.0133 -0.0262
17009TIP3    H172518   6.280   1.689  11.158  0.1497 -2.0912  0.8746
17009TIP3    H272519   6.163   1.757  11.091  2.3985  0.1582 -0.8559
17010TIP3   OH272520   6.737   0.573   5.547 -0.1912  0.3550 -0.1895
17010TIP3    H172521   6.747   0.660   5.507 -1.0620  1.9005  2.7928
17010TIP3    H272522   6.826   0.537   5.547 -0.0015  0.6937 -2.5118
17011TIP3   OH272523   6.344   4.925  10.411  0.4705  0.4215 -0.3732
17011TIP3    H172524   6.375   5.016  10.411 -0.9294  0.9218 -2.2918
17011TIP3    H272525   6.267   4.926  10.355  0.9624 -2.1296 -1.1542
17012TIP3   OH272526   0.302   3.583   4.569  0.2929  0.4454  0.4507
17012TIP3    H172527   0.258   3.508   4.609 -2.3206  1.3457 -0.6335
17012TIP3    H272528   0.350   3.546   4.495  0.0842 -0.3244  0.6992
17013TIP3   OH272529   6.053   6.231  15.634  0.2784 -0.8032 -0.1666
17013TIP3    H172530   6.040   6.326  15.647  1.8789 -0.6292  0.2051
17013TIP3    H272531   6.094   6.202  15.716  0.1797 -1.7482 -0.4532
17014TIP3   OH272532   5.636   3.436  10.010  0.4526 -0.1534 -0.2492
17014TIP3    H172533   5.710   3.474   9.962  1.2863 -0.3831  0.8508
17014TIP3    H272534   5.672   3.357  10.051 -0.8608 -1.2620 -1.1842
17015TIP3   OH272535   6.739   0.509   3.741 -0.3398  0.6323  0.3203
17015TIP3    H172536   6.749   0.499   3.646 -0.1218  0.4443  0.3618
17015TIP3    H272537   6.810   0.568   3.766  0.9955 -1.0881  0.6873
17016TIP3   OH272538   3.005   3.602  15.262 -0.1953 -0.0112 -0.2654
17016TIP3    H172539   3.092   3.624  15.295 -0.4074  1.6493 -0.7996
17016TIP3    H272540   3.020   3.571  15.173 -0.2521  1.2769 -0.7278
17017TIP3   OH272541   5.974   2.449   4.532  0.3412 -0.1825 -0.9003
17017TIP3    H172542   6.018   2.534   4.533  0.8869 -0.4750  0.7616
17017TIP3    H272543   5.888   2.467   4.494 -0.1605  1.4137  0.9298
17018TIP3   OH272544   4.384   1.695  16.201 -0.2730 -0.2963  0.6688
17018TIP3    H172545   4.446   1.625  16.181  0.0459  0.4127 -0.8960
17018TIP3    H272546   4.321   1.655  16.260 -0.4762 -2.1038 -0.7420
17019TIP3   OH272547   0.803   6.244  13.417 -0.0719  0.0185  0.6729
17019TIP3    H172548   0.785   6.162  13.463 -0.2502 -0.9589 -1.0906
17019TIP3    H272549   0.889   6.271  13.450  0.1047 -1.0100  1.0844
17020TIP3   OH272550   6.080   2.735   0.932  0.0453  0.1300 -0.7321
17020TIP3    H172551   6.013   2.696   0.876 -1.1081  0.5805  0.3202
17020TIP3    H272552   6.135   2.785   0.871 -0.7552  0.0194 -1.5676
17021TIP3   OH272553   0.068   1.380   1.847  0.8240 -0.2227 -0.5407
17021TIP3    H172554   0.105   1.446   1.788  1.8226  0.1208  0.4430
17021TIP3    H272555   0.125   1.383   1.924 -0.5532 -0.5505  0.5046
17022TIP3   OH272556   6.579   2.632  11.864 -0.1534  0.0969  0.2353
17022TIP3    H172557   6.536   2.652  11.782  1.3894  0.2957 -0.5426
17022TIP3    H272558   6.522   2.568  11.907 -0.6526 -0.4680 -1.2624
17023TIP3   OH272559   5.415   2.074   0.977 -0.2190  0.3941  0.0268
17023TIP3    H172560   5.371   2.028   0.906  2.3596  1.2001 -2.1866
17023TIP3    H272561   5.501   2.032   0.983  0.2104  1.4370  1.5692
17024TIP3   OH272562   4.407   2.824   1.369 -0.1959  0.3889  0.2426
17024TIP3    H172563   4.377   2.738   1.398  0.5317 -0.2385 -0.8329
17024TIP3    H272564   4.395   2.881   1.445 -0.5605 -0.6921  0.9977
17025TIP3   OH272565   0.796   5.187  16.440 -0.4245 -0.0099 -0.1499
17025TIP3    H172566   0.883   5.162  16.409 -0.3321  3.0038 -2.6333
17025TIP3    H272567   0.736   5.150  16.376 -0.7447  0.3212 -0.0436
17026TIP3   OH272568   0.185   1.940   4.182 -0.1160 -0.1960 -0.1073
17026TIP3    H172569   0.092   1.923   4.164 -0.6119  2.8705 -0.6832
17026TIP3    H272570   0.187   2.031   4.213  2.4677 -0.8752  1.8534
17027TIP3   OH272571   1.222   5.625  16.981 -0.0637 -0.3054 -0.3990
17027TIP3    H172572   1.174   5.589  16.906 -0.5882  0.2397 -0.3217
17027TIP3    H272573   1.221   5.719  16.967 -1.0765 -0.1269  0.8401
17028TIP3   OH272574   3.336   2.335   0.768 -0.5889  0.7608  0.5267
17028TIP3    H172575   3.338   2.239   0.762  1.2632  0.8102  0.1973
17028TIP3    H272576   3.350   2.354   0.861 -2.8562  0.6891  0.9176
17029TIP3   OH272577   4.878   1.989  11.540  0.0796  0.3020 -0.5176
17029TIP3    H172578   4.884   2.047  11.464 -0.0387  0.5926 -0.3065
17029TIP3    H272579   4.939   2.027  11.604 -1.0504  1.0096  0.1534
17030TIP3   OH272580   4.410   4.078   5.440 -0.5964 -0.2351  0.4935
17030TIP3    H172581   4.391   4.002   5.496 -1.4219  0.4482  1.1519
17030TIP3    H272582   4.450   4.040   5.361 -1.1364 -1.3696  0.7542
17031TIP3   OH272583   6.012   3.995   3.888 -0.4111  0.3559  0.0011
17031TIP3    H172584   6.065   3.985   3.967 -0.9732 -0.0049  0.3388
17031TIP3    H272585   6.032   3.918   3.835 -0.4837  0.2972  0.0596
17032TIP3   OH272586   1.526   0.892  16.942 -0.6825 -0.2986  0.1172
17032TIP3    H172587   1.614   0.887  16.980 -1.2828 -1.8897  1.3513
17032TIP3    H272588   1.540   0.872  16.849  0.5891  2.0941 -0.2488
17033TIP3   OH272589   1.606   2.620  14.817  0.5125 -0.4331  0.3961
17033TIP3    H172590   1.553   2.608  14.738  1.3478  0.8516 -0.3735
17033TIP3    H272591   1.594   2.712  14.841  1.9854 -0.2665  0.5131
17034TIP3   OH272592   6.675   3.244  14.509 -0.0836 -0.4607 -0.2880
17034TIP3    H172593   6.712   3.163  14.475 -1.8929 -1.5496  0.2450
17034TIP3    H272594   6.660   3.226  14.602  0.3464  0.8065  0.0295
17035TIP3   OH272595   4.322   3.133  14.399  0.3218  0.3845  0.2094
17035TIP3    H172596   4.293   3.221  14.374 -4.0229 -0.5686  1.5425
17035TIP3    H272597   4.391   3.147  14.464  0.3451  2.7762 -0.3028
17036TIP3   OH272598   6.355   2.758   0.143  0.0791  0.4383  0.3584
17036TIP3    H172599   6.363   2.695   0.071 -1.2837  1.7987 -1.0247
17036TIP3    H272600   6.445   2.783   0.163  0.5073 -0.4274 -0.4515
17037TIP3   OH272601   5.073   6.556   4.877  0.2673 -0.3709  0.0950
17037TIP3    H172602   5.043   6.466   4.863 -0.6182 -0.4814  2.5568
17037TIP3    H272603   5.164   6.547   4.907  0.9626 -0.2988 -1.9007
17038TIP3   OH272604   6.595   5.080   0.853  0.0316  0.0041 -0.2521
17038TIP3    H172605   6.651   5.003   0.846  0.6099  0.5251 -1.5726
17038TIP3    H272606   6.650   5.152   0.822 -0.6480  0.8799  0.5441
17039TIP3   OH272607   4.062   0.017  10.579  0.1343 -0.4504 -0.5447
17039TIP3    H172608   4.006   0.067  10.638 -0.0939  0.1912 -1.2960
17039TIP3    H272609   4.001  -0.034  10.526  0.3155 -0.6344 -0.5769
17040TIP3   OH272610   1.214   5.446   3.464 -0.2381  0.4177  0.1478
17040TIP3    H172611   1.230   5.486   3.379  0.8238 -0.4066 -0.0458
17040TIP3    H272612   1.143   5.498   3.502  1.2738  2.6587  0.0111
17041TIP3   OH272613   6.422   3.844   4.293 -0.2147 -1.1252  0.2427
17041TIP3    H172614   6.427   3.821   4.386 -0.4266  1.2148  0.8809
17041TIP3    H272615   6.512   3.859   4.267 -0.2512 -0.6690  0.3772
17042TIP3   OH272616   3.612   2.444   1.221  0.2858 -0.0006  0.5881
17042TIP3    H172617   3.617   2.474   1.312  1.2175 -0.3417  0.6638
17042TIP3    H272618   3.695   2.472   1.182 -0.1378  0.2034 -0.1796
17043TIP3   OH272619   3.251   2.231  12.524  0.4283  0.1684  0.1619
17043TIP3    H172620   3.264   2.172  12.449 -1.2676 -0.5534  0.4062
17043TIP3    H272621   3.252   2.319  12.486 -1.3789 -0.2359 -0.8894
17044TIP3   OH272622   5.958   3.361   0.957  0.8642  0.0210  0.2881
17044TIP3    H172623   5.941   3.274   0.993  0.4569 -0.2283 -0.4821
17044TIP3    H272624   5.950   3.349   0.862  1.8123  0.6857  0.1257
17045TIP3   OH272625   0.216   2.985  11.255  0.1320 -0.0217 -0.1438
17045TIP3    H172626   0.183   2.906  11.298  0.1591  0.1471  0.1872
17045TIP3    H272627   0.186   2.977  11.165 -1.9038  0.7402  0.4320
17046TIP3   OH272628   5.693   4.249  15.115 -0.3269 -0.2761  0.0032
17046TIP3    H172629   5.695   4.296  15.032 -0.7403 -0.0712  0.1062
17046TIP3    H272630   5.734   4.165  15.097  1.9192  0.7242  0.1842
17047TIP3   OH272631   6.029   5.312  15.269  0.1534 -0.1601  0.5045
17047TIP3    H172632   6.100   5.249  15.276  0.2617 -0.3720 -2.0449
17047TIP3    H272633   6.067   5.387  15.222 -1.4835 -0.6290 -1.6645
17048TIP3   OH272634   4.474   4.576   1.576  0.2449  0.3912 -0.1739
17048TIP3    H172635   4.435   4.528   1.503  0.6639  0.5371 -0.5029
17048TIP3    H272636   4.548   4.522   1.604  0.2317  0.4538 -0.0168
17049TIP3   OH272637   1.038   0.347   5.609 -0.4324 -0.2611  0.7558
17049TIP3    H172638   0.955   0.321   5.569  0.3878  2.1730 -2.7383
17049TIP3    H272639   1.019   0.433   5.648  0.8459  1.2579 -1.8143
17050TIP3   OH272640   5.130   6.192  12.574  0.0370  0.0933 -0.2109
17050TIP3    H172641   5.202   6.244  12.540 -0.7717  1.4625  0.1110
17050TIP3    H272642   5.167   6.144  12.649  0.4601  1.2310  0.3130
17051TIP3   OH272643   3.159   6.793   6.161 -0.0172  0.8110  0.0155
17051TIP3    H172644   3.166   6.805   6.255  1.3584 -0.1105  0.0408
17051TIP3    H272645   3.072   6.754   6.148 -0.9615  2.6218  0.7054
17052TIP3   OH272646   3.291   5.822  14.730  0.2084 -0.5046  0.6749
17052TIP3    H172647   3.376   5.808  14.772 -0.3008 -0.1410  1.8604
17052TIP3    H272648   3.227   5.805  14.800 -0.7369 -1.8208 -0.4849
17053TIP3   OH272649   2.355   0.515   6.032 -0.1592 -0.2849 -0.3377
17053TIP3    H172650   2.413   0.462   6.085 -0.6597  0.1778  0.6868
17053TIP3    H272651   2.394   0.513   5.944  0.0764 -1.9452 -0.2139
17054TIP3   OH272652   2.545   5.389   0.159  0.0346  0.0278 -0.0975
17054TIP3    H172653   2.575   5.457   0.097  0.3296  1.2399  1.3368
17054TIP3    H272654   2.511   5.438   0.233  1.4967 -1.4127  1.5542
17055TIP3   OH272655   4.359   0.122   2.263  0.7565  0.1549  0.3684
17055TIP3    H172656   4.314   0.067   2.327 -1.7374 -0.3094 -1.7206
17055TIP3    H272657   4.360   0.209   2.304  0.7150 -0.4854  1.7613
17056TIP3   OH272658   6.211   4.116  10.739 -0.5145  0.5926 -0.1560
17056TIP3    H172659   6.222   4.078  10.652  1.1136 -0.6939  0.5875
17056TIP3    H272660   6.287   4.173  10.751 -1.4180  1.8145 -0.0859
17057TIP3   OH272661   3.278   1.214   1.793  0.4310 -0.1244 -0.4719
17057TIP3    H172662   3.293   1.259   1.709 -1.8041 -0.1677 -0.9347
17057TIP3    H272663   3.256   1.284   1.854  3.1997  0.0324  0.4137
17058TIP3   OH272664   2.399   0.358   4.305 -0.0742  0.0668 -0.3756
17058TIP3    H172665   2.378   0.414   4.380  1.7459  0.1067  0.1233
17058TIP3    H272666   2.320   0.305   4.293 -0.5921  0.4323  1.2366
17059TIP3   OH272667   4.202   3.525   5.549  0.3648  0.0685  0.3153
17059TIP3    H172668   4.279   3.526   5.605  0.6120 -1.7387  0.0492
17059TIP3    H272669   4.232   3.486   5.467 -0.3805  1.1319 -0.4796
17060TIP3   OH272670   5.997   6.710  11.940 -0.2376  0.6624  0.5621
17060TIP3    H172671   6.075   6.669  11.977 -0.4125 -1.0464 -0.9042
17060TIP3    H272672   6.025   6.738  11.852 -1.1967  0.2539  0.1254
17061TIP3   OH272673   4.065   3.867  10.981 -0.4995  0.1698 -0.4594
17061TIP3    H172674   3.994   3.896  11.038  1.2286  0.3976  1.6427
17061TIP3    H272675   4.136   3.843  11.041  1.6105  1.0209 -2.5470
17062TIP3   OH272676   0.392   2.709   0.303  0.0063 -0.2327 -0.2869
17062TIP3    H172677   0.436   2.794   0.309  0.5746 -0.6432  1.5073
17062TIP3    H272678   0.326   2.722   0.234  3.4488  0.1449 -3.6928
17063TIP3   OH272679   5.301   2.782   2.102 -0.2866  0.2323  0.2078
17063TIP3    H172680   5.255   2.736   2.032 -2.0801 -0.3167  1.6962
17063TIP3    H272681   5.263   2.870   2.102  0.4589  0.5595 -0.1828
17064TIP3   OH272682   6.430   1.346  14.916  0.2134 -0.0151 -0.0304
17064TIP3    H172683   6.335   1.335  14.907  0.1902  1.1596 -1.5209
17064TIP3    H272684   6.463   1.335  14.826  1.4613 -0.2448  0.4547
17065TIP3   OH272685   0.222   5.557  13.211 -1.1642  0.0353 -0.6502
17065TIP3    H172686   0.243   5.633  13.266 -1.9053  1.3351 -2.1321
17065TIP3    H272687   0.298   5.499  13.220 -1.0984  0.4208  1.4049
17066TIP3   OH272688   0.482   6.759  12.956  0.2254  0.4866 -0.3434
17066TIP3    H172689   0.459   6.795  13.042  0.5353 -0.9828  0.3763
17066TIP3    H272690   0.399   6.725  12.922  0.1393  0.8933 -0.5388
17067TIP3   OH272691   2.098   4.170   0.102  0.6532  0.1731  0.1164
17067TIP3    H172692   2.157   4.181   0.176 -2.6713  1.9159  2.6880
17067TIP3    H272693   2.040   4.098   0.127  0.9234 -0.7672 -1.8364
17068TIP3   OH272694   1.358   6.511   5.607 -0.0413 -0.3971 -0.1251
17068TIP3    H172695   1.291   6.508   5.540  0.9476 -0.1582 -1.1413
17068TIP3    H272696   1.440   6.519   5.559  0.6327  0.4662  1.1141
17069TIP3   OH272697   6.576   2.183  14.876  0.3095 -0.6421  0.6670
17069TIP3    H172698   6.537   2.100  14.903 -0.7681 -0.3060  0.1789
17069TIP3    H272699   6.518   2.250  14.912  0.1903 -0.1419 -0.4330
17070TIP3   OH272700   2.775   3.194  13.791  0.3713 -0.3107 -0.3890
17070TIP3    H172701   2.773   3.285  13.821 -1.5187 -0.5908  0.4090
17070TIP3    H272702   2.749   3.143  13.867 -0.0658 -1.3911 -1.2530
17071TIP3   OH272703   4.312   6.269   1.585  0.0654 -0.1364  0.3534
17071TIP3    H172704   4.240   6.208   1.597 -0.9796  1.2109  1.2078
17071TIP3    H272705   4.341   6.289   1.675 -1.0006  2.1851  0.2299
17072TIP3   OH272706   0.575   0.942   3.019  0.3034  0.0256 -0.1362
17072TIP3    H172707   0.544   0.954   3.109  0.9051 -0.8725  0.2000
17072TIP3    H272708   0.652   0.999   3.012  0.9060 -0.7147  0.2749
17073TIP3   OH272709   0.525   4.415   1.623 -0.4294  0.1740 -0.3541
17073TIP3    H172710   0.591   4.437   1.688  0.6323 -1.4544 -0.8624
17073TIP3    H272711   0.567   4.350   1.566 -2.6325 -1.2812 -0.3911
17074TIP3   OH272712   0.139   4.118  14.196 -0.3712  0.0514 -0.0272
17074TIP3    H172713   0.131   4.187  14.130 -0.1787 -1.7690 -2.0064
17074TIP3    H272714   0.191   4.050  14.153 -1.1539 -1.6231  1.6285
17075TIP3   OH272715   1.676   3.036  13.262 -0.1035 -0.6232  0.1862
17075TIP3    H172716   1.590   3.042  13.303  0.4194  2.0731  1.0313
17075TIP3    H272717   1.658   3.036  13.168 -1.0888 -1.5885  0.3700
17076TIP3   OH272718   2.393   5.822   0.546 -0.0119  0.1936  0.0976
17076TIP3    H172719   2.448   5.791   0.618 -1.7672 -0.4810  1.1823
17076TIP3    H272720   2.450   5.878   0.495  1.8014 -0.8024  0.9704
17077TIP3   OH272721   1.066   4.451  15.916 -0.1742  0.1208 -0.1663
17077TIP3    H172722   1.082   4.514  15.846 -2.6584  1.3708  0.3361
17077TIP3    H272723   0.971   4.445  15.922  0.0114 -1.6292  1.6503
17078TIP3   OH272724   1.393   3.117  11.804  0.7541 -0.0038 -0.2756
17078TIP3    H172725   1.335   3.075  11.868  2.7418  0.4356  1.8617
17078TIP3    H272726   1.333   3.155  11.739 -1.2168 -2.5640 -0.0389
17079TIP3   OH272727   1.525   0.378   5.491  1.1157  0.6477  0.0127
17079TIP3    H172728   1.498   0.364   5.582 -0.0981 -0.5367 -0.5139
17079TIP3    H272729   1.477   0.457   5.464 -0.4025 -0.3749 -0.3342
17080TIP3   OH272730   3.386   1.086   4.287 -0.7491 -0.0204 -0.2584
17080TIP3    H172731   3.428   1.125   4.364 -0.8968 -1.1229  0.3941
17080TIP3    H272732   3.297   1.121   4.287 -0.7409 -0.0011  0.0675
17081TIP3   OH272733   5.404   0.119  13.763 -0.7857  0.3788 -0.0921
17081TIP3    H172734   5.401   0.028  13.735 -0.6649  0.4938 -0.4976
17081TIP3    H272735   5.325   0.158  13.726  0.9260  1.2803 -3.0458
17082TIP3   OH272736   5.831   0.229  11.625  0.0657  0.4005 -0.1258
17082TIP3    H172737   5.798   0.278  11.701 -2.1945 -3.4764  1.5590
17082TIP3    H272738   5.921   0.208  11.647  0.3273  1.7389  0.1512
17083TIP3   OH272739   2.868   6.493  16.481  0.1538 -0.1015 -0.8261
17083TIP3    H172740   2.892   6.480  16.389 -0.5117  0.5197 -1.0948
17083TIP3    H272741   2.799   6.428  16.498  1.2141 -1.1282 -0.3791
17084TIP3   OH272742   5.893   1.145   4.819 -0.0126  0.1683 -0.1682
17084TIP3    H172743   5.973   1.167   4.771 -0.7836  2.4095 -0.5267
17084TIP3    H272744   5.912   1.167   4.910 -0.3647  1.2083 -0.3334
17085TIP3   OH272745   1.506   1.802  14.326 -0.2180 -0.3160 -1.0318
17085TIP3    H172746   1.481   1.752  14.404  3.0564 -1.5686 -0.6871
17085TIP3    H272747   1.423   1.827  14.286 -1.9676 -1.2169  1.8554
17086TIP3   OH272748   3.312   1.494  15.195  0.4967  0.3101 -0.6120
17086TIP3    H172749   3.289   1.587  15.204  0.5181  0.2931 -0.3933
17086TIP3    H272750   3.324   1.482  15.101 -0.4781  0.3036 -0.7470
17087TIP3   OH272751   3.247   0.390   0.793  0.5106  0.3813 -0.9143
17087TIP3    H172752   3.171   0.444   0.771  0.7017  0.4722 -1.3509
17087TIP3    H272753   3.264   0.410   0.886 -1.9558 -2.0450  0.1314
17088TIP3   OH272754   2.154   3.749  16.787 -0.7250 -0.2142 -0.1979
17088TIP3    H172755   2.228   3.710  16.740 -0.7769  0.4227 -0.8349
17088TIP3    H272756   2.142   3.694  16.864 -0.8617 -1.4856 -1.1139
17089TIP3   OH272757   0.473   5.087  12.754  0.0830 -0.4378 -0.2192
17089TIP3    H172758   0.471   5.082  12.659  0.5444  2.3906 -0.4217
17089TIP3    H272759   0.385   5.114  12.779  0.9550  2.6477 -0.1920
17090TIP3   OH272760   2.502   3.453  10.642  0.2127 -0.2190 -0.0276
17090TIP3    H172761   2.535   3.541  10.662 -0.5140 -0.3960  2.0959
17090TIP3    H272762   2.408   3.465  10.632 -0.1176 -1.0094  1.9615
17091TIP3   OH272763   4.746   1.175   2.767  0.4379 -0.6483  0.0281
17091TIP3    H172764   4.746   1.096   2.714  0.6231 -0.0927 -0.8143
17091TIP3    H272765   4.817   1.163   2.830  0.7562 -0.9551 -0.3933
17092TIP3   OH272766   2.316   5.111   2.336 -0.7012  0.6700 -0.4424
17092TIP3    H172767   2.387   5.141   2.280 -0.4427 -0.2119 -0.6020
17092TIP3    H272768   2.277   5.191   2.372  0.9605  1.1117  0.3858
17093TIP3   OH272769   3.415   0.853  13.004  0.4982  0.5745  0.1219
17093TIP3    H172770   3.502   0.853  13.045  0.7089  2.1736 -0.3154
17093TIP3    H272771   3.385   0.763  13.014  1.5696  0.3552  1.6364
17094TIP3   OH272772   4.182   1.454   4.353 -0.1753 -0.1036 -0.0525
17094TIP3    H172773   4.231   1.418   4.280  2.1888  1.2138  0.8197
17094TIP3    H272774   4.147   1.537   4.320 -0.0839 -0.0563 -0.0288
17095TIP3   OH272775   4.940   3.699  12.835  0.8894  0.4335 -0.2992
17095TIP3    H172776   4.885   3.638  12.883 -0.9291  1.2430 -1.2774
17095TIP3    H272777   4.983   3.646  12.768 -0.6710  0.1858 -1.1350
17096TIP3   OH272778   2.535   4.930  16.758  0.4006 -0.4293 -0.1325
17096TIP3    H172779   2.527   4.938  16.853 -0.5407 -0.6048 -0.1880
17096TIP3    H272780   2.445   4.938  16.726  0.8041  0.5215 -1.0782
17097TIP3   OH272781   5.562   6.759   2.614 -0.2664 -0.0216 -0.4390
17097TIP3    H172782   5.472   6.758   2.582 -0.8952 -1.6447  1.2713
17097TIP3    H272783   5.568   6.838   2.667 -0.9151 -0.2800  0.0271
17098TIP3   OH272784   2.244   6.023   1.604 -0.0478  0.0668 -0.3792
17098TIP3    H172785   2.299   6.092   1.640 -0.2761 -0.6722  1.4163
17098TIP3    H272786   2.180   6.069   1.550 -0.2126  1.2579  0.8170
17099TIP3   OH272787   6.015   5.693   3.421 -0.8675  0.0714  0.3322
17099TIP3    H172788   6.035   5.764   3.360 -0.5400  0.4475  0.8721
17099TIP3    H272789   5.967   5.736   3.492  0.4746 -0.0071  1.3007
17100TIP3   OH272790   0.187   2.935   3.215 -0.8846  0.0428 -0.1313
17100TIP3    H172791   0.216   2.844   3.215  0.4790  0.4581 -0.7426
17100TIP3    H272792   0.232   2.974   3.290  0.1567  0.6977 -1.0890
17101TIP3   OH272793   5.330   3.783  12.227  0.2480 -0.6220 -0.2982
17101TIP3    H172794   5.246   3.739  12.217 -0.5565  1.0421 -0.9596
17101TIP3    H272795   5.377   3.764  12.146  0.0602 -0.5776 -0.4164
17102TIP3   OH272796   3.784   5.795  13.543 -0.4758  0.4602  0.0412
17102TIP3    H172797   3.769   5.847  13.464 -0.3743 -0.5086 -0.6263
17102TIP3    H272798   3.698   5.785  13.582 -0.7465 -0.2916 -0.7362
17103TIP3   OH272799   0.391   2.942  14.474  0.0322 -0.1811 -0.2262
17103TIP3    H172800   0.415   2.885  14.400  1.9304  0.6380 -0.2825
17103TIP3    H272801   0.346   3.016  14.434  0.1574 -0.2301 -0.4594
17104TIP3   OH272802   4.072   6.749  10.874 -0.6383 -0.0152 -0.5638
17104TIP3    H172803   4.004   6.794  10.825  0.3383  0.2997 -1.6409
17104TIP3    H272804   4.062   6.657  10.851 -3.7132 -0.6815  2.9172
17105TIP3   OH272805   5.827   1.303  17.031  0.1631  1.3928  0.1115
17105TIP3    H172806   5.738   1.276  17.007 -0.3343  1.2342  2.0235
17105TIP3    H272807   5.883   1.232  16.999 -0.3951  1.4767 -1.0804
17106TIP3   OH272808   2.448   4.588  11.379  0.0403  0.0210  0.2753
17106TIP3    H172809   2.514   4.639  11.330 -2.3262  1.9169 -1.0594
17106TIP3    H272810   2.468   4.605  11.471  0.5434  1.7659 -0.1367
17107TIP3   OH272811   5.921   5.990  12.895  0.5450  0.7488 -0.1552
17107TIP3    H172812   5.943   6.031  12.811  1.9861 -1.0444 -0.6811
17107TIP3    H272813   5.936   6.059  12.960  2.0415  1.3393 -1.1109
17108TIP3   OH272814   6.434   5.372  16.438  0.0895 -0.0613  0.1876
17108TIP3    H172815   6.443   5.370  16.343 -1.1721  1.0512  0.0268
17108TIP3    H272816   6.386   5.292  16.459 -0.0285 -0.0845 -0.1659
17109TIP3   OH272817   5.688   1.463   3.533  0.2687  0.3250  0.0373
17109TIP3    H172818   5.703   1.536   3.472  0.4745 -0.7793 -1.2471
17109TIP3    H272819   5.607   1.422   3.503  0.2149 -0.0555  0.6910
17110TIP3   OH272820   0.624   6.748   4.469 -0.1071 -0.3498  0.4473
17110TIP3    H172821   0.550   6.707   4.514  0.3290  0.8720  2.2892
17110TIP3    H272822   0.584   6.808   4.406 -0.7123  1.2510  2.3096
17111TIP3   OH272823   3.850   3.853   0.083 -0.0932 -0.2428 -0.0803
17111TIP3    H172824   3.841   3.833   0.177  0.7098  1.3903  0.3533
17111TIP3    H272825   3.762   3.875   0.055 -0.1629  0.2606  0.5277
17112TIP3   OH272826   2.500   6.393  16.197  0.3782  0.7308  0.0185
17112TIP3    H172827   2.515   6.365  16.107 -2.1806  1.2759 -0.6101
17112TIP3    H272828   2.429   6.457  16.191 -1.3140 -0.8295  2.6445
17113TIP3   OH272829   3.386   1.643   0.754  0.1369  1.0929 -0.7290
17113TIP3    H172830   3.352   1.721   0.710 -0.7248  1.2774  0.2541
17113TIP3    H272831   3.353   1.569   0.703 -1.6574  1.2718  0.1369
17114TIP3   OH272832   4.648   1.310  15.396  0.7949  0.4314 -0.2040
17114TIP3    H172833   4.650   1.380  15.461  2.4205 -0.5155  0.7742
17114TIP3    H272834   4.653   1.355  15.312 -0.1140  1.5909  0.3546
17115TIP3   OH272835   3.807   1.840   6.075  0.3137 -0.0803 -0.0695
17115TIP3    H172836   3.807   1.837   5.980 -0.6340 -1.0855 -0.0547
17115TIP3    H272837   3.818   1.749   6.102 -0.4118  0.0741  0.7702
17116TIP3   OH272838   0.411   6.794   0.663  0.4629  0.2272 -0.2148
17116TIP3    H172839   0.394   6.864   0.599 -1.3107 -0.6830 -0.7489
17116TIP3    H272840   0.503   6.771   0.649  0.0705 -0.0331 -2.5207
17117TIP3   OH272841   0.378   4.863  14.268 -0.0144 -0.0371 -0.2039
17117TIP3    H172842   0.438   4.920  14.316 -0.0041 -0.7952  0.6995
17117TIP3    H272843   0.420   4.850  14.183  0.5854  0.2855  0.0406
17118TIP3   OH272844   5.587   4.155   1.344 -0.0805  0.2273 -0.1679
17118TIP3    H172845   5.563   4.243   1.370  1.1858  0.7098 -0.5532
17118TIP3    H272846   5.680   4.148   1.367 -0.4508 -1.4048  0.9182
17119TIP3   OH272847   0.387   6.708   5.492 -0.2815 -0.2628 -0.9594
17119TIP3    H172848   0.315   6.729   5.432 -0.8855 -3.1119 -1.2891
17119TIP3    H272849   0.441   6.646   5.444  0.2506 -1.1647  0.7639
17120TIP3   OH272850   0.427   2.188   3.442  0.4869  0.1645  0.2969
17120TIP3    H172851   0.347   2.161   3.488  1.0349 -0.5056  0.8802
17120TIP3    H272852   0.398   2.208   3.353 -0.5326  1.1440  0.8403
17121TIP3   OH272853   1.038   1.476  16.491 -0.0794  0.9772 -0.2312
17121TIP3    H172854   1.020   1.383  16.474  3.0534 -0.1290  2.0133
17121TIP3    H272855   1.069   1.510  16.407 -1.4723  0.0709 -1.1323
17122TIP3   OH272856   4.249   3.676   3.438 -0.0543  0.1774 -0.1918
17122TIP3    H172857   4.249   3.752   3.496 -1.4218  0.9896 -1.1943
17122TIP3    H272858   4.278   3.603   3.492 -2.0219  0.7769  1.7179
17123TIP3   OH272859   0.940   1.033  11.353  0.6456 -0.9241 -0.3545
17123TIP3    H172860   0.851   1.000  11.344  0.2882  0.2392 -1.3292
17123TIP3    H272861   0.997   0.960  11.329 -0.1442 -0.5306 -3.5820
17124TIP3   OH272862   1.585   4.122  11.730 -0.2061  0.3357 -0.0651
17124TIP3    H172863   1.514   4.073  11.690  0.6700 -0.7397 -0.3428
17124TIP3    H272864   1.633   4.159  11.655 -0.6606  1.3451  0.1294
17125TIP3   OH272865   1.984   0.769   2.999  0.5087 -0.4263  0.4826
17125TIP3    H172866   1.933   0.692   3.024  2.2770 -1.4769  0.9548
17125TIP3    H272867   1.971   0.775   2.904 -1.1467 -0.1750  0.7089
17126TIP3   OH272868   0.235   4.396   4.035 -0.5260  0.1350 -0.2807
17126TIP3    H172869   0.294   4.436   3.972 -1.2588 -0.0673 -1.1091
17126TIP3    H272870   0.155   4.448   4.029 -1.3871 -1.2459 -1.1708
17127TIP3   OH272871   1.388   1.107   6.723  1.2606 -0.3507 -0.8649
17127TIP3    H172872   1.310   1.052   6.712  1.2041 -0.5285  0.4191
17127TIP3    H272873   1.370   1.185   6.671 -0.4836  0.3461  0.7481
17128TIP3   OH272874   4.914   5.546  15.007 -0.2452 -0.1334 -0.5500
17128TIP3    H172875   4.828   5.588  14.997  0.4971  1.5132 -0.1502
17128TIP3    H272876   4.900   5.480  15.074 -0.9872  0.7982  0.2370
17129TIP3   OH272877   5.690   3.688  17.013  0.3851 -0.2118 -0.8797
17129TIP3    H172878   5.612   3.704  16.959  0.5076 -0.6313 -1.1829
17129TIP3    H272879   5.659   3.631  17.083  0.1229  0.6976 -0.2373
17130TIP3   OH272880   4.770   3.670   0.350 -0.5047 -0.3651  0.4191
17130TIP3    H172881   4.839   3.654   0.415  1.3051  2.6113 -0.6507
17130TIP3    H272882   4.788   3.608   0.279  1.2993  0.6056  0.0035
17131TIP3   OH272883   0.310   5.484   4.479  0.5184  0.0957 -0.4203
17131TIP3    H172884   0.362   5.420   4.430  0.1033 -0.4407 -0.1589
17131TIP3    H272885   0.361   5.565   4.474  0.5446  0.0090 -1.6264
17132TIP3   OH272886   4.315   6.049  12.997  0.1331 -0.0245 -0.2219
17132TIP3    H172887   4.350   6.126  12.952 -0.1723 -0.5537 -1.3802
17132TIP3    H272888   4.389   6.016  13.049  0.3429  0.8825  0.0758
17133TIP3   OH272889   5.671   1.410  11.791  0.2920  0.5248 -0.0507
17133TIP3    H172890   5.764   1.433  11.796  0.8105 -1.6117  0.8553
17133TIP3    H272891   5.634   1.446  11.872  0.6580  0.0491  0.3347
17134TIP3   OH272892   4.100   4.920  12.855  0.0797 -0.0844  0.3048
17134TIP3    H172893   4.194   4.931  12.839  0.1574 -1.0943 -0.0051
17134TIP3    H272894   4.061   5.001  12.823  0.8973  0.5922  0.9694
17135TIP3   OH272895   6.257   0.295   2.874  0.0972 -0.0776  0.6451
17135TIP3    H172896   6.258   0.200   2.878 -1.6422 -0.3135 -2.6792
17135TIP3    H272897   6.341   0.318   2.834 -0.1806 -0.3509 -0.1083
17136TIP3   OH272898   3.776   5.656  16.466 -0.4092 -0.4331 -0.6758
17136TIP3    H172899   3.695   5.674  16.418  0.3908  0.9623 -1.5356
17136TIP3    H272900   3.840   5.633  16.398  0.5883  1.0197 -0.2522
17137TIP3   OH272901   5.686   0.702   2.484 -0.3290 -0.5459 -0.2310
17137TIP3    H172902   5.708   0.706   2.577  0.1563  1.1738 -0.4021
17137TIP3    H272903   5.770   0.708   2.439 -0.5861 -1.0711 -0.7876
17138TIP3   OH272904   1.218   3.653   5.931 -0.3616 -0.8690 -0.2095
17138TIP3    H172905   1.284   3.589   5.955  0.1925 -0.1646  0.1417
17138TIP3    H272906   1.245   3.734   5.974 -0.7384 -0.2442 -1.1274
17139TIP3   OH272907   1.198   2.263  14.307  0.3343  0.1361  0.0567
17139TIP3    H172908   1.255   2.217  14.246 -2.7045 -1.1429 -1.9304
17139TIP3    H272909   1.148   2.324  14.253 -0.9235  0.5011  1.5857
17140TIP3   OH272910   6.214   3.321  11.319 -0.8590  0.0923 -0.7690
17140TIP3    H172911   6.290   3.274  11.354 -2.0835 -0.5532  1.1716
17140TIP3    H272912   6.208   3.293  11.228  0.4217 -0.9363 -0.5563
17141TIP3   OH272913   3.741   6.760  14.552 -0.2266  0.0249  0.2964
17141TIP3    H172914   3.652   6.774  14.521 -0.8257 -1.6963  1.1746
17141TIP3    H272915   3.763   6.672  14.523  0.8485  0.0859  0.8904
17142TIP3   OH272916   3.689   6.369  15.416  0.5204 -0.5638  0.1310
17142TIP3    H172917   3.759   6.431  15.432 -0.5799  0.7554 -0.0830
17142TIP3    H272918   3.650   6.397  15.334  0.2300 -1.7458 -0.1401
17143TIP3   OH272919   2.831   4.675   4.567 -0.3230  0.4644  0.2176
17143TIP3    H172920   2.916   4.644   4.598 -0.2450  1.0441  0.5894
17143TIP3    H272921   2.850   4.718   4.484 -0.4157 -0.3738 -0.2455
17144TIP3   OH272922   4.545   1.824  12.462  0.0845 -0.1999 -0.0700
17144TIP3    H172923   4.509   1.737  12.450  0.0812 -0.2720  0.4462
17144TIP3    H272924   4.504   1.877  12.394  0.9911 -0.8663 -1.1500
17145TIP3   OH272925   6.035   4.505  13.404  0.0434  0.0475 -0.2417
17145TIP3    H172926   6.012   4.544  13.319  1.6582  0.7524 -0.3832
17145TIP3    H272927   6.117   4.549  13.428  1.0243 -2.0953  0.3958
17146TIP3   OH272928   5.240   3.242   4.410  0.3273  0.1587 -0.2744
17146TIP3    H172929   5.248   3.330   4.373  3.1821 -0.5072 -1.3236
17146TIP3    H272930   5.213   3.187   4.336  2.3160 -0.5039 -0.5246
17147TIP3   OH272931   1.786   3.936  10.139 -0.2620  0.4768 -0.1971
17147TIP3    H172932   1.778   4.031  10.130  1.0415  0.5713 -0.4655
17147TIP3    H272933   1.809   3.922  10.231 -3.3878  0.2050  0.5819
17148TIP3   OH272934   5.983   1.241  13.857 -0.8054  0.2650 -0.6795
17148TIP3    H172935   6.065   1.228  13.809  0.0165  0.6428  0.6030
17148TIP3    H272936   5.927   1.289  13.797 -0.1768 -0.2257 -1.6646
17149TIP3   OH272937   1.690   2.899  16.538  0.3413 -0.3359  0.3153
17149TIP3    H172938   1.649   2.984  16.551  0.1091 -0.3112 -0.5565
17149TIP3    H272939   1.774   2.919  16.497  1.0760 -0.4130  1.7271
17150TIP3   OH272940   1.606   0.252   0.241  0.3035  0.2542 -0.3037
17150TIP3    H172941   1.576   0.186   0.179  0.3696  0.2842 -0.3681
17150TIP3    H272942   1.563   0.333   0.213 -0.4424  0.0733  0.2783
17151TIP3   OH272943   4.316   2.931   0.027 -0.5428  0.3896  0.2973
17151TIP3    H172944   4.376   2.956  -0.043 -2.1692 -2.2520 -2.1388
17151TIP3    H272945   4.369   2.881   0.088 -0.1908 -1.9143 -1.8237
17152TIP3   OH272946   3.158   6.714  15.286  0.5203 -0.2520 -0.0381
17152TIP3    H172947   3.204   6.761  15.356 -0.9426  0.6315  0.3381
17152TIP3    H272948   3.113   6.782  15.237  0.6420 -0.9881 -1.1837
17153TIP3   OH272949   4.646   1.004   3.570  0.2254  0.1994 -0.2004
17153TIP3    H172950   4.621   0.911   3.564  1.0275 -0.0416  0.0846
17153TIP3    H272951   4.614   1.031   3.656  0.7075 -0.0369  0.0559
17154TIP3   OH272952   5.417   2.954   4.385 -0.0656  0.1259 -0.2686
17154TIP3    H172953   5.460   3.019   4.442 -0.9521  0.2476  0.2620
17154TIP3    H272954   5.442   2.869   4.423 -1.3632  0.2251  0.8191
17155TIP3   OH272955   0.523   1.111   5.628  0.3652 -0.6957  0.8157
17155TIP3    H172956   0.581   1.097   5.553  0.7776  0.3930  0.9325
17155TIP3    H272957   0.581   1.115   5.703  0.1196  0.1635  0.9608
17156TIP3   OH272958   3.601   3.813  15.083 -0.1637 -0.4482 -0.6967
17156TIP3    H172959   3.608   3.812  15.178  0.9739  3.8103 -0.6314
17156TIP3    H272960   3.517   3.772  15.064 -0.3559 -1.4458  2.1391
17157TIP3   OH272961   3.016   0.153  13.177  0.0355  0.1825  0.4988
17157TIP3    H172962   3.064   0.082  13.134 -0.5045 -0.0189  0.2212
17157TIP3    H272963   3.075   0.182  13.247  0.3968 -0.3231  0.4138
17158TIP3   OH272964   6.640   1.802  12.029 -0.1249  0.0126  0.0699
17158TIP3    H172965   6.725   1.834  12.059 -0.4577  0.3258  0.7130
17158TIP3    H272966   6.577   1.861  12.072 -0.7651 -1.7390  1.5970
17159TIP3   OH272967   3.050   5.911   3.178 -0.6236  0.8214 -0.0989
17159TIP3    H172968   3.092   5.989   3.140  0.5496  0.3786  0.2841
17159TIP3    H272969   2.964   5.908   3.135  0.9497 -0.1009 -3.3652
17160TIP3   OH272970   5.684   5.638   0.976 -0.4812 -0.4746  0.1476
17160TIP3    H172971   5.668   5.723   1.018  1.4643 -0.0189 -0.0055
17160TIP3    H272972   5.598   5.595   0.976 -1.4374  1.3915  0.4290
17161TIP3   OH272973   5.610   2.185  15.443 -0.4592  0.7307 -0.3761
17161TIP3    H172974   5.569   2.247  15.382  0.9195  1.9725 -0.0644
17161TIP3    H272975   5.699   2.175  15.410  0.5738  2.0688  1.9030
17162TIP3   OH272976   5.180   3.892   2.607  0.3431  0.5094 -0.1348
17162TIP3    H172977   5.089   3.863   2.603 -0.0866  1.6976  0.7359
17162TIP3    H272978   5.179   3.979   2.568  0.4069  2.0661  3.1513
17163TIP3   OH272979   3.020   0.933  15.042 -0.6491 -0.2351  0.4311
17163TIP3    H172980   3.017   1.000  15.111 -1.0605  0.2437 -0.0519
17163TIP3    H272981   2.937   0.942  14.996 -0.9885 -1.5264  0.7770
17164TIP3   OH272982   4.855   1.051   2.987  0.5842 -0.1957  0.2819
17164TIP3    H172983   4.854   0.973   2.932  2.1706  0.3163 -0.5252
17164TIP3    H272984   4.939   1.047   3.033  0.1675  0.4353  1.1239
17165TIP3   OH272985   3.243   3.472  14.814 -0.2996  0.4708 -0.5086
17165TIP3    H172986   3.189   3.393  14.815 -0.8513  0.7679 -3.5183
17165TIP3    H272987   3.189   3.539  14.773  0.4778  2.2156  1.2287
17166TIP3   OH272988   3.859   5.272   2.475 -0.1240 -0.5485  0.4070
17166TIP3    H172989   3.795   5.254   2.407 -0.7715  2.9622  0.0403
17166TIP3    H272990   3.942   5.242   2.438 -0.1353  3.0903 -2.7882
17167TIP3   OH272991   2.864   3.885  14.655 -0.1097  0.1515 -0.3829
17167TIP3    H172992   2.808   3.952  14.614 -1.4820 -0.4087  0.5308
17167TIP3    H272993   2.841   3.804  14.608  1.5866  0.3140 -1.5268
17168TIP3   OH272994   0.347   4.884  12.470  0.0220 -0.5031 -0.5950
17168TIP3    H172995   0.291   4.939  12.415  0.5103 -0.1396 -0.7290
17168TIP3    H272996   0.291   4.809  12.492 -0.6530  0.0501 -0.3859
17169TIP3   OH272997   0.296   0.173   5.663  0.0835 -0.1958 -0.4742
17169TIP3    H172998   0.303   0.087   5.622  1.9626 -0.4438  0.3228
17169TIP3    H272999   0.220   0.166   5.720  0.5688 -1.5248  0.0270
17170TIP3   OH273000   6.247   1.186   4.414  0.1555  0.3962  0.1241
17170TIP3    H173001   6.232   1.232   4.332  0.0448  2.8053  1.4490
17170TIP3    H273002   6.315   1.237   4.459  0.6460 -1.2155  1.2599
17171TIP3   OH273003   4.400   6.805  12.790 -0.0659  0.0460  0.2860
17171TIP3    H173004   4.307   6.810  12.812  0.2740  0.0595  1.7458
17171TIP3    H273005   4.434   6.736  12.846  1.0246  0.7482  0.4950
17172TIP3   OH273006   2.893   0.287  12.920 -0.3414 -0.7039  0.4475
17172TIP3    H173007   2.976   0.246  12.895  0.4876  1.1885  0.0032
17172TIP3    H273008   2.902   0.379  12.894 -2.3995 -0.3556  0.8273
17173TIP3   OH273009   1.531   0.911  16.198  0.2031  0.4234  0.3344
17173TIP3    H173010   1.539   0.855  16.275  0.1288  0.2601  0.2235
17173TIP3    H273011   1.558   0.855  16.125 -0.0769  0.4661  0.1965
17174TIP3   OH273012   2.579   1.994   5.905  0.0657  0.1464 -0.1881
17174TIP3    H173013   2.610   1.903   5.902 -1.3929 -0.3529 -0.7344
17174TIP3    H273014   2.651   2.045   5.871  0.1689 -1.0311 -1.7992
17175TIP3   OH273015   4.082   1.668   4.205  0.1578  0.6613  0.3653
17175TIP3    H173016   4.118   1.702   4.123  1.1396 -2.2768 -0.4655
17175TIP3    H273017   3.991   1.698   4.205 -0.2272 -0.3260 -2.4241
17176TIP3   OH273018   4.468   6.609   2.486 -0.6230 -0.0597  0.4680
17176TIP3    H173019   4.511   6.583   2.405 -1.3360 -2.5386  0.8501
17176TIP3    H273020   4.540   6.620   2.548 -0.3704 -2.9171  0.7534
17177TIP3   OH273021   6.443   4.933   3.398  0.2710 -0.1394 -0.2216
17177TIP3    H173022   6.414   5.024   3.405  0.2868 -0.1049 -0.6043
17177TIP3    H273023   6.396   4.887   3.468  1.2865  0.4185  0.8387
17178TIP3   OH273024   2.126   1.571  12.294  0.0792  0.4888  0.2399
17178TIP3    H173025   2.149   1.654  12.251 -0.1143  0.7613  0.6675
17178TIP3    H273026   2.153   1.582  12.385  2.4442 -0.8754 -0.2566
17179TIP3   OH273027   5.488   4.726   0.226  0.0697  0.7913  0.0869
17179TIP3    H173028   5.496   4.757   0.317 -1.2843  0.9727  0.1490
17179TIP3    H273029   5.418   4.779   0.189  0.1180  0.2012 -0.8492
17180TIP3   OH273030   5.888   5.796  13.117 -0.1749  0.2701  0.1369
17180TIP3    H173031   5.875   5.835  13.030  2.0793  0.5882 -0.0793
17180TIP3    H273032   5.865   5.704  13.104 -1.5691  0.6762 -0.3542
17181TIP3   OH273033   0.008   5.326   3.264 -0.4389  0.0854 -0.1741
17181TIP3    H173034   0.045   5.249   3.221 -0.8593 -0.4261  0.3601
17181TIP3    H273035  -0.042   5.370   3.195  0.9342  0.6528 -0.8368
17182TIP3   OH273036   1.766   1.783  15.205  0.0473  0.1466 -0.3786
17182TIP3    H173037   1.701   1.739  15.258  0.9735  0.3793  0.9846
17182TIP3    H273038   1.849   1.739  15.227  0.5269  0.6275 -1.1885
17183TIP3   OH273039   0.426   5.820  16.864  0.2451 -0.1082 -0.2732
17183TIP3    H173040   0.385   5.900  16.829  1.4619  1.2806  1.3695
17183TIP3    H273041   0.369   5.794  16.936  1.6611  1.3058  1.4223
17184TIP3   OH273042   2.432   3.487  15.385  0.5139  0.8135  0.2684
17184TIP3    H173043   2.508   3.459  15.436  0.8729  2.8277  0.8515
17184TIP3    H273044   2.466   3.554  15.326 -0.7275  1.4671  0.2862
17185TIP3   OH273045   5.132   2.330   3.350  0.0465 -0.2956 -0.3895
17185TIP3    H173046   5.102   2.284   3.272  3.1960 -3.2032  0.0002
17185TIP3    H273047   5.208   2.380   3.321  1.3825 -1.5851  0.8215
17186TIP3   OH273048   5.341   5.262  17.286 -0.0096  0.3740  0.1823
17186TIP3    H173049   5.367   5.183  17.240 -0.0145 -0.8341  2.1896
17186TIP3    H273050   5.380   5.333  17.236  0.1158 -0.8935 -1.5640
17187TIP3   OH273051   3.592   6.121  11.009  0.3489  0.2418  0.5841
17187TIP3    H173052   3.519   6.061  11.023  1.1832 -0.5004  1.9023
17187TIP3    H273053   3.561   6.205  11.043 -0.4154  0.3038 -0.2377
17188TIP3   OH273054   2.518   5.209   2.141 -0.3965  0.5843 -0.3411
17188TIP3    H173055   2.567   5.291   2.131 -0.6659  0.9597  1.3272
17188TIP3    H273056   2.443   5.219   2.083  0.3393  0.9111 -1.2536
17189TIP3   OH273057   2.556   0.220   5.024  0.0602 -0.2841 -0.2232
17189TIP3    H173058   2.504   0.248   5.099  1.8433  1.4563  0.4066
17189TIP3    H273059   2.544   0.125   5.020  0.6867 -0.5402  2.8241
17190TIP3   OH273060   6.673   6.724   5.474  0.2130 -0.1023  0.2788
17190TIP3    H173061   6.705   6.765   5.394  0.2771 -2.8963 -1.2153
17190TIP3    H273062   6.582   6.700   5.455  0.7949 -2.4923  0.2862
17191TIP3   OH273063   6.750   5.246   4.688 -0.1711  0.8009  0.3497
17191TIP3    H173064   6.755   5.279   4.777 -1.6255  3.7842 -0.5850
17191TIP3    H273065   6.819   5.293   4.641 -0.4215  0.4093 -0.4183
17192TIP3   OH273066   0.902   2.657   4.034 -0.4931 -0.0519  0.5333
17192TIP3    H173067   0.910   2.567   4.066  0.5379  0.5600  2.0045
17192TIP3    H273068   0.983   2.673   3.986 -0.2839  0.3901  1.0288
17193TIP3   OH273069   6.152   0.806   5.675 -0.2349 -0.0012 -0.1066
17193TIP3    H173070   6.152   0.890   5.723  0.6445  0.5670 -1.1016
17193TIP3    H273071   6.061   0.796   5.647 -0.4932  0.2809  0.5923
17194TIP3   OH273072   2.353   2.981   1.184  0.8618 -0.0020  0.0260
17194TIP3    H173073   2.325   2.980   1.276 -0.2570  1.1565 -0.2726
17194TIP3    H273074   2.381   2.892   1.166 -0.9603 -0.7845  0.9028
17195TIP3   OH273075   4.851   3.426  12.890 -0.4405 -0.1650  0.2367
17195TIP3    H173076   4.863   3.350  12.946  0.3165 -2.0859 -2.3949
17195TIP3    H273077   4.756   3.433  12.879 -0.4944 -1.3832 -0.2680
17196TIP3   OH273078   1.297   2.400  15.085  1.0533  0.8765  0.4786
17196TIP3    H173079   1.298   2.495  15.073  1.8570  0.8757  0.4509
17196TIP3    H273080   1.375   2.370  15.038  0.4046  0.1217 -0.1209
17197TIP3   OH273081   3.663   2.397   2.961  0.7212  0.2138  0.1824
17197TIP3    H173082   3.586   2.453   2.952  0.7395  0.1835 -0.1421
17197TIP3    H273083   3.627   2.309   2.974  0.6869  0.3441  1.0135
17198TIP3   OH273084   0.033   6.084   0.998  0.2122  0.1028  0.4293
17198TIP3    H173085  -0.002   6.005   0.957  0.5901  0.2646 -0.2109
17198TIP3    H273086   0.110   6.054   1.046  1.7789  0.4479 -1.7830
17199TIP3   OH273087   0.189   1.251   1.017 -0.2718 -0.0674 -0.4817
17199TIP3    H173088   0.231   1.332   1.045 -1.1217  0.2150 -0.0211
17199TIP3    H273089   0.254   1.209   0.960 -0.4541  1.7190 -2.0549
17200TIP3   OH273090   2.488   1.701  13.355  0.4817  0.5820  0.0342
17200TIP3    H173091   2.570   1.672  13.316 -0.7794 -1.7577 -0.9741
17200TIP3    H273092   2.425   1.700  13.283 -1.0057 -0.1069  1.3066
17201TIP3   OH273093   3.995   0.066   4.870 -0.4023  0.4372 -0.6854
17201TIP3    H173094   4.023   0.064   4.778  0.5803 -1.8946 -0.3613
17201TIP3    H273095   3.941  -0.012   4.880  0.5724 -0.0414  1.0377
17202TIP3   OH273096   4.838   3.891   5.349  0.0614 -0.9208 -0.5014
17202TIP3    H173097   4.888   3.813   5.374  0.5099 -0.7766 -0.9327
17202TIP3    H273098   4.820   3.935   5.432 -0.6396 -1.7483 -0.2060
17203TIP3   OH273099   5.637   1.486   8.578 -0.2561 -0.3093 -0.0646
17203TIP3    H173100   5.689   1.479   8.499 -0.7776  1.8668 -0.6459
17203TIP3    H273101   5.641   1.579   8.601 -0.7503 -0.7763  2.0160
17204TIP3   OH273102   1.794   1.562  15.914 -0.2063  0.2981 -0.2433
17204TIP3    H173103   1.754   1.648  15.898 -0.8010  0.3804  1.5222
17204TIP3    H273104   1.888   1.578  15.911 -0.2637  0.3106 -3.3991
17205TIP3   OH273105   2.533   5.670   4.856  0.0539 -0.2823 -0.1654
17205TIP3    H173106   2.587   5.590   4.860 -0.1774 -0.3991  0.7563
17205TIP3    H273107   2.592   5.736   4.819  0.7272 -0.4987  0.4943
17206TIP3   OH273108   5.157   0.307  13.087 -0.2762  0.5655 -0.2509
17206TIP3    H173109   5.190   0.344  13.005  1.5746 -0.0917  0.1694
17206TIP3    H273110   5.158   0.379  13.149  1.4027  0.3183  0.0343
17207TIP3   OH273111   5.600   6.217   4.955 -0.4280  0.4941 -1.0587
17207TIP3    H173112   5.641   6.303   4.944 -0.9110  1.0722  1.4557
17207TIP3    H273113   5.570   6.216   5.046 -1.2831 -1.9740 -1.3381
17208TIP3   OH273114   1.286   5.159  15.952 -0.9769 -0.1624  0.4339
17208TIP3    H173115   1.208   5.201  15.914 -2.6587 -1.7371  2.0098
17208TIP3    H273116   1.331   5.121  15.877 -1.0869  1.7397 -0.6516
17209TIP3   OH273117   3.684   2.611  12.767 -0.0320  0.2607  0.2552
17209TIP3    H173118   3.678   2.675  12.697  0.8121 -2.0308 -1.9680
17209TIP3    H273119   3.595   2.606  12.803 -1.3748 -1.1237 -3.0452
17210TIP3   OH273120   1.507   4.014  16.562  0.6679 -0.3749  0.3096
17210TIP3    H173121   1.578   4.032  16.501 -0.4266 -2.7995 -1.7541
17210TIP3    H273122   1.520   3.923  16.588 -0.4549 -0.1818  1.6005
17211TIP3   OH273123   3.581   0.366   5.057  0.4492 -0.6829 -0.1808
17211TIP3    H173124   3.640   0.311   5.005  0.1676 -0.3457 -0.8612
17211TIP3    H273125   3.639   0.411   5.119  0.6832 -1.6932  0.3332
17212TIP3   OH273126   0.351   1.649  14.401 -0.6661 -0.4803  0.1638
17212TIP3    H173127   0.442   1.659  14.429 -0.5383 -0.2807 -0.3173
17212TIP3    H273128   0.315   1.580  14.457  0.0631 -1.2591 -0.3315
17213TIP3   OH273129   0.306   5.598   1.129  0.1643 -0.3154  0.0362
17213TIP3    H173130   0.224   5.600   1.080  0.5299 -2.7514 -0.7584
17213TIP3    H273131   0.374   5.596   1.061  0.8347  0.5665  0.6797
17214TIP3   OH273132   4.483   4.405   0.417 -0.2734  0.3959 -0.5745
17214TIP3    H173133   4.503   4.349   0.342 -0.7073 -2.3278  1.2537
17214TIP3    H273134   4.394   4.380   0.443 -0.5722  2.1149  0.1562
17215TIP3   OH273135   4.651   0.091   3.260 -0.8686  0.6167  0.2075
17215TIP3    H173136   4.676   0.057   3.346  0.6837  0.7126 -0.1892
17215TIP3    H273137   4.699   0.174   3.252 -0.4801  0.2847 -1.0165
17216TIP3   OH273138   3.744   6.563  14.936  0.2094 -0.0203 -0.3744
17216TIP3    H173139   3.688   6.511  14.879 -0.9056 -0.4213  1.0715
17216TIP3    H273140   3.759   6.644  14.887 -0.9018 -0.2783 -1.1584
17217TIP3   OH273141   0.402   3.354   2.817  0.4622 -0.2233  0.1336
17217TIP3    H173142   0.399   3.282   2.880  2.2914  0.0337  0.5439
17217TIP3    H273143   0.483   3.401   2.838 -0.7240  1.9892 -0.0728
17218TIP3   OH273144   0.852   3.884  13.876  0.4235  0.0675 -0.1712
17218TIP3    H173145   0.807   3.966  13.894 -1.6116 -0.8771 -0.7488
17218TIP3    H273146   0.901   3.900  13.796  0.4076  0.8482 -0.0271
17219TIP3   OH273147   2.700   2.511   1.394  0.0913  0.2857 -0.0243
17219TIP3    H173148   2.688   2.492   1.301 -0.8340  0.9223 -0.0379
17219TIP3    H273149   2.788   2.478   1.414 -0.1040 -0.7645 -0.8757
17220TIP3   OH273150   3.622   4.913  11.128 -0.7591 -0.0250  0.5527
17220TIP3    H173151   3.647   4.982  11.190  1.2622 -0.8401  0.6765
17220TIP3    H273152   3.632   4.953  11.042  1.3815 -0.4358  0.5839
17221TIP3   OH273153   1.603   4.502  11.197 -0.1581 -0.2131 -0.6212
17221TIP3    H173154   1.544   4.426  11.194  0.0980 -0.4925  1.0929
17221TIP3    H273155   1.560   4.563  11.258  1.3409 -0.4480  0.6852
17222TIP3   OH273156   2.128   2.237   0.792 -0.0153  0.4685  0.7712
17222TIP3    H173157   2.068   2.162   0.789  0.8786 -0.2420  0.6332
17222TIP3    H273158   2.108   2.286   0.712  1.0210 -0.8956 -0.3588
17223TIP3   OH273159   1.867   5.049   0.817 -0.0970 -0.0926  0.2625
17223TIP3    H173160   1.901   5.121   0.870  0.2960 -1.0090  1.2677
17223TIP3    H273161   1.772   5.053   0.828 -0.1714  1.1002 -0.7687
17224TIP3   OH273162   3.197   6.004  12.895  0.0672  0.0161  0.4047
17224TIP3    H173163   3.133   5.960  12.950  0.0827 -2.3570 -1.3847
17224TIP3    H273164   3.162   5.995  12.806  1.1975  1.6866 -0.2243
17225TIP3   OH273165   2.940   0.616   1.433  0.0584 -0.0621  0.3190
17225TIP3    H173166   2.908   0.530   1.406  0.3331 -0.5558  1.5527
17225TIP3    H273167   2.862   0.670   1.441 -0.1046 -0.1688 -0.5567
17226TIP3   OH273168   4.172   0.506   2.172 -0.1223  0.1878 -0.3744
17226TIP3    H173169   4.154   0.511   2.266 -3.2133 -0.6440 -0.8924
17226TIP3    H273170   4.165   0.597   2.142  1.3339  0.5211  0.2575
17227TIP3   OH273171   3.828   6.012  11.101 -0.5801  0.0985 -0.5691
17227TIP3    H173172   3.760   6.069  11.065  0.5124  1.7344 -0.1124
17227TIP3    H273173   3.792   5.980  11.183 -0.9848  0.6006 -0.5451
17228TIP3   OH273174   3.858   2.828   2.344 -0.0955  0.1462  0.3248
17228TIP3    H173175   3.871   2.734   2.346 -2.9564 -0.2867  2.3244
17228TIP3    H273176   3.900   2.860   2.424  1.1983  0.6276 -0.5397
17229TIP3   OH273177   1.404   1.364  12.289 -0.3106 -0.1503 -0.5382
17229TIP3    H173178   1.313   1.349  12.264 -0.0044 -1.6757 -0.8129
17229TIP3    H273179   1.449   1.284  12.263  0.6808 -0.3543  1.7299
17230TIP3   OH273180   1.367   5.175   0.986  0.3011 -0.1301 -0.2299
17230TIP3    H173181   1.390   5.230   1.062 -0.1349 -0.6127  0.2598
17230TIP3    H273182   1.296   5.223   0.943 -1.4837 -1.2403  1.3395
17231TIP3   OH273183   3.674   5.573   4.094  0.4456  0.6551  0.1760
17231TIP3    H173184   3.647   5.600   4.181 -0.4830  0.8065 -0.1529
17231TIP3    H273185   3.667   5.653   4.041  0.7435  0.5013 -0.0995
17232TIP3   OH273186   4.786   0.997   3.904 -0.4071 -0.0603 -0.6381
17232TIP3    H173187   4.704   1.042   3.884 -1.5938 -1.4767  0.8866
17232TIP3    H273188   4.836   1.059   3.956 -1.4519  0.0245  0.2875
17233TIP3   OH273189   5.881   2.878  14.937  0.2500  0.1464  0.2748
17233TIP3    H173190   5.953   2.866  14.999  2.5805  0.3874 -2.3336
17233TIP3    H273191   5.802   2.874  14.992  2.2421  0.8035  3.3076
17234TIP3   OH273192   6.137   1.774   5.099 -0.0905 -0.2053  0.6627
17234TIP3    H173193   6.229   1.802   5.097 -0.3822  0.7295 -0.9527
17234TIP3    H273194   6.116   1.757   5.007 -1.1864 -1.6256  1.1542
17235TIP3   OH273195   6.260   6.722  17.143  0.9477  0.4369  0.4697
17235TIP3    H173196   6.252   6.631  17.171  1.3019  0.3120  0.1714
17235TIP3    H273197   6.227   6.773  17.217  0.0770  0.0466  0.3517
17236TIP3   OH273198   6.773   5.593   5.283 -0.2898  0.0303  0.0996
17236TIP3    H173199   6.710   5.602   5.212  1.4248  1.5727 -1.2742
17236TIP3    H273200   6.811   5.681   5.292  1.1951 -0.7195  1.3205
17237TIP3   OH273201   6.136   1.913   4.544  0.0265 -0.1926  0.5830
17237TIP3    H173202   6.115   2.006   4.556 -1.0315 -0.1242 -1.7211
17237TIP3    H273203   6.052   1.870   4.534  0.6043 -1.0872 -0.5476
17238TIP3   OH273204   1.133   5.307   1.418 -0.3957  0.3256 -0.0395
17238TIP3    H173205   1.131   5.216   1.388  1.9110  0.8849 -2.0883
17238TIP3    H273206   1.134   5.301   1.513 -1.1028 -1.7658 -0.1449
17239TIP3   OH273207   2.886   3.131   1.727 -0.1357 -0.5480  0.6217
17239TIP3    H173208   2.946   3.131   1.652 -0.1856  0.5129  0.5708
17239TIP3    H273209   2.881   3.223   1.754 -2.8797 -0.3886 -0.2862
17240TIP3   OH273210   3.539   5.663   1.409 -0.0428  0.2061  0.0006
17240TIP3    H173211   3.466   5.617   1.369 -0.5207  0.7902  0.2037
17240TIP3    H273212   3.609   5.657   1.344 -0.3381 -0.1629 -0.2844
17241TIP3   OH273213   1.178   5.131   1.775  0.1620  0.1474 -0.5054
17241TIP3    H173214   1.148   5.202   1.718  0.2387  0.0877 -0.6193
17241TIP3    H273215   1.271   5.123   1.757 -0.0485 -0.7088 -1.2931
17242TIP3   OH273216   4.317   1.857   1.794 -0.2024 -0.4899  0.2527
17242TIP3    H173217   4.354   1.866   1.881  0.6311  1.1178 -0.2494
17242TIP3    H273218   4.229   1.896   1.800 -0.4738 -1.1487  0.5770
17243TIP3   OH273219   6.019   6.106  14.206 -0.2858  0.3436  0.3226
17243TIP3    H173220   6.050   6.175  14.147  3.4919 -3.3642 -2.3523
17243TIP3    H273221   6.034   6.141  14.293  1.2295  3.0563 -0.9474
17244TIP3   OH273222   1.158   2.941   0.868  0.1416 -0.2867  0.5406
17244TIP3    H173223   1.198   2.876   0.811  1.8151 -0.7506  2.1975
17244TIP3    H273224   1.171   3.025   0.823  1.1733 -0.6852  0.0914
17245TIP3   OH273225   4.016   5.747   4.623 -0.5906  0.2164  0.9440
17245TIP3    H173226   3.941   5.803   4.601 -0.6848 -0.5704 -0.7512
17245TIP3    H273227   4.015   5.743   4.719 -2.5371  0.4494  0.9446
17246TIP3   OH273228   2.113   0.485  15.680  0.2784  0.8398 -0.4922
17246TIP3    H173229   2.052   0.516  15.747 -1.8176 -2.6377 -0.6670
17246TIP3    H273230   2.074   0.515  15.597 -0.3206  0.0480 -0.5013
17247TIP3   OH273231   1.296   3.642  15.314  0.0055  0.3182 -0.1174
17247TIP3    H173232   1.371   3.589  15.342  1.7351  1.9760 -1.4169
17247TIP3    H273233   1.326   3.684  15.233 -1.4680  2.8495  0.5844
17248TIP3   OH273234   5.163   3.571  13.386  0.4291  0.1557 -0.1836
17248TIP3    H173235   5.193   3.643  13.441  0.0332 -0.7025  1.1653
17248TIP3    H273236   5.201   3.493  13.426 -1.0775 -0.6267 -0.2777
17249TIP3   OH273237   1.950   0.120  16.058 -0.5599 -0.0736 -0.7186
17249TIP3    H173238   1.891   0.137  16.131 -0.4043  1.0067 -0.8429
17249TIP3    H273239   1.917   0.039  16.019 -0.7874 -0.5180  0.3939
17250TIP3   OH273240   3.823   5.387  11.951  0.5464 -0.7549  0.3005
17250TIP3    H173241   3.769   5.410  11.875  1.8373 -0.3493 -0.5123
17250TIP3    H273242   3.869   5.468  11.973 -1.2685 -0.3234  2.7568
17251TIP3   OH273243   2.641   0.947   5.135  0.5640 -0.0827  0.2522
17251TIP3    H173244   2.558   0.965   5.091  1.2220  1.6911 -0.3063
17251TIP3    H273245   2.644   0.851   5.141 -0.9348 -0.2265 -0.8375
17252TIP3   OH273246   3.219   0.311  13.717 -0.2711  0.1004  0.5838
17252TIP3    H173247   3.192   0.230  13.760 -1.3119  0.3012  0.3092
17252TIP3    H273248   3.273   0.282  13.643 -1.6297 -0.3975 -0.2252
17253TIP3   OH273249   0.447   1.696  12.305  0.1148  0.4635 -0.0944
17253TIP3    H173250   0.498   1.630  12.257  1.7130  2.2232 -0.9006
17253TIP3    H273251   0.461   1.674  12.397 -1.6608 -1.9779 -0.3675
17254TIP3   OH273252   4.873   0.747   5.637  0.0685  0.0159 -0.2674
17254TIP3    H173253   4.955   0.784   5.668  0.8289 -1.2460 -0.7407
17254TIP3    H273254   4.895   0.702   5.556 -1.0887 -0.3302 -0.4082
17255TIP3   OH273255   0.329   0.797  13.268 -0.3644 -0.7132  0.3199
17255TIP3    H173256   0.326   0.760  13.356 -1.8144 -0.0215  0.5814
17255TIP3    H273257   0.328   0.892  13.282  3.2554 -0.5388 -0.3443
17256TIP3   OH273258   3.940   3.303   0.844 -0.7435  0.4022 -0.2970
17256TIP3    H173259   3.926   3.376   0.784 -1.5076  0.0109 -0.5931
17256TIP3    H273260   4.033   3.283   0.835 -0.9485  0.0367 -1.7037
17257TIP3   OH273261   1.954   0.618  15.853  0.0898 -0.4172 -0.0824
17257TIP3    H173262   1.929   0.579  15.936  1.2274 -1.6024 -0.2790
17257TIP3    H273263   1.878   0.604  15.796 -0.3616 -0.3500  0.4997
17258TIP3   OH273264   3.494   2.096  15.605  0.2843 -0.0157  0.0237
17258TIP3    H173265   3.541   2.154  15.665 -0.8056  0.8837  0.0250
17258TIP3    H273266   3.469   2.153  15.532  0.5578 -0.8392 -0.7214
17259TIP3   OH273267   5.496   0.243  13.203 -0.0414 -0.5593  0.4563
17259TIP3    H173268   5.458   0.211  13.121 -1.7538 -0.2693  1.1216
17259TIP3    H273269   5.540   0.167  13.240  3.7100  0.1073 -2.3618
17260TIP3   OH273270   1.245   5.893  12.888 -0.4186  0.1908 -0.0803
17260TIP3    H173271   1.242   5.950  12.811  0.9132  2.2074  1.2947
17260TIP3    H273272   1.338   5.884  12.907 -0.7727  2.2466  3.0503
17261TIP3   OH273273   4.211   3.371  14.333 -0.2074 -0.1580 -0.4484
17261TIP3    H173274   4.291   3.381  14.385 -0.1036 -1.0624 -0.4259
17261TIP3    H273275   4.228   3.420  14.253 -0.3938  1.3220  0.3942
17262TIP3   OH273276   2.868   6.329  13.893  0.8320 -0.0972  0.0965
17262TIP3    H173277   2.866   6.333  13.797  1.2202 -1.6664  0.0025
17262TIP3    H273278   2.820   6.249  13.914 -0.7421  1.1568  1.3087
17263TIP3   OH273279   0.999   5.102  11.042 -0.2937 -0.4006 -1.1283
17263TIP3    H173280   0.964   5.185  11.010  0.4593  0.2586 -0.2720
17263TIP3    H273281   0.991   5.042  10.968 -0.8537  0.4313 -1.7524
17264TIP3   OH273282   6.563   6.714   3.151 -0.0868 -0.0781 -0.1516
17264TIP3    H173283   6.647   6.670   3.168  0.4109  0.6603 -0.6928
17264TIP3    H273284   6.585   6.786   3.093 -1.1767 -0.1517 -0.6652
17265TIP3   OH273285   4.514   0.595  10.771  0.1091 -0.0013  0.8537
17265TIP3    H173286   4.586   0.659  10.768 -0.0677  0.2274  1.3713
17265TIP3    H273287   4.444   0.637  10.721  0.3563 -0.2564  0.2849
17266TIP3   OH273288   1.017   3.554   4.711 -0.4841 -0.0929 -0.3878
17266TIP3    H173289   1.042   3.463   4.726  3.1848  0.6735 -1.1392
17266TIP3    H273290   1.040   3.600   4.792 -0.9396  0.4071 -0.5353
17267TIP3   OH273291   2.973   4.870   3.544  0.2755 -0.2581 -0.3784
17267TIP3    H173292   2.896   4.871   3.602  0.2963 -0.3628 -0.3481
17267TIP3    H273293   3.007   4.959   3.548 -0.9699  0.3132 -1.8964
17268TIP3   OH273294   0.289   3.929  14.024  0.2290  0.3936  0.1907
17268TIP3    H173295   0.265   3.939  13.932 -0.2666  3.3878  0.5756
17268TIP3    H273296   0.254   3.844  14.049 -1.3250  0.3741 -1.9013
17269TIP3   OH273297   0.069   0.054   2.044  0.2849 -0.1864  0.1054
17269TIP3    H173298   0.067   0.097   1.959  1.1082  0.3572  0.3527
17269TIP3    H273299   0.086  -0.038   2.024 -0.0973 -0.1578 -0.3497
17270TIP3   OH273300   2.633   0.672   3.834 -0.1065 -0.0702 -0.2958
17270TIP3    H173301   2.681   0.610   3.888  1.1839  2.9680  2.2418
17270TIP3    H273302   2.554   0.691   3.885  1.4297  3.3048  1.0216
17271TIP3   OH273303   1.126   2.656   5.797  0.1655  0.6873 -0.5408
17271TIP3    H173304   1.151   2.577   5.750  1.3321  0.4688  0.4313
17271TIP3    H273305   1.118   2.629   5.888  0.4601  1.6516 -0.2187
17272TIP3   OH273306   5.370   1.841   0.758  0.0807 -0.3094  0.5684
17272TIP3    H173307   5.307   1.904   0.723 -0.1468 -0.8782 -0.0341
17272TIP3    H273308   5.420   1.812   0.682 -0.3414 -1.4571  0.7269
17273TIP3   OH273309   6.267   4.820   2.668 -0.4775 -0.0398  0.3948
17273TIP3    H173310   6.264   4.825   2.764  0.2410 -1.4138  0.4872
17273TIP3    H273311   6.199   4.757   2.646 -0.2113 -0.1949  0.0307
17274TIP3   OH273312   5.398   0.126   2.033  0.0353 -0.7746 -0.3451
17274TIP3    H173313   5.321   0.126   1.976 -0.4860  0.4736  0.3334
17274TIP3    H273314   5.435   0.213   2.022  0.8365 -1.0681  0.0221
17275TIP3   OH273315   5.949   2.620   1.200 -0.9445  0.1505 -0.5738
17275TIP3    H173316   5.938   2.532   1.235 -1.6000  0.6832  0.5997
17275TIP3    H273317   6.009   2.610   1.126  1.9671 -0.7617  1.8192
17276TIP3   OH273318   6.464   3.437   3.607 -1.1536  0.0340 -0.3036
17276TIP3    H173319   6.371   3.420   3.617 -0.6220 -2.8458  0.1831
17276TIP3    H273320   6.495   3.369   3.547  0.5675  1.2040 -0.8012
17277TIP3   OH273321   4.926   0.237   3.972 -0.4747  0.5179 -0.3955
17277TIP3    H173322   4.936   0.248   3.877 -2.6778  1.5037 -0.5327
17277TIP3    H273323   4.881   0.153   3.982 -1.0687  0.8487 -0.2737
17278TIP3   OH273324   0.427   6.445  16.574 -0.1142  0.2024  0.1439
17278TIP3    H173325   0.501   6.385  16.568 -1.6448 -1.5774 -2.1556
17278TIP3    H273326   0.466   6.532  16.580  2.1628 -0.7739 -0.2800
17279TIP3   OH273327   0.748   0.093  13.553 -0.2941 -0.0088 -0.2486
17279TIP3    H173328   0.700   0.172  13.529  3.4709  2.4351 -0.0793
17279TIP3    H273329   0.804   0.076  13.477  0.0397 -1.6547  0.3520
17280TIP3   OH273330   2.017   2.322   1.045  0.4609  0.1521  0.5083
17280TIP3    H173331   1.996   2.229   1.051  0.2089  0.1856  0.1969
17280TIP3    H273332   2.031   2.338   0.952  1.5446  0.2095  0.6768
17281TIP3   OH273333   6.395   4.107  16.572  0.3521  0.0633  0.1302
17281TIP3    H173334   6.321   4.061  16.531  0.7696 -1.4660  1.0752
17281TIP3    H273335   6.466   4.043  16.573  0.9936  0.7878  1.3318
17282TIP3   OH273336   6.786   6.049   5.417 -0.3630 -0.1247  0.5724
17282TIP3    H173337   6.781   6.144   5.433  1.5930  0.3416 -1.2329
17282TIP3    H273338   6.755   6.009   5.498  0.6125  2.0545  2.0748
17283TIP3   OH273339   0.316   1.856  13.617  0.4159 -0.3616 -0.1593
17283TIP3    H173340   0.386   1.807  13.661 -1.6412 -2.3173  1.0156
17283TIP3    H273341   0.235   1.820  13.652 -1.2310  2.8990 -0.3590
17284TIP3   OH273342   4.751   2.531  14.014 -0.2650 -0.5161  0.0725
17284TIP3    H173343   4.770   2.438  14.007  0.3040 -0.4299  0.4202
17284TIP3    H273344   4.810   2.563  14.083 -0.9613 -0.0383  0.4608
17285TIP3   OH273345   3.153   6.196  14.750 -0.0107  0.2713 -0.0794
17285TIP3    H173346   3.060   6.196  14.728 -0.1134 -1.5369  0.3223
17285TIP3    H273347   3.197   6.211  14.667 -0.6965  2.8658 -0.0231
17286TIP3   OH273348   6.112   5.169   3.916  0.2512 -0.2177 -0.1944
17286TIP3    H173349   6.173   5.100   3.892  1.2126  0.6069 -0.1416
17286TIP3    H273350   6.028   5.125   3.925  1.0047 -1.4995  0.5653
17287TIP3   OH273351   5.417   4.433   5.618 -0.1701  0.2873 -0.1837
17287TIP3    H173352   5.370   4.355   5.646  1.1726 -0.6427 -0.4615
17287TIP3    H273353   5.424   4.487   5.697 -0.8153 -0.0066  0.0824
17288TIP3   OH273354   1.873   5.798   2.971 -0.5933 -0.0183  0.0210
17288TIP3    H173355   1.942   5.741   2.938  1.2631  0.5877  2.6943
17288TIP3    H273356   1.806   5.737   3.003 -1.2208 -0.6120 -2.3215
17289TIP3   OH273357   0.492   0.268  14.452  0.5989 -0.2853 -0.3985
17289TIP3    H173358   0.561   0.230  14.506  0.7769  1.0013  0.2926
17289TIP3    H273359   0.473   0.353  14.493 -3.2280 -1.7041  1.0125
17290TIP3   OH273360   2.621   1.883   3.076  0.7344 -0.3033  0.4083
17290TIP3    H173361   2.580   1.963   3.109  0.2166  0.3188 -1.6635
17290TIP3    H273362   2.548   1.824   3.057  0.8634  0.1218 -1.5417
17291TIP3   OH273363   1.400   3.868   5.990 -0.3563 -0.3779  0.3989
17291TIP3    H173364   1.441   3.905   6.067  1.6442  0.2350 -0.9213
17291TIP3    H273365   1.348   3.940   5.953  1.9612  0.5907 -1.0706
17292TIP3   OH273366   0.465   5.700   4.444  0.1512 -0.0498 -0.0307
17292TIP3    H173367   0.549   5.673   4.406 -0.2590 -0.6253 -0.5346
17292TIP3    H273368   0.489   5.760   4.514  1.0096 -0.5587  0.1166
17293TIP3   OH273369   5.953   0.592   2.925 -0.6906 -0.0572 -0.6974
17293TIP3    H173370   5.947   0.643   3.006  0.3800 -2.2120  0.7768
17293TIP3    H273371   5.994   0.510   2.951 -0.9008 -1.0452 -3.3296
17294TIP3   OH273372   0.641   1.713  12.797 -0.2509  0.3146  0.1955
17294TIP3    H173373   0.638   1.789  12.855  0.4705  0.6567 -0.2002
17294TIP3    H273374   0.735   1.701  12.779 -0.4637  0.2461 -0.9271
17295TIP3   OH273375   2.558   0.422  16.865  0.1893  0.5887 -0.5105
17295TIP3    H173376   2.472   0.408  16.825  1.5322 -1.6184 -2.7143
17295TIP3    H273377   2.620   0.418  16.792  2.4055 -0.2876  1.3594
17296TIP3   OH273378   3.786   3.882  15.942  0.2014  0.2222 -0.0203
17296TIP3    H173379   3.853   3.901  15.876 -2.5097 -0.6341 -3.0969
17296TIP3    H273380   3.794   3.787  15.957 -0.0929  0.1813 -0.1263
17297TIP3   OH273381   1.883   3.778   1.004 -0.0781 -0.4997  0.3740
17297TIP3    H173382   1.880   3.752   1.096  0.3313 -2.3587 -0.1299
17297TIP3    H273383   1.976   3.768   0.980 -0.2271 -0.2625 -0.3082
17298TIP3   OH273384   2.184   0.618  17.179 -0.3717 -0.2409  0.4878
17298TIP3    H173385   2.259   0.658  17.224  0.1961 -1.1788  0.3838
17298TIP3    H273386   2.127   0.588  17.249  1.8502 -4.2861  0.7152
17299TIP3   OH273387   0.632   0.815   4.601 -0.3927 -0.4163  0.2035
17299TIP3    H173388   0.539   0.793   4.605 -0.8130  1.2393 -0.1433
17299TIP3    H273389   0.674   0.750   4.657 -2.0476  0.3262  2.4053
17300TIP3   OH273390   6.762   1.461  12.989 -0.4695  0.4637  0.4422
17300TIP3    H173391   6.686   1.444  13.045  0.1506 -0.5577  0.9871
17300TIP3    H273392   6.837   1.449  13.047  0.1269  0.9402 -0.2280
17301TIP3   OH273393   5.835   3.324  14.727  0.1962 -0.4143 -0.4753
17301TIP3    H173394   5.761   3.374  14.759  0.9918  0.7406 -0.4301
17301TIP3    H273395   5.859   3.365  14.644  1.6049  0.0558  0.1405
17302TIP3   OH273396   3.624   1.577  13.724  0.2991 -0.5544  0.0625
17302TIP3    H173397   3.565   1.503  13.715  0.0755 -0.3935  0.1876
17302TIP3    H273398   3.648   1.578  13.817  0.7439 -0.8050 -0.0468
17303TIP3   OH273399   3.214   1.592   6.604  0.6151 -0.5313  0.1721
17303TIP3    H173400   3.207   1.508   6.648 -0.6573 -0.1752  0.6697
17303TIP3    H273401   3.287   1.582   6.543  0.9116 -1.7606  0.7339
17304TIP3   OH273402   1.427   2.773  12.876  0.4525  0.8027  0.0805
17304TIP3    H173403   1.434   2.776  12.781  1.9009 -0.0935  0.1358
17304TIP3    H273404   1.461   2.686  12.899  0.4518  1.1557  1.4413
17305TIP3   OH273405   1.308   2.892   1.082  0.4257 -0.7169 -0.1534
17305TIP3    H173406   1.256   2.914   1.005 -0.7198  0.9001  1.0404
17305TIP3    H273407   1.273   2.948   1.151  0.9440 -2.6355  1.7317
17306TIP3   OH273408   1.851   1.519   4.218 -0.0146  0.1110  0.5612
17306TIP3    H173409   1.813   1.490   4.135  0.9646 -0.6437  0.3803
17306TIP3    H273410   1.937   1.478   4.222  0.4597  1.1464  1.3715
17307TIP3   OH273411   3.987   1.932   2.438  0.2682  0.4462  0.6455
17307TIP3    H173412   4.066   1.877   2.438  1.2117  1.7774 -0.3291
17307TIP3    H273413   4.016   2.016   2.472 -0.0388  1.8949 -2.4847
17308TIP3   OH273414   2.681   5.046   2.679  0.0415 -0.2873 -0.0462
17308TIP3    H173415   2.666   4.998   2.760  0.7600  0.9019  0.8156
17308TIP3    H273416   2.672   4.981   2.610 -2.4417 -0.9467  0.8451
17309TIP3   OH273417   1.323   0.054  11.526  0.4691 -0.0773 -0.7062
17309TIP3    H173418   1.312   0.001  11.447 -0.1658 -0.7747 -0.1641
17309TIP3    H273419   1.250   0.117  11.524 -0.7824 -1.4375  0.3472
17310TIP3   OH273420   2.091   4.860  13.213 -0.2589 -0.2914 -0.4127
17310TIP3    H173421   2.080   4.925  13.283  0.0310  0.1831 -0.7989
17310TIP3    H273422   2.105   4.777  13.258 -1.6673 -0.2642  0.0930
17311TIP3   OH273423   3.191   1.857  11.607 -0.0621 -0.3055 -0.5904
17311TIP3    H173424   3.280   1.841  11.638 -0.5157  0.6031  1.2229
17311TIP3    H273425   3.196   1.943  11.564  0.0739 -0.5578 -1.0866
17312TIP3   OH273426   5.708   1.636  11.580  0.2092  0.0954 -0.4440
17312TIP3    H173427   5.675   1.583  11.652  0.9558  1.3300  0.8410
17312TIP3    H273428   5.794   1.665  11.610  0.8402  0.0147 -2.1545
17313TIP3   OH273429   5.099   2.012   2.473  0.8470 -0.1533  0.2219
17313TIP3    H173430   5.049   2.092   2.487  0.7677 -0.2280  0.3698
17313TIP3    H273431   5.108   2.005   2.378  0.4487 -0.2181  0.1898
17314TIP3   OH273432   1.056   4.199  16.783  0.1550 -0.7835  0.6360
17314TIP3    H173433   1.136   4.217  16.734 -0.3804  1.9267  0.6601
17314TIP3    H273434   0.986   4.236  16.729 -1.0386 -2.5779  0.8992
17315TIP3   OH273435   6.086   1.935  15.351  0.2413  0.1130 -0.4636
17315TIP3    H173436   6.177   1.918  15.375  1.1028  1.6323 -2.4090
17315TIP3    H273437   6.056   1.853  15.312  0.5175 -0.6561  0.9411
17316TIP3   OH273438   0.616   0.472  13.256 -0.0649 -0.4276 -0.3340
17316TIP3    H173439   0.561   0.535  13.302  1.1737  0.7332 -0.4172
17316TIP3    H273440   0.570   0.388  13.266 -0.6137  0.0878  1.6233
17317TIP3   OH273441   4.955   1.821  13.579  0.1184  0.3693 -0.2383
17317TIP3    H173442   5.015   1.894  13.566  0.7776  0.0653  0.9922
17317TIP3    H273443   4.936   1.788  13.491  1.1277  0.9661 -0.6771
17318TIP3   OH273444   1.171   4.084   0.657 -0.1654  0.1024 -0.4623
17318TIP3    H173445   1.098   4.139   0.628  0.2112  0.3401 -0.9517
17318TIP3    H273446   1.130   4.002   0.685 -0.8173  0.8675  0.9263
17319TIP3   OH273447   4.587   6.420  10.887 -0.5867 -0.0735 -0.1897
17319TIP3    H173448   4.521   6.351  10.879  1.0406 -1.8361  0.9850
17319TIP3    H273449   4.612   6.440  10.797 -0.8195 -1.2997 -0.5346
17320TIP3   OH273450   5.126   2.791   6.112 -0.0329  0.0968 -0.3419
17320TIP3    H173451   5.179   2.800   6.033 -0.1316  2.0473 -0.2025
17320TIP3    H273452   5.093   2.701   6.108 -0.5790  0.3551 -2.8720
17321TIP3   OH273453   6.764   5.418   0.262 -0.0723  0.6838 -0.4461
17321TIP3    H173454   6.707   5.463   0.200 -1.8853 -0.5264  0.3241
17321TIP3    H273455   6.797   5.342   0.214 -0.7145  0.2757 -0.2453
17322TIP3   OH273456   1.960   6.010   4.821 -0.0620  0.2456  0.8809
17322TIP3    H173457   2.037   6.059   4.790 -0.4403 -0.1765 -0.8032
17322TIP3    H273458   1.900   6.011   4.746 -0.8258 -1.2456  1.4662
17323TIP3   OH273459   4.672   6.732  12.545 -0.0193  0.0484  0.5190
17323TIP3    H173460   4.642   6.655  12.593  0.3327 -1.6968 -1.9416
17323TIP3    H273461   4.609   6.741  12.473 -0.5213  2.5729  1.2094
17324TIP3   OH273462   6.760   4.466   5.653 -0.0056 -0.5316 -0.3141
17324TIP3    H173463   6.676   4.423   5.666 -0.3601  0.4178  0.6344
17324TIP3    H273464   6.824   4.406   5.691 -0.1897 -1.4967 -1.5078
17325TIP3   OH273465   4.044   1.988   0.168  0.3839 -0.2148  0.5608
17325TIP3    H173466   4.044   1.896   0.195 -2.2110 -0.5307 -0.3357
17325TIP3    H273467   4.030   2.037   0.249 -0.1021 -0.7308  0.7955
17326TIP3   OH273468   3.990   3.502  10.916 -0.4062  0.3217 -0.2450
17326TIP3    H173469   3.939   3.436  10.963 -0.7521  0.6092 -0.2109
17326TIP3    H273470   3.925   3.568  10.890  0.0131  0.8765  0.1192
17327TIP3   OH273471   2.250   3.748  13.460  1.2808 -0.3247 -0.0454
17327TIP3    H173472   2.238   3.819  13.523  0.4994  0.6024 -1.2284
17327TIP3    H273473   2.293   3.789  13.385  2.5832 -1.5090  0.0279
17328TIP3   OH273474   0.637   3.214   2.657 -0.1224 -0.5586 -0.3358
17328TIP3    H173475   0.667   3.225   2.747 -2.4672  1.5099  0.2572
17328TIP3    H273476   0.665   3.126   2.633  0.7001 -1.0848  2.3529
17329TIP3   OH273477   2.191   3.177   3.201  0.3248  0.7532  0.1202
17329TIP3    H173478   2.236   3.260   3.183  0.3387  0.9016  0.8380
17329TIP3    H273479   2.238   3.113   3.148  0.3348  1.1962 -0.4169
17330TIP3   OH273480   2.822   0.322   1.655  0.2255  0.0782  0.0551
17330TIP3    H173481   2.832   0.230   1.680  1.3092 -0.2070 -1.4216
17330TIP3    H273482   2.884   0.336   1.584 -0.7777  1.6523 -0.5555
17331TIP3   OH273483   4.249   5.968   4.687 -0.3176  0.0354 -0.6098
17331TIP3    H173484   4.340   5.969   4.656 -0.2789  0.5501 -0.4844
17331TIP3    H273485   4.245   5.890   4.744  0.5672  1.0551  0.8824
17332TIP3   OH273486   4.218   0.439  10.481  0.4359 -0.4174  0.1003
17332TIP3    H173487   4.214   0.350  10.446 -1.2325 -0.3907  0.1791
17332TIP3    H273488   4.265   0.489  10.415  0.1595 -1.0709 -0.6005
17333TIP3   OH273489   3.134   6.722   3.587 -0.1031 -0.2001 -0.0386
17333TIP3    H173490   3.099   6.802   3.548  0.1273 -1.2895 -2.5818
17333TIP3    H273491   3.080   6.652   3.550  0.7042 -1.3535  0.9333
17334TIP3   OH273492   0.684   4.331   2.043  0.5767 -0.5216  0.1014
17334TIP3    H173493   0.655   4.390   2.112 -0.7269 -1.1554  0.1201
17334TIP3    H273494   0.604   4.289   2.012  1.3181 -1.2993 -0.8211
17335TIP3   OH273495   4.287   1.658  17.220  0.1022 -0.3280 -0.3978
17335TIP3    H173496   4.233   1.600  17.274  1.5650 -2.0821 -0.8056
17335TIP3    H273497   4.247   1.655  17.133 -1.0409  0.9169  0.0593
17336TIP3   OH273498   0.553   5.525  11.378  0.2839  0.1274 -0.2373
17336TIP3    H173499   0.493   5.534  11.304 -0.7328  1.5880  0.7376
17336TIP3    H273500   0.582   5.614  11.396  0.1763 -0.1600  1.4118
17337TIP3   OH273501   4.826   1.281  16.421 -0.4027  0.2540  0.1198
17337TIP3    H173502   4.921   1.288  16.428 -0.2359 -1.3379 -0.3559
17337TIP3    H273503   4.811   1.256  16.330 -1.2910  0.7297  0.1366
17338TIP3   OH273504   1.276   5.055  12.669 -0.1687 -0.3355 -0.4556
17338TIP3    H173505   1.324   5.068  12.587 -0.8300 -0.4197 -0.8556
17338TIP3    H273506   1.333   4.997  12.720 -0.3464 -1.3534 -1.3757
17339TIP3   OH273507   6.229   2.005   0.371 -0.9297 -0.4335 -0.3927
17339TIP3    H173508   6.234   1.990   0.277 -0.2111  0.4221 -0.5011
17339TIP3    H273509   6.181   2.088   0.379 -0.6164 -0.2872 -0.0253
17340TIP3   OH273510   3.437   5.704   1.883  0.2367 -0.5456  0.6851
17340TIP3    H173511   3.490   5.669   1.811 -1.0609 -2.3656  0.5951
17340TIP3    H273512   3.466   5.656   1.960 -0.1291 -0.3764  0.9312
17341TIP3   OH273513   6.106   0.280  11.848  0.0186  0.4087 -0.2782
17341TIP3    H173514   6.145   0.367  11.841  1.6602 -0.1918  0.8398
17341TIP3    H273515   6.162   0.224  11.794 -1.5980  0.2080 -1.7725
17342TIP3   OH273516   3.103   4.387   1.677  0.3983 -0.8683  0.4372
17342TIP3    H173517   3.089   4.465   1.730  1.0467 -1.0413  0.8698
17342TIP3    H273518   3.193   4.395   1.645 -0.5403  0.1175 -2.1220
17343TIP3   OH273519   3.164   5.924  13.957 -0.1326 -0.0375 -0.5489
17343TIP3    H173520   3.212   6.006  13.952 -1.6067  0.8017 -1.4622
17343TIP3    H273521   3.074   5.948  13.935 -1.0487 -1.5067  1.4240
17344TIP3   OH273522   5.476   3.272  17.127  0.9081 -0.0234 -0.0633
17344TIP3    H173523   5.429   3.189  17.136  0.9710  0.0570  1.0610
17344TIP3    H273524   5.528   3.262  17.048  1.1114 -1.1519  0.2123
17345TIP3   OH273525   6.044   0.097  14.152 -0.4493 -0.6033 -0.4092
17345TIP3    H173526   6.113   0.119  14.090 -0.6313  1.9479  0.2352
17345TIP3    H273527   5.963   0.107  14.103 -0.5959  1.4563  0.1797
17346TIP3   OH273528   1.949   5.683   5.223  0.0026  0.8583 -0.0422
17346TIP3    H173529   1.889   5.745   5.265  0.7309  1.4622  0.1312
17346TIP3    H273530   1.999   5.737   5.161 -0.7287  0.0634 -1.3304
17347TIP3   OH273531   6.170   6.402   1.742  0.6692 -0.2715  0.2513
17347TIP3    H173532   6.176   6.496   1.725 -1.1682  0.0965  1.4768
17347TIP3    H273533   6.236   6.387   1.810  1.1845  0.0697 -0.1665
17348TIP3   OH273534   1.765   1.745  16.537 -0.2399 -0.4724 -0.1325
17348TIP3    H173535   1.738   1.821  16.486  0.2420  0.5395  1.0856
17348TIP3    H273536   1.756   1.671  16.477 -2.0405  0.3474 -0.9248
17349TIP3   OH273537   4.261   4.639   5.988  0.0556 -0.3157 -0.5791
17349TIP3    H173538   4.340   4.587   6.001  0.9787  1.2811  0.2765
17349TIP3    H273539   4.244   4.679   6.074 -0.5804  0.8793 -1.2487
17350TIP3   OH273540   0.177   0.909   5.902 -0.0009  0.3210  0.2383
17350TIP3    H173541   0.104   0.855   5.871  1.1042 -0.3653 -1.1903
17350TIP3    H273542   0.165   0.993   5.858 -0.5845  0.5995  0.9165
17351TIP3   OH273543   5.852   5.733   4.274  0.1098  0.4268  0.8696
17351TIP3    H173544   5.916   5.771   4.333  0.8142 -0.5531  0.7421
17351TIP3    H273545   5.884   5.757   4.186  2.0474 -2.7158  0.6621
17352TIP3   OH273546   3.249   6.731   3.844 -0.4010 -0.1005  0.2233
17352TIP3    H173547   3.216   6.699   3.760  0.3636 -0.7162  0.1537
17352TIP3    H273548   3.180   6.710   3.907 -1.2960  1.0220 -0.3636
17353TIP3   OH273549   3.050   5.709   4.043  0.3653 -0.0835 -0.9886
17353TIP3    H173550   2.963   5.736   4.013 -0.5413 -0.6707  1.0156
17353TIP3    H273551   3.071   5.634   3.988 -1.0070 -0.7716 -0.6084
17354TIP3   OH273552   1.437   6.142  14.306 -0.0810 -0.0521  0.0473
17354TIP3    H173553   1.401   6.080  14.242 -0.1394 -1.4697  1.4110
17354TIP3    H273554   1.385   6.126  14.385  0.1960  1.4573  0.5379
17355TIP3   OH273555   2.276   5.400   0.008 -0.6180  0.0926 -0.0692
17355TIP3    H173556   2.196   5.347   0.008 -0.8655  0.4556 -0.5016
17355TIP3    H273557   2.297   5.410  -0.085  0.0875 -0.2306  0.0524
17356TIP3   OH273558   3.901   3.601   0.703 -0.6906  0.3483  0.1332
17356TIP3    H173559   3.835   3.670   0.694  0.0089  0.9971 -0.1510
17356TIP3    H273560   3.881   3.538   0.635 -1.9176 -0.2193  1.0022
17357TIP3   OH273561   6.554   1.217   2.208  0.1677  0.8053 -0.3381
17357TIP3    H173562   6.516   1.136   2.243  0.6340  0.8046  0.1829
17357TIP3    H273563   6.487   1.283   2.222 -0.2299  0.5043 -0.7960
17358TIP3   OH273564   3.111   5.489  11.267  0.8106 -0.7946  0.1889
17358TIP3    H173565   3.036   5.487  11.208 -0.4384  0.0831  1.7123
17358TIP3    H273566   3.161   5.566  11.241 -1.1518  1.1379  1.9263
17359TIP3   OH273567   0.049   4.771  13.199  0.3452  0.5163 -0.3639
17359TIP3    H173568   0.061   4.863  13.225  0.6892  0.3373  0.1189
17359TIP3    H273569   0.049   4.723  13.282  0.8414  0.0079 -0.6565
17360TIP3   OH273570   0.255   0.526   1.113  0.7167  0.1265  0.3977
17360TIP3    H173571   0.344   0.556   1.132  1.0071 -0.3147 -0.2441
17360TIP3    H273572   0.243   0.545   1.020 -0.2663  1.2152  0.7425
17361TIP3   OH273573   6.651   0.926   0.474 -0.2112  0.1167  0.2154
17361TIP3    H173574   6.575   0.983   0.462 -0.1918  0.4237  1.4098
17361TIP3    H273575   6.726   0.986   0.475 -0.0515 -0.0802  0.0064
17362TIP3   OH273576   4.596   4.880  13.330 -0.0270 -0.0672  0.9146
17362TIP3    H173577   4.653   4.936  13.278  0.3635 -0.9932  0.3284
17362TIP3    H273578   4.652   4.849  13.401  0.1294 -0.7319  0.5105
17363TIP3   OH273579   5.674   2.419   4.495 -0.2009  0.4403 -0.0460
17363TIP3    H173580   5.675   2.368   4.576 -3.2371  1.9380  1.0246
17363TIP3    H273581   5.602   2.382   4.444  1.0252  0.1849 -1.6246
17364TIP3   OH273582   1.476   2.303  16.777 -0.3878 -0.3223  0.0506
17364TIP3    H173583   1.522   2.254  16.708 -0.4292  0.8422 -0.8058
17364TIP3    H273584   1.541   2.311  16.847 -0.5146 -1.9720  0.3818
17365TIP3   OH273585   2.346   6.117   5.804  0.4951  0.5282 -0.3256
17365TIP3    H173586   2.398   6.038   5.815 -2.7766 -1.9447 -1.6798
17365TIP3    H273587   2.282   6.115   5.875  0.9213  2.4524  0.1568
17366TIP3   OH273588   3.425   1.674   1.798  0.0909 -0.3935 -0.0245
17366TIP3    H173589   3.472   1.687   1.880  1.1023  0.3156 -0.7130
17366TIP3    H273590   3.491   1.683   1.730 -1.1305  1.1134 -1.0447
17367TIP3   OH273591   1.053   4.518   6.466 -0.1726  0.0851 -0.8322
17367TIP3    H173592   1.129   4.501   6.521 -0.3498  0.2172 -0.5480
17367TIP3    H273593   0.979   4.522   6.527 -0.1746  1.6441 -0.9166
17368TIP3   OH273594   1.073   2.218  13.376 -0.0499  0.3236  0.3683
17368TIP3    H173595   0.992   2.221  13.326  2.1335  0.9488 -3.3399
17368TIP3    H273596   1.078   2.303  13.419 -1.2471  0.3823  0.4041
17369TIP3   OH273597   5.193   2.919  14.784 -0.0776  0.3319 -0.1852
17369TIP3    H173598   5.149   2.913  14.868 -2.4907  0.7395 -1.3678
17369TIP3    H273599   5.247   2.999  14.790 -0.6920  0.6777  0.7622
17370TIP3   OH273600   4.725   1.834   1.813  0.0749 -0.3146 -0.3095
17370TIP3    H173601   4.704   1.876   1.729  1.9469 -0.7487 -1.0047
17370TIP3    H273602   4.777   1.899   1.860  0.5988 -0.7877 -0.2424
17371TIP3   OH273603   5.413   5.486  17.140  0.0090  0.3775  0.2852
17371TIP3    H173604   5.394   5.575  17.168  0.8526  0.5146  0.4553
17371TIP3    H273605   5.365   5.475  17.058 -0.4470  0.8405  0.4896
17372TIP3   OH273606   1.570   3.296   5.884  0.0666 -0.7672  0.3071
17372TIP3    H173607   1.571   3.234   5.956 -1.7605 -1.6357 -0.3908
17372TIP3    H273608   1.498   3.356   5.903 -0.2263 -0.8084 -0.6313
17373TIP3   OH273609   3.369   3.863   0.311  0.3522 -0.0986 -0.2743
17373TIP3    H173610   3.302   3.847   0.377 -0.3403 -1.1356 -1.2270
17373TIP3    H273611   3.321   3.867   0.228  1.5080 -1.2241 -1.0057
17374TIP3   OH273612   4.220   2.982   0.939  0.3422 -0.3573 -0.0845
17374TIP3    H173613   4.229   2.898   0.983  2.4730  0.8868  2.0120
17374TIP3    H273614   4.185   3.041   1.006  0.3930  0.7897 -1.0457
17375TIP3   OH273615   6.098   1.894   0.615  0.6749 -0.2603  0.7228
17375TIP3    H173616   6.133   1.926   0.531  0.3115  0.4005  0.8165
17375TIP3    H273617   6.166   1.917   0.679  0.6867 -0.2234  0.6971
17376TIP3   OH273618   5.512   1.529   4.322 -0.3759 -0.2339 -0.4258
17376TIP3    H173619   5.534   1.508   4.413  0.1431 -1.7490 -0.8862
17376TIP3    H273620   5.541   1.619   4.310  0.0152 -0.1977  0.7562
17377TIP3   OH273621   2.941   6.463  16.216  0.0661  0.7900 -0.0625
17377TIP3    H173622   3.027   6.462  16.174  0.4949  1.0020  0.8022
17377TIP3    H273623   2.878   6.456  16.144  0.8412 -0.7028 -0.6115
17378TIP3   OH273624   4.179   0.782  13.917 -0.0729 -0.3188 -0.1613
17378TIP3    H173625   4.176   0.785  14.012 -1.8929  0.3006 -0.2217
17378TIP3    H273626   4.245   0.847  13.892 -1.3986  1.3295  0.5785
17379TIP3   OH273627   4.801   0.423   6.102  0.1724  0.0863  0.5298
17379TIP3    H173628   4.850   0.343   6.084  2.7813  1.7584 -0.2345
17379TIP3    H273629   4.827   0.483   6.032 -2.2143  1.4117  0.7183
17380TIP3   OH273630   1.993   6.484   2.022  0.3536  0.3357  0.8373
17380TIP3    H173631   1.921   6.421   2.012  1.8608 -1.1067 -1.3698
17380TIP3    H273632   2.060   6.453   1.962  1.0302  4.2560 -0.5624
17381TIP3   OH273633   1.724   0.327  12.881  0.2625 -0.0579 -0.7814
17381TIP3    H173634   1.708   0.384  12.806  0.0621  0.4940 -0.3256
17381TIP3    H273635   1.636   0.307  12.915  0.3904  0.3318 -0.2214
17382TIP3   OH273636   1.325   1.638   0.030  0.4681  0.0596  0.6593
17382TIP3    H173637   1.253   1.697   0.053 -0.5905 -1.1727  0.5613
17382TIP3    H273638   1.380   1.637   0.108  0.5874  1.2954  0.6078
17383TIP3   OH273639   6.297   5.219  10.106  0.1320 -0.7074  0.0969
17383TIP3    H173640   6.241   5.156  10.152 -0.9428  0.4673  0.4567
17383TIP3    H273641   6.280   5.302  10.151  0.6137  0.0631 -1.1152
17384TIP3   OH273642   0.404   6.694   2.979 -0.2924 -0.0456 -0.6624
17384TIP3    H173643   0.489   6.679   3.020 -0.9060 -0.0840  0.6308
17384TIP3    H273644   0.424   6.708   2.886  0.9536 -1.8600 -0.6961
17385TIP3   OH273645   1.947   2.517  16.643 -0.4763 -0.0654 -0.0591
17385TIP3    H173646   2.036   2.486  16.627 -0.7368 -0.6486 -0.4028
17385TIP3    H273647   1.918   2.467  16.720 -0.7408 -0.3414 -0.3404
17386TIP3   OH273648   3.158   1.796   5.696  0.1013 -0.0116  0.2162
17386TIP3    H173649   3.181   1.752   5.615  0.8923  0.4415  0.1988
17386TIP3    H273650   3.068   1.825   5.682  1.0687  2.3148 -1.4804
17387TIP3   OH273651   5.827   1.238  12.692  0.0744 -0.1363  0.3696
17387TIP3    H173652   5.893   1.280  12.746  1.5559 -1.2069 -0.5792
17387TIP3    H273653   5.838   1.276  12.605 -0.8274 -0.0278  0.2953
17388TIP3   OH273654   4.677   4.316  15.128  0.6323  0.0848 -0.2714
17388TIP3    H173655   4.682   4.348  15.038  0.1659 -0.7288 -0.5900
17388TIP3    H273656   4.637   4.389  15.176  0.0358  0.1821 -0.8937
17389TIP3   OH273657   0.677   6.399  15.372  0.3648  0.5845  0.4706
17389TIP3    H173658   0.605   6.366  15.425 -0.7227 -0.5428 -1.6354
17389TIP3    H273659   0.640   6.474  15.325  0.0320 -0.9359 -1.8053
17390TIP3   OH273660   5.811   5.225  13.135  0.4167  0.0764 -0.4055
17390TIP3    H173661   5.761   5.153  13.095  0.9971  0.8209 -2.5554
17390TIP3    H273662   5.820   5.200  13.227 -0.6057 -1.9127 -0.8114
17391TIP3   OH273663   1.000   0.618  16.598  0.2621  0.4776 -0.1993
17391TIP3    H173664   1.088   0.652  16.580  0.2321 -0.3110 -1.9143
17391TIP3    H273665   1.003   0.527  16.570 -0.9455  0.2799  0.2857
17392TIP3   OH273666   0.604   4.062   5.053 -0.2771  0.1704  0.0526
17392TIP3    H173667   0.573   3.978   5.088 -1.4630  1.1061  1.2991
17392TIP3    H273668   0.618   4.045   4.960 -1.5359 -1.1326  0.0842
17393TIP3   OH273669   2.181   3.491  16.477  0.0072 -0.5454  0.8592
17393TIP3    H173670   2.101   3.485  16.529 -0.1667 -3.3768  0.3463
17393TIP3    H273671   2.151   3.487  16.386  0.5626  1.1068  0.5802
17394TIP3   OH273672   4.872   0.563   0.616 -0.3268 -0.5466  0.1422
17394TIP3    H173673   4.947   0.508   0.593 -1.1017 -0.7674 -2.0354
17394TIP3    H273674   4.902   0.652   0.598  0.0504 -0.4555  1.1678
17395TIP3   OH273675   2.760   6.334   5.066  0.1615  0.5184  0.3348
17395TIP3    H173676   2.823   6.337   4.994  1.8447 -0.2434  1.7404
17395TIP3    H273677   2.674   6.330   5.023  1.1344  0.1684 -1.6186
17396TIP3   OH273678   6.585   4.324  16.945  0.4227 -0.2380  0.1209
17396TIP3    H173679   6.589   4.341  17.039 -0.0042  3.2346 -0.4301
17396TIP3    H273680   6.511   4.263  16.935  1.0132 -1.3274  2.0710
17397TIP3   OH273681   4.731   6.550  13.134  0.0048 -0.1557  0.0936
17397TIP3    H173682   4.772   6.591  13.210  2.1958 -1.7663 -0.1870
17397TIP3    H273683   4.734   6.456  13.153 -3.6691 -0.3561  0.1060
17398TIP3   OH273684   1.184   6.390  11.168  0.3060 -0.1122 -0.4422
17398TIP3    H173685   1.208   6.457  11.104  0.9686  1.0061  0.9492
17398TIP3    H273686   1.179   6.309  11.117  1.0673  0.7118 -1.8620
17399TIP3   OH273687   6.268   4.426   0.287 -0.0026  0.7269 -0.5865
17399TIP3    H173688   6.243   4.337   0.311 -0.7970  1.4567  1.3358
17399TIP3    H273689   6.197   4.457   0.232  0.7630 -0.1643 -2.1194
17400TIP3   OH273690   4.201   3.896  14.549 -0.6235 -0.3808  0.1382
17400TIP3    H173691   4.171   3.924  14.463  0.1640 -0.3049 -0.1156
17400TIP3    H273692   4.288   3.935  14.558 -0.0915 -1.6107  0.3572
17401TIP3   OH273693   3.593   0.123   0.933 -0.3653  0.2476  0.1925
17401TIP3    H173694   3.669   0.073   0.906 -0.4320 -0.0499  0.5650
17401TIP3    H273695   3.611   0.213   0.904  0.1174  0.1725  0.2720
17402TIP3   OH273696   0.204   0.076  10.954 -0.3538 -0.3801 -0.4436
17402TIP3    H173697   0.296   0.102  10.943 -0.4514 -0.1047 -0.5883
17402TIP3    H273698   0.178   0.045  10.867 -0.4355 -0.3532 -0.4281
17403TIP3   OH273699   6.333   0.782  13.493  0.1857 -0.4462 -0.3918
17403TIP3    H173700   6.405   0.760  13.435  0.4892 -1.6555  0.4276
17403TIP3    H273701   6.370   0.775  13.581 -0.7335 -0.3598  0.0113
17404TIP3   OH273702   3.141   3.935   2.127  0.0620 -0.4698  0.7362
17404TIP3    H173703   3.235   3.946   2.111  0.0471  0.0540  1.0074
17404TIP3    H273704   3.136   3.859   2.186  0.2624 -0.9545  0.1367
17405TIP3   OH273705   4.044   2.172  13.403 -0.3918 -0.3024  0.6547
17405TIP3    H173706   4.088   2.251  13.374 -1.2866 -0.3358 -0.8044
17405TIP3    H273707   4.108   2.129  13.460  0.6726  0.6822  0.2198
17406TIP3   OH273708   2.993   6.413  12.175 -0.3611 -0.0744  0.2864
17406TIP3    H173709   3.037   6.369  12.247  0.7940 -0.7287 -0.7881
17406TIP3    H273710   2.983   6.504  12.204  2.1448  0.2167  0.3919
17407TIP3   OH273711   5.539   2.383  17.049 -0.1874 -0.2820 -0.6160
17407TIP3    H173712   5.628   2.349  17.060  0.1292  0.6391 -0.3222
17407TIP3    H273713   5.493   2.314  17.001  0.8467 -0.5136 -1.2827
17408TIP3   OH273714   5.479   5.115   3.665  0.6115 -0.5078 -0.2505
17408TIP3    H173715   5.544   5.169   3.709 -2.7850  2.0141  2.0188
17408TIP3    H273716   5.478   5.033   3.715  2.0347 -0.5736 -0.3203
17409TIP3   OH273717   4.942   6.086   5.709 -0.3744 -0.4317 -0.0701
17409TIP3    H173718   5.027   6.061   5.673 -0.8526 -3.1157  0.5921
17409TIP3    H273719   4.915   6.161   5.656  1.9445 -0.1649 -0.9260
17410TIP3   OH273720   6.621   6.786   0.205  0.3400 -0.2858  0.2312
17410TIP3    H173721   6.637   6.695   0.226 -0.8186 -0.9741 -1.6806
17410TIP3    H273722   6.697   6.812   0.153 -0.5394 -0.9646 -1.4393
17411TIP3   OH273723   6.638   2.035  14.439 -0.2907  0.1833 -0.2586
17411TIP3    H173724   6.591   1.952  14.432  0.1309 -0.0871  0.0751
17411TIP3    H273725   6.574   2.097  14.473 -0.2292 -0.3297  0.7811
17412TIP3   OH273726   6.562   3.237   5.975  0.0494  0.6775 -0.0897
17412TIP3    H173727   6.509   3.166   5.939 -0.1810  0.4688  0.6551
17412TIP3    H273728   6.563   3.304   5.907 -0.9052  0.5488 -0.2286
17413TIP3   OH273729   1.718   4.531  13.046  0.5133 -1.1010 -0.6626
17413TIP3    H173730   1.628   4.514  13.073  0.0392 -1.2324 -2.3204
17413TIP3    H273731   1.716   4.620  13.010  1.1680 -0.8960 -0.2093
17414TIP3   OH273732   2.000   6.060  12.699  0.6411  0.3854  0.0437
17414TIP3    H173733   1.990   6.149  12.733 -0.0927  0.1025  0.5927
17414TIP3    H273734   1.957   6.063  12.614 -1.4973 -0.0353  1.0782
17415TIP3   OH273735   2.858   2.080  16.299 -0.2980  0.6318  0.6474
17415TIP3    H173736   2.784   2.130  16.335 -1.2440 -0.3893  0.1473
17415TIP3    H273737   2.846   1.992  16.334  2.1526  1.0474  2.6731
17416TIP3   OH273738   3.202   2.288   4.040 -0.3752 -0.1583  0.2917
17416TIP3    H173739   3.243   2.327   4.117  0.5470 -0.8046  0.1287
17416TIP3    H273740   3.133   2.232   4.075 -0.9077  0.6585  0.5760
17417TIP3   OH273741   6.768   5.351  15.349 -0.6510 -0.3936 -0.0746
17417TIP3    H173742   6.790   5.275  15.403  2.4195 -0.9431 -2.0135
17417TIP3    H273743   6.801   5.426  15.398  1.0226 -0.7843 -0.5873
17418TIP3   OH273744   2.012   2.542   6.920 -0.4237 -0.1689  0.3610
17418TIP3    H173745   2.070   2.480   6.964  0.7581 -1.5860 -2.9915
17418TIP3    H273746   2.057   2.626   6.927  0.2062 -0.5584  1.0367
17419TIP3   OH273747   4.315   5.917   0.724  0.1206 -0.2841 -0.2321
17419TIP3    H173748   4.299   5.831   0.762 -0.6868  0.6463  1.5783
17419TIP3    H273749   4.395   5.948   0.765  1.1899 -0.7334 -1.9193
17420TIP3   OH273750   4.907   2.306  11.930  0.1827 -0.4460  0.3075
17420TIP3    H173751   4.842   2.367  11.895  1.6217 -0.7424 -3.0130
17420TIP3    H273752   4.978   2.363  11.961  0.2674 -0.3144 -0.1295
17421TIP3   OH273753   2.752   6.184  16.590 -0.1721  0.3036  0.0968
17421TIP3    H173754   2.704   6.230  16.521 -0.6310  0.4381  0.4997
17421TIP3    H273755   2.701   6.201  16.669  1.3188  1.6750  0.7986
17422TIP3   OH273756   0.514   6.146   5.792  0.5599  0.1205  0.0916
17422TIP3    H173757   0.555   6.107   5.869  0.1038 -0.4476  0.0482
17422TIP3    H273758   0.530   6.083   5.722  0.8677  0.5797 -0.2604
17423TIP3   OH273759   1.884   5.468  11.654  0.3420 -0.1719 -0.7717
17423TIP3    H173760   1.960   5.498  11.603  0.6348 -0.7302 -0.6566
17423TIP3    H273761   1.913   5.388  11.697 -0.3363 -0.4240 -0.7791
17424TIP3   OH273762   0.784   1.465   4.557  0.2239  0.1053 -0.2433
17424TIP3    H173763   0.865   1.466   4.608 -0.2775  0.3742  0.5620
17424TIP3    H273764   0.722   1.514   4.610 -0.8220 -1.1532 -0.2719
17425TIP3   OH273765   5.955   6.635   6.118 -0.3744 -0.4359 -0.1829
17425TIP3    H173766   5.871   6.595   6.142  0.0197 -1.8836 -1.1877
17425TIP3    H273767   6.016   6.562   6.113  0.4546  0.3467 -1.6171
17426TIP3   OH273768   1.716   3.543   0.560  0.0483  0.0077 -0.2149
17426TIP3    H173769   1.704   3.588   0.644  1.0217  0.6396 -0.3981
17426TIP3    H273770   1.653   3.585   0.502 -1.3315 -1.1261  0.4545
17427TIP3   OH273771   2.832   5.488  16.505  0.1564 -0.4737 -0.2341
17427TIP3    H173772   2.925   5.501  16.523  0.0797 -0.6551  0.3072
17427TIP3    H273773   2.796   5.576  16.494 -0.0863 -0.2598  1.9942
17428TIP3   OH273774   2.109   6.453  15.347 -0.1017  0.2073 -0.2845
17428TIP3    H173775   2.202   6.442  15.366 -0.3632 -0.8405  0.3978
17428TIP3    H273776   2.068   6.466  15.432 -0.4658  1.7100 -0.6633
17429TIP3   OH273777   2.137   2.098   3.465 -0.4777 -0.4084  0.9025
17429TIP3    H173778   2.218   2.090   3.414 -1.0103 -0.6767  0.0790
17429TIP3    H273779   2.079   2.031   3.428 -1.6789  0.9135  0.2985
17430TIP3   OH273780   6.722   1.115   3.225 -0.1967 -0.1051  0.5668
17430TIP3    H173781   6.755   1.166   3.152 -2.3285 -1.2954 -1.2825
17430TIP3    H273782   6.641   1.159   3.251 -1.3994 -1.8064 -0.2363
17431TIP3   OH273783   0.118   1.038  12.684 -0.2125 -0.1308 -0.1248
17431TIP3    H173784   0.061   0.997  12.619 -0.0029  0.4289 -0.6720
17431TIP3    H273785   0.066   1.110  12.720 -0.0067  0.1163 -0.3191
17432TIP3   OH273786   6.495   0.296  17.034 -0.2557 -0.5477  0.1922
17432TIP3    H173787   6.590   0.298  17.036 -0.2835  0.0072  0.8336
17432TIP3    H273788   6.473   0.303  16.941  0.3021  0.2055  0.1177
17433TIP3   OH273789   4.238   0.272   2.512  0.5582  0.4953 -0.3076
17433TIP3    H173790   4.218   0.179   2.520 -0.6410  0.7920  0.1550
17433TIP3    H273791   4.334   0.276   2.518  0.4059 -0.2830  4.0826
17434TIP3   OH273792   5.472   1.378  17.182 -0.2551  0.3436  0.3763
17434TIP3    H173793   5.494   1.363  17.090  0.5140  0.9736  0.4514
17434TIP3    H273794   5.383   1.344  17.192 -0.8998  1.6343 -0.9578
17435TIP3   OH273795   6.367   1.878  13.201  0.1768 -0.4248 -0.3421
17435TIP3    H173796   6.458   1.890  13.230  0.7440 -0.9023 -1.8829
17435TIP3    H273797   6.320   1.953  13.239  0.9083 -0.9562  1.6663
17436TIP3   OH273798   1.552   1.693  13.541 -0.1558  0.2898  0.0241
17436TIP3    H173799   1.637   1.726  13.570 -0.0284 -0.1301  0.1324
17436TIP3    H273800   1.573   1.629  13.474 -0.2041 -2.3906  2.4772
17437TIP3   OH273801   2.366   2.459   5.082  0.0067  0.1670  0.4923
17437TIP3    H173802   2.312   2.407   5.142 -0.0657  0.4771  0.6936
17437TIP3    H273803   2.337   2.431   4.995  1.1443 -1.3735  0.5807
17438TIP3   OH273804   5.002   4.441  12.305  0.2814 -0.1457  0.1660
17438TIP3    H173805   4.989   4.498  12.381  0.3385 -1.6049  1.2929
17438TIP3    H273806   4.915   4.407  12.286  0.3192 -0.0147 -0.2408
17439TIP3   OH273807   4.095   4.983  11.494  0.4197  0.1073 -0.0317
17439TIP3    H173808   4.083   4.905  11.440 -1.4201 -0.0113  0.5034
17439TIP3    H273809   4.053   4.961  11.577  0.4153  1.4450  0.3336
17440TIP3   OH273810   4.865   2.323   2.227 -0.3134  0.6583  0.0670
17440TIP3    H173811   4.908   2.294   2.147  1.0561  1.6468  0.4282
17440TIP3    H273812   4.795   2.259   2.241  0.1923 -0.2010 -1.2584
17441TIP3   OH273813   2.426   0.860  12.764  0.3768 -0.5514  0.6367
17441TIP3    H173814   2.422   0.831  12.672 -1.2562  0.6754  0.3068
17441TIP3    H273815   2.506   0.913  12.768  0.3724 -0.4755 -0.1129
17442TIP3   OH273816   5.462   2.039  11.569  0.3252  0.4505  0.6238
17442TIP3    H173817   5.373   2.005  11.563  0.9151 -1.0462  0.1161
17442TIP3    H273818   5.483   2.038  11.662 -0.5999  1.9536  0.8727
17443TIP3   OH273819   6.186   6.054   3.074  0.4268 -0.4471  0.1114
17443TIP3    H173820   6.128   6.124   3.106 -0.0077 -0.8394  0.1918
17443TIP3    H273821   6.199   6.074   2.981  0.1439 -0.3712  0.0872
17444TIP3   OH273822   4.146   6.007  15.541 -0.3072 -0.1816  0.2946
17444TIP3    H173823   4.141   6.083  15.483 -0.3008 -0.1946  0.2776
17444TIP3    H273824   4.208   6.032  15.609  1.0449 -0.8293 -0.6846
17445TIP3   OH273825   4.554   2.451  12.455  0.0300 -0.0364 -0.2084
17445TIP3    H173826   4.543   2.378  12.516  0.3694 -0.0187 -0.1247
17445TIP3    H273827   4.649   2.465  12.450 -0.0785  1.1510  0.6731
17446TIP3   OH273828   0.108   1.442  15.588 -0.5213  0.0051  0.9971
17446TIP3    H173829   0.026   1.488  15.607 -0.8483  0.1492 -0.6829
17446TIP3    H273830   0.080   1.354  15.562 -0.4212  0.9200 -2.5557
17447TIP3   OH273831   6.344   5.877   2.794 -0.0769  0.1651 -0.1999
17447TIP3    H173832   6.252   5.852   2.804 -0.0852 -0.9897 -2.7495
17447TIP3    H273833   6.386   5.843   2.873 -1.3136 -2.1064 -0.4714
17448TIP3   OH273834   2.029   0.109   2.118 -0.1269  0.1304 -0.1958
17448TIP3    H173835   2.090   0.175   2.085 -0.5701 -0.1686 -1.6825
17448TIP3    H273836   2.076   0.065   2.188  0.4380  1.5503  0.3199
17449TIP3   OH273837   4.870   3.425   1.333 -0.1575  0.1851  0.2808
17449TIP3    H173838   4.910   3.440   1.247  1.4666 -0.7181  0.8588
17449TIP3    H273839   4.917   3.484   1.392  0.9637 -1.5210  1.1321
17450TIP3   OH273840   5.469   3.118   3.790 -0.5824  0.7062 -0.2917
17450TIP3    H173841   5.508   3.077   3.867  1.1147 -0.4321 -1.7191
17450TIP3    H273842   5.470   3.049   3.723 -0.3913  2.2026 -1.8654
17451TIP3   OH273843   6.376   5.003  11.958  0.2343 -0.0167 -0.1288
17451TIP3    H173844   6.434   4.960  11.895 -0.5972  0.8294 -1.5038
17451TIP3    H273845   6.380   5.096  11.934  2.5510  0.8534  3.2264
17452TIP3   OH273846   2.822   5.698   5.266  0.3403 -0.2576  0.3082
17452TIP3    H173847   2.786   5.781   5.234 -0.6481 -0.4529  0.8886
17452TIP3    H273848   2.761   5.632   5.235 -0.0887 -0.5486  1.7407
17453TIP3   OH273849   4.421   4.303   0.182 -0.1420  0.2774 -0.5478
17453TIP3    H173850   4.326   4.289   0.182 -0.2056  0.4427  1.9150
17453TIP3    H273851   4.431   4.391   0.145 -0.7402 -0.6557 -3.0449
17454TIP3   OH273852   1.453   0.471   0.111 -0.6727  0.6156  0.4143
17454TIP3    H173853   1.507   0.542   0.148 -2.1668  2.1325 -0.2402
17454TIP3    H273854   1.367   0.485   0.149 -1.0505 -0.6979  0.0372
17455TIP3   OH273855   2.542   2.728  11.708 -0.3356  0.0436 -0.0043
17455TIP3    H173856   2.522   2.788  11.636 -0.9199  0.9385  0.8850
17455TIP3    H273857   2.617   2.677  11.677  0.9677  2.0858 -0.3090
17456TIP3   OH273858   4.530   1.588  14.759  0.2314 -0.0066 -0.7754
17456TIP3    H173859   4.618   1.572  14.794  0.4950 -0.7589 -1.7518
17456TIP3    H273860   4.479   1.512  14.788 -0.4706  1.0918  0.9555
17457TIP3   OH273861   0.634   1.727  11.994 -0.1832 -0.0727 -0.1193
17457TIP3    H173862   0.620   1.799  12.056 -0.6608 -0.1314 -0.1553
17457TIP3    H273863   0.597   1.651  12.038 -0.9295 -0.0282 -0.6644
17458TIP3   OH273864   0.723   0.844  14.646 -0.4205  0.6491 -0.7134
17458TIP3    H173865   0.810   0.807  14.662 -0.6287  1.0103  1.3644
17458TIP3    H273866   0.662   0.780  14.682 -0.9557  1.1365 -0.7445
17459TIP3   OH273867   5.300   5.988   3.644  0.2069  0.1689 -0.0504
17459TIP3    H173868   5.384   6.031   3.629  0.6659 -0.1710  1.4798
17459TIP3    H273869   5.308   5.949   3.730 -2.9374  3.5116  1.9306
17460TIP3   OH273870   5.461   4.897  12.884  0.0490 -0.7701  0.2974
17460TIP3    H173871   5.433   4.914  12.973 -1.3194 -0.6662 -0.1377
17460TIP3    H273872   5.551   4.865  12.892 -0.0447 -0.6915  1.6970
17461TIP3   OH273873   6.384   1.488  11.781  0.5127 -0.3744 -0.2519
17461TIP3    H173874   6.361   1.514  11.870 -0.1582 -0.7132 -0.3289
17461TIP3    H273875   6.357   1.397  11.774  1.2450 -0.5705 -0.5632
17462TIP3   OH273876   6.711   1.934  16.487 -0.5707 -1.0370  0.0159
17462TIP3    H173877   6.735   2.025  16.503 -0.6856 -1.0449  0.2394
17462TIP3    H273878   6.616   1.932  16.501 -0.4531 -1.3548  0.7893
17463TIP3   OH273879   4.285   1.617   6.006  0.1380 -0.0206 -0.0467
17463TIP3    H173880   4.337   1.540   5.981 -0.9719 -0.7546 -0.1459
17463TIP3    H273881   4.194   1.589   5.993 -0.2970  1.0639  0.6481
17464TIP3   OH273882   5.497   6.714   5.287  0.4828 -0.1582 -0.7460
17464TIP3    H173883   5.557   6.678   5.222 -1.7468 -0.9955 -2.3775
17464TIP3    H273884   5.430   6.647   5.299  0.0589  0.5938  1.3315
17465TIP3   OH273885   1.291   6.512   6.183  0.2287 -0.1670 -0.9570
17465TIP3    H173886   1.314   6.570   6.111  0.2959  1.9874  0.7760
17465TIP3    H273887   1.321   6.557   6.262 -0.9121 -1.9277  0.5309
17466TIP3   OH273888   2.476   1.868   4.259 -0.0775 -0.1854 -0.4737
17466TIP3    H173889   2.547   1.854   4.196 -0.6668  0.4465 -1.2896
17466TIP3    H273890   2.402   1.895   4.205 -0.6769  0.0465  0.4693
17467TIP3   OH273891   0.529   2.046   1.334 -0.3251 -0.4124  0.7113
17467TIP3    H173892   0.450   2.003   1.366 -1.7735  1.1474 -0.7000
17467TIP3    H273893   0.548   2.112   1.401  1.1228 -2.2459  2.1879
17468TIP3   OH273894   5.423   4.470   4.557 -0.0147 -0.2253  0.4109
17468TIP3    H173895   5.419   4.440   4.647  0.9773 -0.1660  0.4806
17468TIP3    H273896   5.489   4.539   4.557 -1.4803  1.2327  0.0458
17469TIP3   OH273897   2.734   6.806  12.446 -0.1913 -0.9662 -0.0194
17469TIP3    H173898   2.696   6.727  12.485  1.8702 -1.6019  0.7604
17469TIP3    H273899   2.769   6.855  12.520  0.1309 -0.1875 -0.6811
17470TIP3   OH273900   1.087   0.754  15.928  0.8724 -0.3202  0.3590
17470TIP3    H173901   1.173   0.742  15.969  0.3362 -0.7225  1.3866
17470TIP3    H273902   1.051   0.832  15.970 -0.2834 -1.5509  1.7370
17471TIP3   OH273903   1.224   3.002   5.057 -0.0544 -0.2380  0.6664
17471TIP3    H173904   1.270   3.086   5.051  0.1043 -0.1642  2.6602
17471TIP3    H273905   1.131   3.025   5.055 -0.0231 -0.2233 -1.2762
17472TIP3   OH273906   0.510   3.077   5.400 -0.1911 -0.0547  0.4344
17472TIP3    H173907   0.476   3.051   5.485 -0.6155  2.0702  0.9613
17472TIP3    H273908   0.437   3.064   5.339 -0.2883 -0.3920  0.6246
17473TIP3   OH273909   6.169   3.822  16.541 -1.1288  0.7760 -0.2734
17473TIP3    H173910   6.114   3.899  16.554 -1.6004  0.3561  0.2529
17473TIP3    H273911   6.198   3.828  16.450 -1.3254  1.4661 -0.2922
17474TIP3   OH273912   2.060   2.812   0.981 -0.1526  0.2152 -0.2561
17474TIP3    H173913   2.100   2.760   1.052  0.8968  0.0112 -0.9842
17474TIP3    H273914   2.096   2.900   0.993  0.2237  0.1199 -0.6874
17475TIP3   OH273915   0.370   5.843  16.188  0.5693  0.0579 -0.1008
17475TIP3    H173916   0.436   5.909  16.213  1.3552 -1.0948  0.9836
17475TIP3    H273917   0.419   5.761  16.187 -0.7630 -0.7453  0.2310
17476TIP3   OH273918   4.042   2.830   1.958  0.2777 -0.2397  0.6071
17476TIP3    H173919   4.055   2.900   2.021 -1.5345  0.1859  0.5367
17476TIP3    H273920   3.965   2.857   1.907  0.3521 -1.6423 -0.2958
17477TIP3   OH273921   5.625   2.070   6.418  0.5654  0.0199 -0.3390
17477TIP3    H173922   5.590   2.158   6.409  0.4743  0.0054 -0.1141
17477TIP3    H273923   5.618   2.050   6.511 -0.7654 -0.7921 -0.5955
17478TIP3   OH273924   6.613   4.602  13.538 -0.5787 -0.0512 -0.2682
17478TIP3    H173925   6.564   4.676  13.501 -0.5169  0.2609  0.2576
17478TIP3    H273926   6.556   4.568  13.607  0.4180  1.0609  1.1598
17479TIP3   OH273927   0.911   2.844   4.341  0.1661 -0.1924 -0.5651
17479TIP3    H173928   0.959   2.922   4.312 -1.3662  1.4138  1.0891
17479TIP3    H273929   0.980   2.783   4.369  1.3193  2.3527  2.5061
17480TIP3   OH273930   3.609   2.994  15.805 -0.2293  0.3597 -0.2053
17480TIP3    H173931   3.637   3.066  15.750 -0.5316  0.8877  0.3231
17480TIP3    H273932   3.656   3.007  15.888  1.3354 -1.2456 -0.8203
17481TIP3   OH273933   6.619   3.510  16.890  0.4301  0.2322 -0.3338
17481TIP3    H173934   6.541   3.558  16.861  0.4855  0.1604 -0.6024
17481TIP3    H273935   6.594   3.472  16.974  0.3414  0.6243 -0.1836
17482TIP3   OH273936   1.912   1.967   5.595 -0.0573 -0.7593 -0.0115
17482TIP3    H173937   1.891   1.942   5.685 -0.1518 -1.4372 -0.2200
17482TIP3    H273938   1.991   2.022   5.604  0.2466 -1.2604  0.4366
17483TIP3   OH273939   4.049   1.857  17.192 -0.1785 -0.0485 -0.0740
17483TIP3    H173940   4.041   1.951  17.176  0.8286 -0.3474 -2.4291
17483TIP3    H273941   4.123   1.850  17.253 -0.6396  0.7057  0.5911
17484TIP3   OH273942   6.049   3.586  12.715 -0.1231 -0.1477  0.1212
17484TIP3    H173943   6.122   3.647  12.729  1.3772 -1.6324 -0.9499
17484TIP3    H273944   6.049   3.532  12.794  2.6496 -2.7983 -1.5660
17485TIP3   OH273945   1.716   4.822   4.893 -0.6965  0.1638 -0.7281
17485TIP3    H173946   1.638   4.767   4.887 -0.7088  0.2423 -1.3144
17485TIP3    H273947   1.745   4.813   4.983 -1.9237  0.8723 -0.2452
17486TIP3   OH273948   6.249   1.244  16.236  0.3580  0.5293  0.5005
17486TIP3    H173949   6.194   1.287  16.170 -0.5444 -2.1634 -0.5688
17486TIP3    H273950   6.212   1.272  16.320 -1.1957  0.6318 -0.1899
17487TIP3   OH273951   4.953   0.545   5.352 -0.0737  0.0603  0.1243
17487TIP3    H173952   5.018   0.519   5.417 -0.9885  0.7880  1.3349
17487TIP3    H273953   4.870   0.513   5.385 -0.4554 -0.1920 -1.0425
17488TIP3   OH273954   0.820   3.963  16.090 -0.0239  0.7880 -0.0898
17488TIP3    H173955   0.877   3.984  16.164 -0.8314  3.4678 -0.1645
17488TIP3    H273956   0.827   4.040  16.032 -0.4621 -0.6743 -2.1366
17489TIP3   OH273957   5.069   5.999   5.419  0.0425  0.6332  0.2155
17489TIP3    H173958   5.146   6.018   5.473  0.0044 -3.0473  1.7298
17489TIP3    H273959   5.100   6.010   5.329  1.9667  0.5203  0.8361
17490TIP3   OH273960   3.186   4.970   4.120  0.9087 -0.3926 -0.2747
17490TIP3    H173961   3.155   5.060   4.115  0.7289 -0.4936 -1.0610
17490TIP3    H273962   3.211   4.948   4.030  1.6462 -0.8812  0.0422
17491TIP3   OH273963   3.782   0.108   5.244 -0.0815  0.2585  0.3000
17491TIP3    H173964   3.742   0.090   5.159  0.7864  3.8196 -0.9427
17491TIP3    H273965   3.735   0.185   5.277  1.0019  0.1780  2.0776
17492TIP3   OH273966   2.631   4.142  12.163 -0.4614 -0.1224 -0.0260
17492TIP3    H173967   2.576   4.170  12.090 -0.5387  0.9260  0.4182
17492TIP3    H273968   2.674   4.223  12.193  1.0930 -0.8642 -0.1715
17493TIP3   OH273969   2.696   1.946  11.755 -0.3419 -0.0188 -0.0388
17493TIP3    H173970   2.720   1.991  11.836 -2.2058 -0.3585  0.7279
17493TIP3    H273971   2.707   1.853  11.775  1.1848 -0.0147 -0.8446
17494TIP3   OH273972   4.237   2.383  11.270 -0.1344  0.0551  0.0730
17494TIP3    H173973   4.173   2.444  11.308  0.1091 -0.8491  1.9964
17494TIP3    H273974   4.184   2.318  11.226 -0.5413 -0.3524  1.1427
17495TIP3   OH273975   2.690   6.421  13.097 -0.7199  0.0775 -0.8293
17495TIP3    H173976   2.655   6.332  13.101  1.4185 -0.7815 -0.2630
17495TIP3    H273977   2.730   6.427  13.010  2.0144 -0.6999  0.3112
17496TIP3   OH273978   6.212   4.141   0.350 -0.2331  0.0599  0.1603
17496TIP3    H173979   6.269   4.064   0.352  2.0460  1.6550 -0.9302
17496TIP3    H273980   6.143   4.118   0.288  2.3715  0.1150 -2.9237
17497TIP3   OH273981   6.549   6.710   1.724 -0.0963 -0.6552 -0.4852
17497TIP3    H173982   6.638   6.687   1.699 -0.0091 -0.5943 -0.2311
17497TIP3    H273983   6.514   6.758   1.648  1.5730  3.2345  1.1009
17498TIP3   OH273984   6.490   5.152   0.353 -0.1450 -0.0284  0.1286
17498TIP3    H173985   6.450   5.233   0.322 -0.8854  0.0644  1.2815
17498TIP3    H273986   6.419   5.107   0.401  0.4068 -1.0911 -0.0257
17499TIP3   OH273987   0.236   4.151   0.021 -0.1517  0.1485  0.4127
17499TIP3    H173988   0.331   4.146   0.010 -0.2293 -0.4827  0.0611
17499TIP3    H273989   0.224   4.172   0.114  0.3551  1.1684  0.2572
17500TIP3   OH273990   2.757   5.963   4.159 -0.0807 -0.1557  0.3299
17500TIP3    H173991   2.851   5.957   4.179 -0.4376 -2.4649  1.4516
17500TIP3    H273992   2.720   6.008   4.236 -0.0561 -0.2453  0.3945
17501TIP3   OH273993   3.939   2.579  12.091 -0.3692  0.0659 -0.0612
17501TIP3    H173994   3.916   2.665  12.126  0.8555  0.0675  0.7874
17501TIP3    H273995   3.962   2.595  12.000 -1.4887  0.4139 -0.2897
17502TIP3   OH273996   1.113   5.438  14.974  0.2414  0.0351 -0.0186
17502TIP3    H173997   1.068   5.400  14.899 -1.0825  0.4917  0.5257
17502TIP3    H273998   1.045   5.486  15.021  1.1699  0.2236  1.1651
17503TIP3   OH273999   4.569   6.375  11.942 -0.1732 -0.0819 -0.2239
17503TIP3    H174000   4.576   6.313  12.014 -0.5832 -0.0318 -0.1425
17503TIP3    H274001   4.590   6.460  11.981 -1.6753  0.1303  0.1143
17504TIP3   OH274002   0.494   6.540  12.424  0.1229  0.3214 -0.0017
17504TIP3    H174003   0.559   6.534  12.494 -0.5066  0.3282  0.5907
17504TIP3    H274004   0.536   6.592  12.356  1.8155 -1.9914 -0.8233
17505TIP3   OH274005   0.405   0.817   4.434 -0.2074  0.7565 -0.3057
17505TIP3    H174006   0.480   0.859   4.393  0.3480  0.1584  0.0814
17505TIP3    H274007   0.348   0.889   4.459  0.1393  1.2071 -0.7812
17506TIP3   OH274008   5.659   2.020   4.560  0.0878 -0.0087 -0.0988
17506TIP3    H174009   5.611   2.065   4.490  1.9581  0.8069 -0.9037
17506TIP3    H274010   5.597   2.016   4.633 -1.6785 -0.2563 -1.5507
17507TIP3   OH274011   4.632   6.145  13.926 -0.1894 -0.0607 -0.1601
17507TIP3    H174012   4.607   6.056  13.949 -1.4615  0.6142  1.1938
17507TIP3    H274013   4.671   6.138  13.840  1.3667 -2.1812  0.6932
17508TIP3   OH274014   6.056   4.541   4.621  0.0702  0.5654 -0.8325
17508TIP3    H174015   6.150   4.555   4.632 -0.0922  1.8421 -0.9847
17508TIP3    H274016   6.047   4.508   4.531  0.3153  1.0254 -1.0272
17509TIP3   OH274017   6.475   5.489  11.712 -0.4783  0.5755 -0.6918
17509TIP3    H174018   6.397   5.434  11.698 -0.7137  0.8521 -0.4947
17509TIP3    H274019   6.544   5.447  11.662 -0.8408  0.5141 -1.1369
17510TIP3   OH274020   3.707   4.684   3.904  0.2367  0.3033 -0.2912
17510TIP3    H174021   3.619   4.704   3.873  0.1310  0.9871  0.4228
17510TIP3    H274022   3.721   4.745   3.976  0.5918 -1.0351  0.7995
17511TIP3   OH274023   0.329   1.506  11.628  0.1325  0.7571  0.5647
17511TIP3    H174024   0.392   1.433  11.630 -0.0599  0.6246  1.6329
17511TIP3    H274025   0.368   1.572  11.685  0.7848  1.8916 -1.1573
17512TIP3   OH274026   0.568   1.957  16.516 -0.3642 -0.2018 -0.9630
17512TIP3    H174027   0.575   1.880  16.459  0.7723  0.2896 -1.4849
17512TIP3    H274028   0.602   2.029  16.464 -0.7877  0.5409 -0.2210
17513TIP3   OH274029   2.070   3.973   4.507 -0.5841 -0.3982  0.0506
17513TIP3    H174030   2.149   3.960   4.560 -1.1114  0.5895  1.1088
17513TIP3    H274031   2.102   4.009   4.424  0.1613 -1.0072  0.0677
17514TIP3   OH274032   0.256   6.458   0.044  0.0204  0.2217 -0.3262
17514TIP3    H174033   0.162   6.474   0.032  0.2201  1.2468 -0.5766
17514TIP3    H274034   0.295   6.546   0.046  0.6514 -0.0838  2.4808
17515TIP3   OH274035   3.355   6.718   4.996  0.6446  0.2012  0.1564
17515TIP3    H174036   3.360   6.707   5.091  2.5545  2.4470  0.3756
17515TIP3    H274037   3.390   6.805   4.981  0.7618 -0.3022 -2.6617
17516TIP3   OH274038   3.050   3.601   0.618  0.0425 -0.2582 -0.0454
17516TIP3    H174039   3.110   3.607   0.693 -1.9355  0.1174  1.5556
17516TIP3    H274040   3.030   3.507   0.611  0.8967 -0.4040 -0.6776
17517TIP3   OH274041   3.691   2.211  16.489 -0.2588 -0.5020  0.5251
17517TIP3    H174042   3.621   2.186  16.429  1.1253  0.2438 -1.4117
17517TIP3    H274043   3.703   2.134  16.545 -1.9651 -0.9748  0.2831
17518TIP3   OH274044   0.642   2.646   0.575  0.0593 -0.0166 -0.6819
17518TIP3    H174045   0.680   2.564   0.607  0.7864  0.2602 -0.8249
17518TIP3    H274046   0.576   2.618   0.511 -0.1362 -0.5078 -0.2770
17519TIP3   OH274047   0.103   5.447  11.685 -0.0182  0.2235  0.0656
17519TIP3    H174048   0.142   5.366  11.718  2.0856 -0.0070 -2.8547
17519TIP3    H274049   0.175   5.494  11.644 -1.6061  2.7187  0.0286
17520TIP3   OH274050   4.311   2.306   3.966  0.5222  0.2362 -0.0174
17520TIP3    H174051   4.365   2.257   3.905  1.1887  0.0954  0.6692
17520TIP3    H274052   4.330   2.398   3.947  0.1320  0.2066 -0.5462
17521TIP3   OH274053   2.526   3.635  14.802 -0.3255  0.5637  0.0056
17521TIP3    H174054   2.480   3.578  14.863 -0.9398  0.3365 -0.6650
17521TIP3    H274055   2.615   3.640  14.836  0.0034 -1.5647 -0.4366
17522TIP3   OH274056   5.794   0.723   2.733 -0.0556  0.7472 -0.4299
17522TIP3    H174057   5.849   0.663   2.784 -0.5811 -0.3121 -1.0759
17522TIP3    H274058   5.769   0.791   2.795 -0.4252 -0.3613  0.6713
17523TIP3   OH274059   0.576   5.068   1.083  0.3856 -0.3670 -0.1515
17523TIP3    H174060   0.510   5.065   1.013  1.7442  3.9513 -1.8264
17523TIP3    H274061   0.547   5.139   1.140  0.9909 -1.7317  1.8990
17524TIP3   OH274062   4.485   4.577   0.836 -0.2532 -0.0978  0.0176
17524TIP3    H174063   4.525   4.627   0.765  0.6296  0.6370  1.0193
17524TIP3    H274064   4.541   4.500   0.846 -0.8190 -0.5912 -0.5962
17525TIP3   OH274065   6.575   4.126   0.195 -0.0614 -0.1235  0.9518
17525TIP3    H174066   6.559   4.099   0.104  1.8560 -0.2469  0.6300
17525TIP3    H274067   6.658   4.175   0.191  0.6869 -1.2027  2.8187
17526TIP3   OH274068   5.824   1.162  15.342  0.5640 -0.0853 -0.2554
17526TIP3    H174069   5.877   1.099  15.389 -1.3305 -1.6365 -0.1306
17526TIP3    H274070   5.793   1.115  15.265 -2.7700 -0.1198  1.0224
17527TIP3   OH274071   5.068   5.664  15.636 -0.0104  0.1075  0.0046
17527TIP3    H174072   5.151   5.685  15.594  1.3820 -1.1538  2.0117
17527TIP3    H274073   5.026   5.602  15.576  0.1003  1.3727 -1.4104
17528TIP3   OH274074   4.855   0.480  17.107  0.2813  0.1237 -0.1294
17528TIP3    H174075   4.831   0.541  17.037 -2.4251 -1.1424 -0.3384
17528TIP3    H274076   4.870   0.397  17.062  2.9866  0.3264  0.2820
17529TIP3   OH274077   5.132   5.725   5.992 -0.1126 -0.0059  0.8196
17529TIP3    H174078   5.062   5.678   6.036 -0.3474  0.3166  0.7909
17529TIP3    H274079   5.203   5.661   5.984 -0.7240 -0.5987  0.0419
17530TIP3   OH274080   2.564   0.538  14.469 -0.6749  0.0888  0.2583
17530TIP3    H174081   2.474   0.510  14.489 -0.4331 -1.1384 -0.3354
17530TIP3    H274082   2.602   0.558  14.554 -1.8111  1.5484  0.4417
17531TIP3   OH274083   5.907   5.832   5.757  0.0521  0.3854 -0.2401
17531TIP3    H174084   5.987   5.879   5.778 -0.0483  0.0624  0.9239
17531TIP3    H274085   5.865   5.817   5.842 -1.1987  0.4768 -0.8277
17532TIP3   OH274086   1.520   3.618  13.985  0.0670  0.1272  0.2078
17532TIP3    H174087   1.615   3.627  13.993  0.4051 -3.8068  1.8922
17532TIP3    H274088   1.489   3.607  14.074 -1.8333  0.0164 -0.4345
17533TIP3   OH274089   4.976   0.856  11.089 -0.3028 -0.1686 -0.0013
17533TIP3    H174090   5.025   0.810  11.157  0.7942  0.3471 -0.4340
17533TIP3    H274091   5.002   0.813  11.007  0.2345  0.7838 -0.3386
17534TIP3   OH274092   2.215   3.974  16.093 -0.7846 -0.3780  0.1997
17534TIP3    H174093   2.169   3.901  16.133 -1.2864 -0.3528 -0.3150
17534TIP3    H274094   2.148   4.043  16.084 -0.5261 -0.1640 -0.0978
17535TIP3   OH274095   6.813   2.546  12.319  0.4048  0.2031  0.3510
17535TIP3    H174096   6.825   2.606  12.392  0.0647 -0.5890  1.0616
17535TIP3    H274097   6.902   2.527  12.289  0.5777 -0.0245  1.0059
17536TIP3   OH274098   6.596   2.599   5.664  0.7389  0.0918 -0.0167
17536TIP3    H174099   6.605   2.650   5.744 -0.4552  0.2197  0.0423
17536TIP3    H274100   6.617   2.510   5.690  0.0187  0.0732  0.5260
17537TIP3   OH274101   6.029   5.615  16.082  0.7453 -0.3344  0.1690
17537TIP3    H174102   6.119   5.601  16.053  1.5497  0.4781  2.1940
17537TIP3    H274103   6.005   5.533  16.126  0.3827 -0.6510 -0.6050
17538TIP3   OH274104   3.491   4.179   4.890 -0.7584 -0.3791 -0.1369
17538TIP3    H174105   3.487   4.270   4.862 -2.3021 -0.5115 -0.3602
17538TIP3    H274106   3.503   4.184   4.985  2.6230  0.0525 -0.5193
17539TIP3   OH274107   3.133   2.183   4.591  0.3304 -0.0429  0.5229
17539TIP3    H174108   3.193   2.253   4.566  0.3400  0.2523  1.3481
17539TIP3    H274109   3.049   2.228   4.604  0.0589 -0.3689 -0.1009
17540TIP3   OH274110   5.270   0.221   3.497 -0.7422 -0.2684 -0.0030
17540TIP3    H174111   5.306   0.191   3.414  0.3980  3.2573 -0.8618
17540TIP3    H274112   5.175   0.227   3.482 -0.8131 -1.9800 -0.2603
17541TIP3   OH274113   4.205   4.435  13.012 -0.6077 -0.0033  0.1416
17541TIP3    H174114   4.211   4.412  12.920  0.8701 -1.3371  0.5504
17541TIP3    H274115   4.260   4.512  13.021  1.9138 -1.7757  0.4868
17542TIP3   OH274116   5.311   5.358  15.296  0.3985 -0.3578 -0.3584
17542TIP3    H174117   5.316   5.410  15.376  1.1028 -1.2986  0.2198
17542TIP3    H274118   5.389   5.302  15.299  0.2110 -0.6863 -1.4954
17543TIP3   OH274119   4.394   6.354   5.465 -0.1065 -0.5468  0.1353
17543TIP3    H174120   4.470   6.410   5.481  0.5128 -1.1152 -0.7368
17543TIP3    H274121   4.429   6.265   5.465 -0.5611 -0.7415 -1.4156
17544TIP3   OH274122   6.589   2.884  13.232  0.2922 -0.1214 -0.0610
17544TIP3    H174123   6.509   2.931  13.208  0.2525  0.3964  1.0454
17544TIP3    H274124   6.614   2.837  13.153  0.3215  1.7603 -1.1774
17545TIP3   OH274125   3.607   5.965  16.466  0.5995 -0.2536  0.0619
17545TIP3    H174126   3.626   5.915  16.386  0.8972 -1.0546  0.6252
17545TIP3    H274127   3.678   5.943  16.525  0.4130  0.3922  0.5239
17546TIP3   OH274128   2.861   3.503   6.005 -0.4026  0.4224 -0.4223
17546TIP3    H174129   2.945   3.547   5.989 -0.2668 -0.0813 -1.1027
17546TIP3    H274130   2.884   3.424   6.054 -0.6301  0.9985  0.6400
17547TIP3   OH274131   6.440   5.271   1.369 -0.5471  0.5098 -0.6668
17547TIP3    H174132   6.459   5.234   1.455  0.3034  2.5006  0.0350
17547TIP3    H274133   6.524   5.306   1.339 -1.2058  1.4053 -1.5081
17548TIP3   OH274134   1.897   2.839  12.904 -0.3576 -0.1111  0.5808
17548TIP3    H174135   1.904   2.752  12.864 -2.2964 -0.0029 -0.0482
17548TIP3    H274136   1.805   2.847  12.928 -0.0146  1.4333  1.4404
17549TIP3   OH274137   5.275   3.540  16.410 -0.5606  0.3731  0.2487
17549TIP3    H174138   5.210   3.512  16.345  0.6457 -1.2066 -0.3156
17549TIP3    H274139   5.349   3.572  16.359  0.7734 -1.7244  0.7658
17550TIP3   OH274140   0.441   4.000   1.770 -0.3337  0.9496  0.4658
17550TIP3    H174141   0.509   3.999   1.837  0.6460  2.4624 -0.4803
17550TIP3    H274142   0.365   4.039   1.812 -0.4755 -0.3011  1.3860
17551TIP3   OH274143   1.738   2.462  12.620 -0.2949 -0.1055 -0.1827
17551TIP3    H174144   1.774   2.547  12.596 -2.2688  0.9047  0.2692
17551TIP3    H274145   1.725   2.417  12.537  0.5540  0.1213 -0.4410
17552TIP3   OH274146   3.204   0.992   3.473 -0.7688  0.1690  0.0528
17552TIP3    H174147   3.167   1.005   3.560 -1.9481 -1.2011 -0.2319
17552TIP3    H274148   3.289   0.950   3.489  0.8227  3.4955  0.7139
17553TIP3   OH274149   5.517   4.535  11.992 -0.3889  0.3490 -0.0415
17553TIP3    H174150   5.524   4.545  11.897 -1.7202 -2.3287 -0.4686
17553TIP3    H274151   5.423   4.522  12.007  0.1425 -2.1650  1.2871
17554TIP3   OH274152   6.087   0.488  13.810  0.1254  0.5582  0.6918
17554TIP3    H174153   6.007   0.481  13.759  0.1119  1.1449  0.6354
17554TIP3    H274154   6.068   0.440  13.891  0.4422 -1.1215 -0.1869
17555TIP3   OH274155   4.224   4.991   4.247  0.4881 -0.1494 -0.4128
17555TIP3    H174156   4.198   5.083   4.240  1.7080  0.1810 -0.6880
17555TIP3    H274157   4.219   4.957   4.158  2.1660  0.2493 -0.6790
17556TIP3   OH274158   4.525   1.749  16.603 -0.0677 -0.1208  0.3454
17556TIP3    H174159   4.560   1.762  16.514  0.8260  0.4941  0.7697
17556TIP3    H274160   4.596   1.705  16.650 -0.1075  0.5660  1.0561
17557TIP3   OH274161   3.998   2.358   5.592  0.2748  0.1921  0.1473
17557TIP3    H174162   3.947   2.395   5.664  1.4719  0.3541  0.9298
17557TIP3    H274163   3.935   2.346   5.521 -1.2786 -1.5025  1.7464
17558TIP3   OH274164   5.386   4.414   2.190 -0.3769 -0.0725 -0.2335
17558TIP3    H174165   5.459   4.382   2.243 -1.0791 -0.8558  0.2819
17558TIP3    H274166   5.355   4.336   2.143 -2.0113 -0.1425  0.9142
17559TIP3   OH274167   5.806   4.261   3.243  0.0727  0.3717 -0.8173
17559TIP3    H174168   5.875   4.226   3.186  1.2037  1.1627  0.0231
17559TIP3    H274169   5.844   4.256   3.331 -1.7881 -1.1831 -0.0726
17560TIP3   OH274170   3.156   4.227   2.389  0.1717  0.1711 -0.3761
17560TIP3    H174171   3.147   4.136   2.417 -1.9323  0.5142  0.1894
17560TIP3    H274172   3.245   4.234   2.355  0.8327 -1.7354  0.8941
17561TIP3   OH274173   1.072   2.792  13.812 -0.5910 -0.5266  0.9142
17561TIP3    H174174   1.010   2.770  13.882  0.2333  0.7126  2.0511
17561TIP3    H274175   1.133   2.853  13.853  1.3104 -1.6307 -0.2231
17562TIP3   OH274176   0.203   3.500  14.722  0.1491 -0.0830  0.3030
17562TIP3    H174177   0.297   3.506  14.711 -0.0220 -0.4732 -1.4505
17562TIP3    H274178   0.181   3.410  14.698 -1.0151  0.8046 -2.0953
17563TIP3   OH274179   0.430   5.551  12.914  0.0704  0.4932 -0.2581
17563TIP3    H174180   0.365   5.520  12.851  0.1534  1.6535 -0.9280
17563TIP3    H274181   0.387   5.623  12.960  1.5458  2.6756 -2.1601
17564TIP3   OH274182   0.427   3.473   4.099  0.4317 -0.4057  0.7374
17564TIP3    H174183   0.426   3.552   4.045  1.5336 -0.9915 -0.1743
17564TIP3    H274184   0.508   3.479   4.149  0.2362 -0.6737  1.0852
17565TIP3   OH274185   6.116   2.941  16.620  0.6435 -0.1996 -0.4148
17565TIP3    H174186   6.064   3.007  16.666  0.7108 -0.6116  0.2621
17565TIP3    H274187   6.200   2.940  16.667  0.0734 -1.9215  0.6226
17566TIP3   OH274188   0.222   4.477   2.922 -0.1560  0.1613  0.2294
17566TIP3    H174189   0.266   4.393   2.936 -1.1636 -0.3005  0.7240
17566TIP3    H274190   0.271   4.519   2.851  0.0296 -1.0916 -0.4043
17567TIP3   OH274191   5.218   2.996  12.599 -0.2378  1.0845  0.3979
17567TIP3    H174192   5.167   2.923  12.564 -3.4377  2.1870  2.6156
17567TIP3    H274193   5.299   2.955  12.632 -1.0140 -1.1231 -0.3374
17568TIP3   OH274194   4.789   2.429  13.749 -0.1941  0.2765 -0.9457
17568TIP3    H174195   4.850   2.368  13.790  0.5798  1.3382 -0.4887
17568TIP3    H274196   4.749   2.476  13.822  0.8208  1.8269 -1.3625
17569TIP3   OH274197   2.560   5.426  15.333 -0.2461  0.1199 -0.6596
17569TIP3    H174198   2.653   5.449  15.341  0.2692 -1.3697 -2.2569
17569TIP3    H274199   2.520   5.503  15.293  1.0895 -0.8515 -3.9637
17570TIP3   OH274200   1.821   2.139  14.519  0.0561 -0.4586  0.2372
17570TIP3    H174201   1.726   2.148  14.520  0.0108 -0.8753  0.0168
17570TIP3    H274202   1.843   2.138  14.425  0.5692  2.5764  0.2851
17571TIP3   OH274203   0.869   6.182  16.258 -0.7327  0.2779  0.1946
17571TIP3    H174204   0.875   6.174  16.353 -0.1925 -0.6843  0.0910
17571TIP3    H274205   0.924   6.258  16.237 -0.4179  0.1617  0.6015
17572TIP3   OH274206   5.884   2.807  16.175  0.0789  0.0035 -0.1184
17572TIP3    H174207   5.806   2.805  16.120  1.1299 -1.6017 -1.5939
17572TIP3    H274208   5.926   2.891  16.153 -0.9710  0.6563  0.3366
17573TIP3   OH274209   4.385   0.456   4.376  0.0548 -0.1568 -0.0840
17573TIP3    H174210   4.342   0.450   4.290 -0.8578  0.8222  0.2927
17573TIP3    H274211   4.475   0.426   4.360 -0.1244 -0.0374 -1.3648
17574TIP3   OH274212   5.269   3.166   3.000  0.4556  0.8127  0.5645
17574TIP3    H174213   5.258   3.256   2.967 -0.2335  1.4366  2.4473
17574TIP3    H274214   5.339   3.173   3.065  1.6270 -0.3654 -0.5421
17575TIP3   OH274215   4.487   3.098  14.681  0.5504  0.6525  0.4454
17575TIP3    H174216   4.575   3.062  14.667  0.1891  0.5801 -1.7797
17575TIP3    H274217   4.432   3.020  14.694  0.2325  0.4849 -1.6964
17576TIP3   OH274218   6.049   5.869  13.799  0.2225 -0.0252 -0.2918
17576TIP3    H174219   6.009   5.796  13.751 -2.1403  0.9987  0.0160
17576TIP3    H274220   6.109   5.828  13.860 -0.4073 -1.6709 -0.7509
17577TIP3   OH274221   0.463   0.670  14.829  0.3828  0.3917  0.2119
17577TIP3    H174222   0.375   0.667  14.867  0.1006  1.0655 -0.3717
17577TIP3    H274223   0.521   0.684  14.904 -0.1697  1.7407  0.4076
17578TIP3   OH274224   3.359   1.545  14.933  0.0534 -0.3824  0.3707
17578TIP3    H174225   3.300   1.620  14.925 -0.0508 -0.3483  1.3649
17578TIP3    H274226   3.446   1.584  14.941 -0.0523 -0.3429  1.3899
17579TIP3   OH274227   5.263   2.974  15.919 -0.1750 -1.0591  0.0117
17579TIP3    H174228   5.181   2.927  15.923  0.8916 -2.8623  1.3056
17579TIP3    H274229   5.313   2.930  15.850  0.1662 -0.7295  0.0443
17580TIP3   OH274230   0.840   2.227  13.240 -0.5365 -0.0110  0.3398
17580TIP3    H174231   0.753   2.194  13.217  0.0688 -0.7744 -0.9491
17580TIP3    H274232   0.867   2.279  13.164  0.9188 -1.3820 -0.1250
17581TIP3   OH274233   5.816   5.122  15.723 -0.2040 -0.3628 -0.3160
17581TIP3    H174234   5.802   5.183  15.651  2.2470  0.9527  0.2987
17581TIP3    H274235   5.729   5.084  15.739 -1.5856  2.2957 -1.2761
17582TIP3   OH274236   2.929   5.309   2.985 -0.0474 -0.3402  0.2692
17582TIP3    H174237   2.882   5.226   2.991  0.7995 -0.9641 -1.4882
17582TIP3    H274238   2.935   5.339   3.076  0.3847 -2.6318  1.0349
17583TIP3   OH274239   0.095   5.479   2.579  0.2061 -0.2145 -0.0174
17583TIP3    H174240   0.044   5.398   2.571 -0.8128  0.4932 -0.7630
17583TIP3    H274241   0.030   5.548   2.589  0.9838  0.7622 -1.4748
17584TIP3   OH274242   3.439   1.343   4.427  0.0198  0.0006 -0.2833
17584TIP3    H174243   3.454   1.436   4.410 -0.7967  0.1689 -0.0819
17584TIP3    H274244   3.346   1.330   4.409 -0.0588 -0.5916  0.5344
17585TIP3   OH274245   0.430   1.263  15.226 -0.3254 -0.1246  0.3141
17585TIP3    H174246   0.439   1.358  15.221 -1.3790  0.0328  1.1642
17585TIP3    H274247   0.401   1.247  15.316  2.3916 -1.4674  1.0055
17586TIP3   OH274248   1.645   3.609  10.223 -0.1104  0.0470 -0.1178
17586TIP3    H174249   1.665   3.625  10.131 -2.5040 -0.1454 -0.7109
17586TIP3    H274250   1.729   3.613  10.268  1.0675  0.1821 -2.3133
17587TIP3   OH274251   4.890   1.796   5.920 -0.3768 -0.1705 -0.3330
17587TIP3    H174252   4.883   1.710   5.962  1.1758  0.3388  1.0287
17587TIP3    H274253   4.833   1.852   5.973  2.3595  0.7024  1.8196
17588TIP3   OH274254   3.206   3.523  11.634 -0.6099  0.2529  0.3751
17588TIP3    H174255   3.130   3.538  11.577 -1.1007 -1.2811  0.6199
17588TIP3    H274256   3.260   3.460  11.586  0.4345  1.1988  0.2841
17589TIP3   OH274257   0.052   5.151  13.650  0.1301 -0.7741  0.2533
17589TIP3    H174258   0.056   5.122  13.741  0.4769  0.0133  0.4943
17589TIP3    H274259   0.070   5.072  13.599  0.8043 -1.0353  0.8884
17590TIP3   OH274260   3.570   6.393   2.686 -0.2693 -0.5203 -0.1223
17590TIP3    H174261   3.566   6.306   2.724 -1.9107  0.2733  1.6037
17590TIP3    H274262   3.641   6.437   2.732 -0.3139 -0.5123 -0.0620
17591TIP3   OH274263   2.791   3.226  12.022  0.0831 -0.5055 -0.1102
17591TIP3    H174264   2.785   3.158  12.089 -0.9801  0.4363  0.7605
17591TIP3    H274265   2.714   3.213  11.967 -0.9126  0.8689  0.9134
17592TIP3   OH274266   1.701   5.272   4.801  0.1127  0.1910  0.5189
17592TIP3    H174267   1.652   5.190   4.799 -0.4364  0.4955  1.2723
17592TIP3    H274268   1.753   5.271   4.721  0.8518 -1.3404  1.0058
17593TIP3   OH274269   0.704   1.232   2.986  0.0117  0.0199  0.3128
17593TIP3    H174270   0.638   1.238   3.055  0.1556 -0.3961  0.4900
17593TIP3    H274271   0.788   1.228   3.034  0.2264  1.3764  0.0724
17594TIP3   OH274272   2.414   6.196  14.776  0.1147 -0.1200  0.0121
17594TIP3    H174273   2.392   6.195  14.869 -0.7060  0.2101 -0.1720
17594TIP3    H274274   2.349   6.138  14.736  0.1332  0.1577 -0.4204
17595TIP3   OH274275   1.780   3.137   1.787 -0.3973  0.2666  0.4953
17595TIP3    H174276   1.778   3.232   1.798 -0.6367  0.4602 -1.1316
17595TIP3    H274277   1.854   3.122   1.728 -0.9678 -0.4663 -0.0418
17596TIP3   OH274278   6.018   4.561   2.141  0.1606  0.0502 -0.1370
17596TIP3    H174279   5.994   4.541   2.232  0.5386 -1.2118 -0.2954
17596TIP3    H274280   5.949   4.619   2.110  0.2724  0.8667  1.0985
17597TIP3   OH274281   3.593   1.237   5.346 -0.8957  0.0059  0.0837
17597TIP3    H174282   3.555   1.299   5.284 -2.4027  1.3463  2.2871
17597TIP3    H274283   3.646   1.291   5.404 -1.7224 -0.8329  1.6480
17598TIP3   OH274284   1.502   1.401  15.191  0.2725  0.0827 -0.1452
17598TIP3    H174285   1.440   1.471  15.214  0.6258  0.6267 -0.8156
17598TIP3    H274286   1.471   1.368  15.107 -0.5248 -1.3192  0.6944
17599TIP3   OH274287   1.133   4.755  11.574 -0.2656 -0.2309  0.2174
17599TIP3    H174288   1.151   4.790  11.487 -0.2709 -0.2903  0.1918
17599TIP3    H274289   1.101   4.830  11.624 -1.9176 -0.5643 -0.3097
17600TIP3   OH274290   3.477   6.355  12.889  0.3212 -0.2015 -0.3140
17600TIP3    H174291   3.402   6.311  12.849  0.6891  0.8821 -2.2841
17600TIP3    H274292   3.444   6.441  12.915 -0.5794 -1.8156  4.1719
17601TIP3   OH274293   4.872   0.364   2.801  0.6233  0.9001  0.5456
17601TIP3    H174294   4.890   0.395   2.890  1.2841 -1.1035  1.1507
17601TIP3    H274295   4.878   0.442   2.746 -1.8637  2.5878  2.5029
17602TIP3   OH274296   6.497   6.768  10.772 -0.3837 -0.3449  0.6627
17602TIP3    H174297   6.552   6.823  10.716 -0.3592 -0.4292  0.6029
17602TIP3    H274298   6.433   6.731  10.713  0.4631 -1.4981  0.4531
17603TIP3   OH274299   0.955   5.697  13.626  0.1839 -0.4471  0.0413
17603TIP3    H174300   0.883   5.708  13.564 -0.6574  2.8168  1.4732
17603TIP3    H274301   0.920   5.636  13.691 -0.7317 -0.0980 -0.1114
17604TIP3   OH274302   2.296   3.188  16.481  0.1379  0.0785  0.2373
17604TIP3    H174303   2.219   3.176  16.426  0.7561  1.3990 -0.9423
17604TIP3    H274304   2.314   3.100  16.515 -0.9253 -0.5493 -0.7691
17605TIP3   OH274305   1.548   4.100  15.108  0.0039 -0.4230 -0.6390
17605TIP3    H174306   1.478   4.075  15.169  1.3523 -1.7280  0.4199
17605TIP3    H274307   1.625   4.052  15.139  1.3753  0.9779 -1.8004
17606TIP3   OH274308   3.226   4.074   4.994  0.9607 -0.2274 -0.3565
17606TIP3    H174309   3.314   4.082   5.031 -0.1876  2.4886  2.0511
17606TIP3    H274310   3.189   4.162   5.003 -1.5050 -0.9822 -2.6414
17607TIP3   OH274311   1.019   0.938   2.310  0.0324 -0.1033 -0.3048
17607TIP3    H174312   0.930   0.913   2.335  0.3625  0.2359  1.2977
17607TIP3    H274313   1.012   1.031   2.287 -0.0661 -0.1287 -0.3785
17608TIP3   OH274314   4.505   5.730   2.512  0.1562  0.6574 -0.5989
17608TIP3    H174315   4.445   5.658   2.533 -0.2510  1.1526 -0.0426
17608TIP3    H274316   4.585   5.686   2.484 -0.2937 -0.0158 -0.8728
17609TIP3   OH274317   5.521   3.247   2.134  0.2962 -0.5682  0.7418
17609TIP3    H174318   5.578   3.176   2.104  0.7630 -0.3148  1.0195
17609TIP3    H274319   5.550   3.264   2.224  0.7631  0.5486  0.3877
17610TIP3   OH274320   2.619   6.370  16.439  0.0983 -0.1407  0.2717
17610TIP3    H174321   2.619   6.456  16.482  1.6835  0.5568 -1.0956
17610TIP3    H274322   2.583   6.386  16.352  1.3826 -0.6749 -0.3644
17611TIP3   OH274323   5.848   0.366  16.991  0.1862  0.2326  0.2194
17611TIP3    H174324   5.853   0.461  16.996 -0.5715  0.2243  1.2279
17611TIP3    H274325   5.901   0.334  17.064 -1.4974 -0.0717  1.3364
17612TIP3   OH274326   6.206   2.382  15.507  0.6060  0.2441  0.7606
17612TIP3    H174327   6.276   2.418  15.453  0.2034 -0.2739 -0.1236
17612TIP3    H274328   6.215   2.287  15.497 -0.6824  0.1887  0.0360
17613TIP3   OH274329   1.204   0.888   0.837  0.2339 -0.0865 -0.2249
17613TIP3    H174330   1.118   0.902   0.876  1.2453  0.7894  1.7202
17613TIP3    H274331   1.204   0.944   0.758 -1.2210 -0.6480 -0.6316
17614TIP3   OH274332   5.874   6.135   5.797  0.1117 -0.2529  0.2206
17614TIP3    H174333   5.927   6.065   5.836  0.5279  0.2731  0.6104
17614TIP3    H274334   5.783   6.107   5.810  0.2988 -1.2078 -0.5378
17615TIP3   OH274335   4.810   5.076   2.725 -0.1346  0.3028 -0.2884
17615TIP3    H174336   4.780   5.164   2.703  1.4380  0.5453 -1.5298
17615TIP3    H274337   4.735   5.020   2.706  0.2124  0.8520 -3.5356
17616TIP3   OH274338   1.550   4.851  11.206 -0.3684 -0.1188 -0.1517
17616TIP3    H174339   1.526   4.796  11.131 -2.7964 -0.1768  0.6308
17616TIP3    H274340   1.529   4.798  11.282  0.0303  0.7837  0.5941
17617TIP3   OH274341   4.072   5.274   5.164  0.2484 -0.2132  0.5337
17617TIP3    H174342   4.127   5.282   5.085  1.5577  0.0285  1.4455
17617TIP3    H274343   4.125   5.222   5.224 -0.9087 -0.7247  1.1256
17618TIP3   OH274344   4.662   6.228   0.876  0.6209 -0.5943 -0.6704
17618TIP3    H174345   4.586   6.237   0.818  0.3008 -1.0463 -0.3187
17618TIP3    H274346   4.717   6.163   0.834  1.0274  0.0517 -1.1513
17619TIP3   OH274347   1.092   4.018  14.366  0.1612 -0.1928 -0.6380
17619TIP3    H174348   1.187   4.008  14.364  0.2392  0.7086 -2.5782
17619TIP3    H274349   1.078   4.105  14.404  0.2124  0.6170 -2.4277
17620TIP3   OH274350   2.136   2.127   5.672 -0.6253 -0.3900 -0.8835
17620TIP3    H174351   2.193   2.203   5.660 -2.0521  0.7294 -0.7356
17620TIP3    H274352   2.186   2.070   5.731 -0.3033  1.2972  0.5516
17621TIP3   OH274353   6.432   0.127  13.277 -0.1140 -0.1358  0.4438
17621TIP3    H174354   6.420   0.062  13.346 -0.1202 -2.9447 -2.0384
17621TIP3    H274355   6.346   0.168  13.267 -0.2379 -0.0756  1.7351
17622TIP3   OH274356   0.008   6.690  13.048  0.7429 -0.3404  0.1099
17622TIP3    H174357  -0.063   6.712  13.109  0.2639 -2.7789  0.4835
17622TIP3    H274358  -0.026   6.714  12.962  0.4952  0.9217  0.5447
17623TIP3   OH274359   1.174   4.084  15.175  0.1167 -0.1685 -0.3028
17623TIP3    H174360   1.083   4.109  15.193  0.4716  0.0854  1.1686
17623TIP3    H274361   1.185   4.102  15.082 -1.7761 -1.5451 -0.8287
17624TIP3   OH274362   5.680   0.948  15.578 -0.6453  0.6663 -0.2144
17624TIP3    H174363   5.648   0.948  15.487  0.1376 -3.4166 -0.6013
17624TIP3    H274364   5.765   0.904  15.573  0.0957  1.7290  2.3164
17625TIP3   OH274365   0.757   4.370   0.241  0.3095 -0.0135  0.5724
17625TIP3    H174366   0.832   4.426   0.223 -0.8804  1.2763 -0.4601
17625TIP3    H274367   0.685   4.430   0.261 -1.5493 -1.0129 -2.7076
17626TIP3   OH274368   0.448   1.202  12.570  0.1646  0.2844  0.3807
17626TIP3    H174369   0.387   1.156  12.513  0.1019  0.3065  0.4295
17626TIP3    H274370   0.534   1.167  12.548  0.2383  0.9023 -0.3352
17627TIP3   OH274371   4.510   1.343  14.931 -0.3556  0.5659  0.6885
17627TIP3    H174372   4.590   1.291  14.925  0.1250  1.4411 -0.7721
17627TIP3    H274373   4.444   1.287  14.889 -0.0172  0.7719 -0.1335
17628TIP3   OH274374   5.584   6.575   1.923 -0.0638  0.3181  0.4111
17628TIP3    H174375   5.637   6.499   1.947 -1.7135 -0.4705  1.6230
17628TIP3    H274376   5.509   6.572   1.982 -0.5736  2.4276 -0.0890
17629TIP3   OH274377   4.690   2.372  15.926  0.0748 -0.0485  0.1233
17629TIP3    H174378   4.692   2.281  15.895  0.5874 -0.3556  1.0458
17629TIP3    H274379   4.725   2.423  15.852 -0.3134 -0.5877 -0.4371
17630TIP3   OH274380   1.411   1.220   3.981 -0.1977 -0.0128 -0.2877
17630TIP3    H174381   1.414   1.125   3.968 -0.4288 -0.0134 -0.3479
17630TIP3    H274382   1.447   1.256   3.900  1.3918 -0.0796  0.3904
17631TIP3   OH274383   3.513   2.517  15.362 -0.1555  0.0629 -0.1011
17631TIP3    H174384   3.483   2.576  15.431  1.3912 -0.9752  1.5018
17631TIP3    H274385   3.467   2.434  15.379  0.3528 -0.2454 -0.2210
17632TIP3   OH274386   1.109   5.308  15.228 -0.1396  0.4162  0.4277
17632TIP3    H174387   1.128   5.341  15.140  0.1214 -0.8157  0.0138
17632TIP3    H274388   1.193   5.272  15.258  0.4556  3.1366  2.2171
17633TIP3   OH274389   2.085   5.984  11.368 -0.1637 -0.2822 -0.4607
17633TIP3    H174390   2.140   5.973  11.290  2.3636  0.5347  1.1660
17633TIP3    H274391   2.120   5.922  11.432 -0.4758  0.9658  0.9444
17634TIP3   OH274392   5.367   2.596   5.792 -0.9478 -0.2930  0.2574
17634TIP3    H174393   5.416   2.578   5.712 -1.9376  0.3173 -0.4974
17634TIP3    H274394   5.295   2.534   5.791 -1.4959  0.3390  0.1945
17635TIP3   OH274395   2.298   2.569   3.513  0.2128  0.0380  0.0094
17635TIP3    H174396   2.275   2.656   3.546  2.9119  0.8067  0.0070
17635TIP3    H274397   2.328   2.521   3.591 -0.0837 -0.4764 -0.1926
17636TIP3   OH274398   0.236   1.781  12.032  0.3359 -0.0803  0.4164
17636TIP3    H174399   0.157   1.817  12.073  0.5742 -1.6321  2.3349
17636TIP3    H274400   0.304   1.794  12.098  1.6135  0.9412 -1.0913
17637TIP3   OH274401   2.141   1.737   3.548  0.3555  0.2577 -0.1655
17637TIP3    H174402   2.144   1.714   3.641  0.8752  1.7864  0.2039
17637TIP3    H274403   2.198   1.813   3.541  0.1131  0.2967 -1.7033
17638TIP3   OH274404   3.730   4.709  13.331  0.2217  0.2517 -0.2196
17638TIP3    H174405   3.697   4.797  13.315  0.4813  0.2791 -0.6214
17638TIP3    H274406   3.825   4.717  13.320  0.1249 -0.3560 -1.6024
17639TIP3   OH274407   5.507   4.816  16.696 -0.2767 -0.4734  0.2765
17639TIP3    H174408   5.486   4.751  16.764 -1.2627 -0.4825 -0.0253
17639TIP3    H274409   5.429   4.871  16.692  0.1850  0.1447 -0.1417
17640TIP3   OH274410   4.645   2.274   5.929 -0.1705 -0.5326  0.3122
17640TIP3    H174411   4.581   2.212   5.894  0.5046 -1.2043  0.2676
17640TIP3    H274412   4.720   2.266   5.870 -0.2037  0.5602  0.1184
17641TIP3   OH274413   2.506   0.752   0.729  0.0644  0.8794  0.4602
17641TIP3    H174414   2.495   0.755   0.634  0.6092  2.1221  0.4324
17641TIP3    H274415   2.438   0.809   0.763 -3.2734 -3.2563  1.1177
17642TIP3   OH274416   5.389   5.545   1.838 -0.4991  0.4602 -0.0219
17642TIP3    H174417   5.380   5.590   1.754  1.3010 -0.1916 -0.5838
17642TIP3    H274418   5.341   5.463   1.826 -0.6792  0.5951 -0.2439
17643TIP3   OH274419   1.438   2.693  16.860  0.5895 -0.1093 -0.0622
17643TIP3    H174420   1.428   2.787  16.845  3.4288  0.4827  1.3695
17643TIP3    H274421   1.509   2.667  16.802  0.0162 -1.3332 -0.2322
17644TIP3   OH274422   2.342   2.522   0.392  0.2833  0.6189  0.9189
17644TIP3    H174423   2.252   2.536   0.422 -0.1164 -0.8681  0.4783
17644TIP3    H274424   2.374   2.609   0.369 -1.2359  1.0967  0.5543
17645TIP3   OH274425   2.185   5.944   3.123  0.7350 -0.2129  0.3839
17645TIP3    H174426   2.104   5.929   3.171  0.6373 -0.8148  0.0424
17645TIP3    H274427   2.225   5.857   3.116  1.3976  0.0737  0.5289
17646TIP3   OH274428   0.864   6.576  15.160 -0.5970 -0.2389 -0.3165
17646TIP3    H174429   0.883   6.669  15.173 -0.0902 -0.5944  1.5591
17646TIP3    H274430   0.779   6.563  15.202 -1.4987 -0.2614 -2.1177
17647TIP3   OH274431   5.254   5.652   3.812 -0.2891  0.6857 -0.2087
17647TIP3    H174432   5.189   5.675   3.746 -0.0583 -0.6158 -0.9120
17647TIP3    H274433   5.210   5.591   3.870 -0.0898  0.8007  0.0646
17648TIP3   OH274434   5.860   0.792   4.684 -0.1635  0.0960  0.1162
17648TIP3    H174435   5.941   0.800   4.734 -0.5381  0.3725  0.6865
17648TIP3    H274436   5.791   0.807   4.749 -0.6165  5.0394 -1.3240
17649TIP3   OH274437   6.405   0.099   0.699  0.3770  0.0817 -0.0637
17649TIP3    H174438   6.337   0.090   0.765  1.1114  0.1814  0.7055
17649TIP3    H274439   6.475   0.147   0.742  0.5340  0.8672 -1.1533
17650TIP3   OH274440   3.628   0.048  12.930 -0.3638 -0.2128  0.4039
17650TIP3    H174441   3.616  -0.043  12.959 -0.5774 -0.6263 -0.9342
17650TIP3    H274442   3.540   0.082  12.918 -0.3011 -0.8234 -2.0551
17651TIP3   OH274443   0.775   0.584  14.337 -0.1455 -0.1317 -0.5207
17651TIP3    H174444   0.824   0.600  14.256 -0.2195 -0.7666 -0.6940
17651TIP3    H274445   0.701   0.645  14.333  0.2579  0.3560 -0.5804
17652TIP3   OH274446   6.608   2.416  14.573 -0.4584  0.8119 -0.1958
17652TIP3    H174447   6.582   2.469  14.497  0.1684 -1.3180 -1.9640
17652TIP3    H274448   6.589   2.326  14.547  0.4603 -0.0192  1.9141
17653TIP3   OH274449   0.038   2.728  13.892 -0.6202  0.3748 -0.5336
17653TIP3    H174450   0.066   2.790  13.960 -2.2755  1.7115 -1.0467
17653TIP3    H274451   0.061   2.642  13.928  1.0645  1.2144  0.4942
17654TIP3   OH274452   3.918   2.448  16.526  0.4177  0.0091  0.1006
17654TIP3    H174453   4.011   2.474  16.530  0.7370 -1.0998  0.1195
17654TIP3    H274454   3.884   2.495  16.450  0.6237  1.5517  0.9405
17655TIP3   OH274455   6.611   0.428   6.320  0.4247 -0.4172 -0.4916
17655TIP3    H174456   6.697   0.401   6.351 -0.9170 -1.3667  2.6373
17655TIP3    H274457   6.578   0.353   6.271  0.1382 -1.3180  1.0237
17656TIP3   OH274458   1.626   5.297   5.968 -0.4077  0.0807 -0.2547
17656TIP3    H174459   1.613   5.235   6.040 -2.9205 -0.4650 -1.1354
17656TIP3    H274460   1.562   5.366   5.984  0.0023  0.6871 -1.1903
17657TIP3   OH274461   2.016   4.642  16.281 -0.2992 -0.3857  0.1366
17657TIP3    H174462   2.050   4.552  16.287 -0.1484 -0.3024  0.5417
17657TIP3    H274463   1.995   4.666  16.371  0.3106  0.2351  0.1161
17658TIP3   OH274464   4.379   4.038   5.984  0.1268 -0.0297  0.6081
17658TIP3    H174465   4.446   4.045   5.916 -0.9420 -1.4684 -0.6210
17658TIP3    H274466   4.297   4.056   5.940 -0.7975 -2.8267  1.0558
17659TIP3   OH274467   0.590   3.812   5.710 -0.4198  0.7199 -0.0729
17659TIP3    H174468   0.685   3.806   5.713 -0.4353  0.5298  0.0554
17659TIP3    H274469   0.564   3.828   5.801 -0.6827 -1.9183  0.3738
17660TIP3   OH274470   3.942   4.169  13.707 -0.0557  0.3688  0.3975
17660TIP3    H174471   3.884   4.098  13.678 -0.5757  0.4643  1.1979
17660TIP3    H274472   3.925   4.240  13.646  1.8270 -0.8048 -1.5811
17661TIP3   OH274473   5.306   0.338   5.853 -0.1566  0.5635 -0.2806
17661TIP3    H174474   5.314   0.327   5.947 -2.3959  1.3126  0.0163
17661TIP3    H274475   5.286   0.250   5.820 -3.8173  1.0593  0.4758
17662TIP3   OH274476   1.286   0.397   2.568 -0.8528 -0.3411 -0.2978
17662TIP3    H174477   1.300   0.310   2.530 -0.2225 -0.1915 -0.4249
17662TIP3    H274478   1.209   0.387   2.624 -1.9907 -0.4845 -1.8522
17663TIP3   OH274479   4.524   3.509  11.933 -0.1032 -0.0311  0.5273
17663TIP3    H174480   4.462   3.569  11.891  1.6452 -0.9671 -3.6375
17663TIP3    H274481   4.469   3.443  11.974 -1.9478  0.9404 -0.3028
17664TIP3   OH274482   6.598   4.947  11.790 -0.4320  0.7317  0.5592
17664TIP3    H174483   6.692   4.961  11.781 -0.7273  2.0801 -0.5870
17664TIP3    H274484   6.585   4.854  11.773  0.2105  1.3211 -3.6341
17665TIP3   OH274485   1.774   3.818   1.736 -0.0766 -0.1104  0.2330
17665TIP3    H174486   1.777   3.863   1.821 -0.9433 -0.0231  0.2216
17665TIP3    H274487   1.683   3.789   1.727  0.2504 -1.0384 -0.1959
17666TIP3   OH274488   1.202   1.129   0.659 -0.2209 -0.0020  0.4306
17666TIP3    H174489   1.123   1.176   0.683 -0.4048 -1.0196  1.9368
17666TIP3    H274490   1.246   1.184   0.595 -1.3693  1.3002  0.7615
17667TIP3   OH274491   1.818   4.162  15.354  0.1642  0.1382  0.1223
17667TIP3    H174492   1.780   4.133  15.271  0.9661  1.5933 -0.7630
17667TIP3    H274493   1.912   4.144  15.345  0.2018 -0.0788  0.8897
17668TIP3   OH274494   4.677   3.870  16.889  0.4800  0.4983 -0.0150
17668TIP3    H174495   4.653   3.961  16.903  0.3934  0.3281  0.9826
17668TIP3    H274496   4.772   3.868  16.899  0.6217  0.6933 -1.2682
17669TIP3   OH274497   5.881   0.673  11.129  0.1643 -0.1733  0.1625
17669TIP3    H174498   5.921   0.733  11.192  1.3516 -1.0352  0.2352
17669TIP3    H274499   5.954   0.623  11.094 -0.6676 -0.6787 -0.8638
17670TIP3   OH274500   6.188   6.343  15.918  0.0640  0.3569  0.3787
17670TIP3    H174501   6.098   6.366  15.896  0.8854  1.6589 -1.8337
17670TIP3    H274502   6.180   6.277  15.987 -2.6092 -0.5715 -0.7336
17671TIP3   OH274503   5.439   0.099  12.409 -0.2590  0.6024 -0.2917
17671TIP3    H174504   5.419   0.045  12.486 -1.5737  1.6389  0.1127
17671TIP3    H274505   5.508   0.158  12.440  1.5100 -1.1177 -0.8694
17672TIP3   OH274506   1.701   0.147  12.461 -0.3320  0.6156  0.2834
17672TIP3    H174507   1.783   0.098  12.459  0.5561  2.0556  0.3859
17672TIP3    H274508   1.725   0.235  12.432 -1.5111  1.4964  1.8654
17673TIP3   OH274509   1.752   0.428  11.335 -0.7605 -0.1994 -0.0123
17673TIP3    H174510   1.844   0.452  11.329 -0.9670  0.7255  0.2986
17673TIP3    H274511   1.705   0.511  11.319 -1.5178 -0.4992  0.6048
17674TIP3   OH274512   1.760   1.801   4.491  0.6808 -0.1839  0.0032
17674TIP3    H174513   1.852   1.789   4.468  1.3663  3.2042  0.5992
17674TIP3    H274514   1.744   1.741   4.564  2.8282  0.1632  0.7892
17675TIP3   OH274515   6.513   5.048   4.263  0.0033 -0.4886 -0.2960
17675TIP3    H174516   6.507   5.135   4.301  0.3003 -1.0409  1.0677
17675TIP3    H274517   6.607   5.029   4.260  0.1578  0.5642 -3.7555
17676TIP3   OH274518   5.810   0.308   4.453  0.2037  0.3294  0.6016
17676TIP3    H174519   5.726   0.268   4.479 -0.1130  0.6553  0.0963
17676TIP3    H274520   5.819   0.384   4.511  0.6280 -0.2554  1.3153
17677TIP3   OH274521   6.131   4.277   4.895 -0.6466  0.4906  0.2672
17677TIP3    H174522   6.165   4.293   4.983  2.5468  1.2880 -1.0133
17677TIP3    H274523   6.173   4.345   4.841 -0.6179 -1.4601 -2.2599
17678TIP3   OH274524   1.387   4.383  10.839  0.0350  0.3410  0.0281
17678TIP3    H174525   1.416   4.471  10.817 -0.0171 -0.2381 -2.4960
17678TIP3    H274526   1.292   4.385  10.830  0.0414  0.0028 -0.1388
17679TIP3   OH274527   4.521   4.427  16.948  0.2027  0.1559 -0.7785
17679TIP3    H174528   4.488   4.430  16.858  1.9561 -0.1187 -1.4498
17679TIP3    H274529   4.491   4.509  16.987  1.7075  1.5625 -2.4479
17680TIP3   OH274530   0.152   2.750   1.120 -0.6467 -0.0250  0.0552
17680TIP3    H174531   0.132   2.814   1.189  0.5348  0.5160 -0.0895
17680TIP3    H274532   0.211   2.688   1.162  0.8068  0.8135 -0.6989
17681TIP3   OH274533   0.105   4.085  17.077 -0.2849 -0.1139 -0.8046
17681TIP3    H174534   0.164   4.099  17.150 -0.3450  2.9441 -1.2922
17681TIP3    H274535   0.160   4.094  16.999 -0.9436  0.3733 -1.2192
17682TIP3   OH274536   2.034   0.167  15.662  0.3208 -0.4357 -0.1597
17682TIP3    H174537   2.054   0.137  15.751  2.1834  1.2511  0.0218
17682TIP3    H274538   2.054   0.261  15.663 -0.7510 -0.1548 -2.0590
17683TIP3   OH274539   2.223   6.098  16.593  0.4579  0.0575  0.0307
17683TIP3    H174540   2.207   6.046  16.672  0.5651  1.6770  1.1401
17683TIP3    H274541   2.277   6.042  16.538 -1.8904 -2.1559 -0.0917
17684TIP3   OH274542   3.993   1.880  14.162  0.4553 -0.2199  0.6304
17684TIP3    H174543   4.016   1.959  14.113  0.3372 -0.8151 -0.4081
17684TIP3    H274544   3.947   1.912  14.239  0.2019  0.7202  0.0942
17685TIP3   OH274545   5.012   5.169  12.058 -0.5004  0.1857 -0.4824
17685TIP3    H174546   4.960   5.182  11.978 -1.4439 -1.4794 -0.1688
17685TIP3    H274547   4.982   5.237  12.118  0.6891  1.8754 -1.7528
17686TIP3   OH274548   4.530   6.501   2.214  0.2113 -0.0928  0.2472
17686TIP3    H174549   4.482   6.418   2.215 -0.3924  0.1931 -1.9761
17686TIP3    H274550   4.469   6.564   2.176  1.6629  0.7081 -0.8367
17687TIP3   OH274551   4.737   5.176  13.807 -0.7206  0.1165 -0.0307
17687TIP3    H174552   4.821   5.219  13.823 -0.9990  0.7168 -0.1699
17687TIP3    H274553   4.688   5.237  13.752 -0.5533 -1.0276 -1.4986
17688TIP3   OH274554   3.630   0.181   3.612  0.5144 -0.1709  0.3312
17688TIP3    H174555   3.535   0.176   3.614  0.4504  0.1271 -1.3332
17688TIP3    H274556   3.658   0.134   3.690 -0.9844 -0.6030  0.6228
17689TIP3   OH274557   3.831   3.745   0.328  0.3851  0.1187  0.1948
17689TIP3    H174558   3.749   3.779   0.364  0.7614 -0.3340  1.5174
17689TIP3    H274559   3.854   3.673   0.386  0.2777 -1.5716 -1.7999
17690TIP3   OH274560   0.873   6.232   1.469  0.0728 -0.0823  0.2778
17690TIP3    H174561   0.963   6.249   1.497 -0.3257  0.1182  1.4445
17690TIP3    H274562   0.881   6.162   1.405  0.9806 -0.5980  0.9438
17691TIP3   OH274563   0.203   4.279  15.657 -0.0572 -0.1633  0.0898
17691TIP3    H174564   0.114   4.314  15.662  0.2988  0.6913  0.4899
17691TIP3    H274565   0.237   4.313  15.574  0.6274  1.2521  0.9396
17692TIP3   OH274566   0.072   6.520  13.412  0.3126 -0.2804  0.7301
17692TIP3    H174567   0.099   6.602  13.453 -0.2556 -0.1703  0.8903
17692TIP3    H274568   0.153   6.470  13.403  0.8414  0.7957 -0.5151
17693TIP3   OH274569   0.638   5.505   5.727  0.1764 -0.3063 -0.2312
17693TIP3    H174570   0.556   5.468   5.693  0.3244 -1.1324  0.3009
17693TIP3    H274571   0.697   5.430   5.735  0.3834 -0.0057  1.1348
17694TIP3   OH274572   3.394   3.270   1.890  0.4711 -0.2798 -0.3520
17694TIP3    H174573   3.335   3.326   1.941  0.4324  0.0292 -0.7250
17694TIP3    H274574   3.388   3.184   1.931 -2.7501 -1.1136 -2.3053
17695TIP3   OH274575   5.305   5.126   3.975  0.0614 -0.3807  0.5101
17695TIP3    H174576   5.274   5.215   3.995  0.7410 -0.3770  1.5495
17695TIP3    H274577   5.235   5.069   4.007  1.0410 -0.3662  2.7828
17696TIP3   OH274578   0.896   1.668  12.656 -0.8632  0.2033  0.3225
17696TIP3    H174579   0.941   1.702  12.579 -2.4985 -0.6751 -1.0250
17696TIP3    H274580   0.966   1.661  12.722  0.1787  2.8156 -0.4110
17697TIP3   OH274581   6.329   2.800   0.479  0.6614 -0.5240 -0.4207
17697TIP3    H174582   6.287   2.878   0.443 -2.3572 -0.8070  2.3307
17697TIP3    H274583   6.305   2.730   0.419 -2.5272 -0.5842  0.8261
17698TIP3   OH274584   4.959   1.338  17.291 -0.0305  0.0246  0.7355
17698TIP3    H174585   4.905   1.347  17.369  1.3188 -0.0960  1.7040
17698TIP3    H274586   4.919   1.267  17.241 -2.9825  2.4269 -0.4459
17699TIP3   OH274587   0.401   5.130  15.439  0.0814  0.3230 -0.0608
17699TIP3    H174588   0.328   5.183  15.410  0.5339  0.6864 -0.5414
17699TIP3    H274589   0.434   5.089  15.359 -0.4918 -0.9754  0.3514
17700TIP3   OH274590   0.537   2.210  13.144  0.0127 -0.5687  0.0229
17700TIP3    H174591   0.516   2.297  13.177 -1.0736 -1.8222  2.7344
17700TIP3    H274592   0.469   2.192  13.078  0.5658  0.8242 -0.9390
17701TIP3   OH274593   4.783   6.733   4.719  0.3129  0.1948  0.6998
17701TIP3    H174594   4.850   6.775   4.664 -0.6109 -0.9466 -1.3491
17701TIP3    H274595   4.824   6.651   4.748  0.4030  0.2708  0.7864
17702TIP3   OH274596   2.455   3.674   5.067  0.1650 -0.2017  0.1452
17702TIP3    H174597   2.406   3.751   5.041 -1.6294 -1.6319 -0.8651
17702TIP3    H274598   2.535   3.676   5.014 -0.8153 -0.0879 -1.3564
17703TIP3   OH274599   2.115   3.350   1.893  0.1533 -0.3006 -0.2805
17703TIP3    H174600   2.128   3.256   1.906 -1.0495 -0.6085 -1.2021
17703TIP3    H274601   2.027   3.357   1.855  0.6443  1.1133 -1.2048
17704TIP3   OH274602   4.218   5.602  15.851 -0.2988  0.0642 -0.2874
17704TIP3    H174603   4.227   5.532  15.915 -0.4138 -0.4662 -0.8446
17704TIP3    H274604   4.223   5.682  15.902  0.5756 -0.3354  0.2759
17705TIP3   OH274605   1.707   0.757  12.248 -0.1470  0.0204  0.2113
17705TIP3    H174606   1.622   0.712  12.244 -0.4781  0.7090 -0.8145
17705TIP3    H274607   1.771   0.690  12.222 -0.6595  0.1946 -1.5402
17706TIP3   OH274608   2.593   1.467  16.088 -0.6128  0.4262  0.6473
17706TIP3    H174609   2.499   1.473  16.109 -0.0992  0.8436  2.9670
17706TIP3    H274610   2.623   1.558  16.086 -0.0073  0.2395  1.1052
17707TIP3   OH274611   3.257   3.741  16.817 -0.3000  0.7636  0.6078
17707TIP3    H174612   3.186   3.705  16.762  1.5732 -1.4371 -0.4580
17707TIP3    H274613   3.320   3.776  16.754 -0.6202  3.1402  1.5681
17708TIP3   OH274614   2.376   4.468   6.031 -0.2590  0.7696 -0.1895
17708TIP3    H174615   2.306   4.441   6.090  1.8470 -4.4284  0.2556
17708TIP3    H274616   2.445   4.500   6.089 -0.8645  2.4349 -0.3739
17709TIP3   OH274617   4.294   3.196   2.176 -0.4485 -0.3117 -0.8068
17709TIP3    H174618   4.291   3.214   2.083  2.5647  2.0369 -0.5086
17709TIP3    H274619   4.225   3.251   2.213  1.2221  2.1129 -1.2017
17710TIP3   OH274620   6.473   6.036   3.630 -0.5463 -0.0517 -0.3604
17710TIP3    H174621   6.442   5.979   3.700  0.3778 -0.3836 -0.2256
17710TIP3    H274622   6.511   5.977   3.565  0.9783  0.4502  0.0700
17711TIP3   OH274623   2.124   6.525  13.995 -0.0768 -0.1168 -0.0236
17711TIP3    H174624   2.170   6.608  13.986  0.0919 -0.2467 -0.3495
17711TIP3    H274625   2.141   6.499  14.086 -0.5746  0.4663  0.2387
17712TIP3   OH274626   0.664   4.817   1.123 -0.6511  0.5788 -0.6616
17712TIP3    H174627   0.612   4.897   1.133  0.8983  1.2463  2.6128
17712TIP3    H274628   0.752   4.848   1.102 -0.4212 -0.3574 -1.1124
17713TIP3   OH274629   5.487   4.781   4.987 -0.6560  0.0227  0.1541
17713TIP3    H174630   5.499   4.838   5.063 -1.2079 -1.0400  1.0467
17713TIP3    H274631   5.526   4.698   5.013  2.1959  0.6230 -1.9940
17714TIP3   OH274632   3.849   0.596   1.399 -0.3516 -0.3018 -0.6687
17714TIP3    H174633   3.864   0.507   1.366  0.5279 -0.3177 -0.2310
17714TIP3    H274634   3.822   0.645   1.321 -3.2135 -1.4656 -0.5056
17715TIP3   OH274635   0.671   3.873   0.752  0.6883  0.0445  0.1056
17715TIP3    H174636   0.577   3.884   0.768  0.8835  0.3690  1.0674
17715TIP3    H274637   0.713   3.899   0.835  1.6268 -0.0413 -0.3328
17716TIP3   OH274638   2.347   5.555  12.577  0.1697  0.0593  0.2193
17716TIP3    H174639   2.318   5.552  12.669  0.3943  1.1676  0.3303
17716TIP3    H274640   2.418   5.490  12.573  0.9755  0.8559  1.1302
17717TIP3   OH274641   0.938   0.728  15.702 -0.2956  0.2596  0.1191
17717TIP3    H174642   0.990   0.751  15.626  0.0208  1.1360  0.5944
17717TIP3    H274643   0.988   0.761  15.777 -0.9043 -0.0282  0.6639
17718TIP3   OH274644   2.503   1.459   2.530  0.1801 -0.3288  0.0042
17718TIP3    H174645   2.511   1.552   2.507 -1.3003 -0.2472 -0.1911
17718TIP3    H274646   2.457   1.421   2.456  1.5323 -1.3991 -0.3087
17719TIP3   OH274647   4.968   3.142  12.090  0.1166  0.8840  0.3065
17719TIP3    H174648   4.983   3.190  12.008  0.9005  1.3237  0.7031
17719TIP3    H274649   4.907   3.196  12.139 -2.1032 -0.4371 -0.8998
17720TIP3   OH274650   5.847   5.237  13.438 -0.0310 -0.2201 -0.6765
17720TIP3    H174651   5.798   5.224  13.519  0.5101 -1.5786 -0.5446
17720TIP3    H274652   5.882   5.326  13.444  1.2442 -0.8183  1.2747
17721TIP3   OH274653   3.470   1.615   4.426  0.4141  0.2428 -0.3410
17721TIP3    H174654   3.531   1.673   4.381  0.3015  0.8300  0.2646
17721TIP3    H274655   3.484   1.632   4.519  0.8787 -1.2043 -0.1312
17722TIP3   OH274656   2.566   6.650   5.338 -0.2363  0.1960  0.1393
17722TIP3    H174657   2.521   6.672   5.256  1.3757 -1.5042 -1.2527
17722TIP3    H274658   2.524   6.570   5.368 -1.7424  1.5509  1.7455
17723TIP3   OH274659   3.322   4.620   6.462 -0.2568 -0.2425 -0.1368
17723TIP3    H174660   3.382   4.546   6.471  1.5597  1.1623 -0.1518
17723TIP3    H274661   3.379   4.697   6.468 -1.9465  1.1344 -1.1565
17724TIP3   OH274662   0.246   1.957  16.272  0.0514 -0.7762  0.4197
17724TIP3    H174663   0.158   1.936  16.241  0.2117 -1.0115  0.1189
17724TIP3    H274664   0.296   1.877  16.260  0.1749 -0.8011  1.0911
17725TIP3   OH274665   6.182   2.282  13.078 -0.0149 -0.1593 -0.1890
17725TIP3    H174666   6.224   2.296  12.993 -0.1701  0.9591 -0.0910
17725TIP3    H274667   6.184   2.368  13.121  0.3355 -0.7743  1.0654
17726TIP3   OH274668   3.852   1.287   2.390 -0.8236  0.7475 -0.3731
17726TIP3    H174669   3.815   1.220   2.448  1.1564 -0.6005 -0.6017
17726TIP3    H274670   3.859   1.243   2.305  1.6575  0.8076 -0.2274
17727TIP3   OH274671   6.456   4.190  13.982  0.1803 -0.4417  0.5870
17727TIP3    H174672   6.373   4.142  13.980 -0.9377  1.4144 -3.6449
17727TIP3    H274673   6.433   4.276  14.018  0.1409  0.1673 -0.8370
17728TIP3   OH274674   1.747   4.669  10.985  0.3728 -0.7271 -0.6105
17728TIP3    H174675   1.652   4.672  10.980  0.3141 -0.5406  0.5648
17728TIP3    H274676   1.776   4.674  10.894 -0.7354 -0.7257 -0.9651
17729TIP3   OH274677   5.793   4.891  17.157  0.6230 -0.7438 -0.2395
17729TIP3    H174678   5.868   4.929  17.111  0.0130 -1.8686 -2.2547
17729TIP3    H274679   5.808   4.797  17.153  0.0835 -0.8943  1.0950
17730TIP3   OH274680   2.616   5.156   3.956  0.3812 -0.1554 -0.4350
17730TIP3    H174681   2.615   5.226   3.890  0.7642  0.1443 -0.1161
17730TIP3    H274682   2.577   5.196   4.034 -0.7238 -0.7191 -0.6929
17731TIP3   OH274683   3.857   5.214  17.166 -0.1106 -0.3335 -0.0346
17731TIP3    H174684   3.931   5.159  17.190 -0.5975 -0.3873  1.3772
17731TIP3    H274685   3.791   5.152  17.135 -0.5120 -0.5268  1.1786
17732TIP3   OH274686   1.525   3.746  16.735 -0.9203  0.2859  0.3814
17732TIP3    H174687   1.497   3.818  16.792  0.1901  0.7842  0.3249
17732TIP3    H274688   1.575   3.688  16.792  2.1241  1.9186 -0.4521
17733TIP3   OH274689   2.153   1.711   0.425  0.4776 -0.7067  0.1681
17733TIP3    H174690   2.201   1.792   0.444  0.0186 -0.2748 -0.4905
17733TIP3    H274691   2.179   1.651   0.495  0.7198  0.0545  0.7380
17734TIP3   OH274692   4.070   0.129   3.135 -0.4391 -0.4218 -0.0397
17734TIP3    H174693   4.127   0.201   3.108  0.4340 -1.5199 -1.1481
17734TIP3    H274694   4.130   0.057   3.152 -1.1313 -0.3575  2.9227
17735TIP3   OH274695   5.251   5.268  16.268 -0.1611 -0.0987 -0.4904
17735TIP3    H174696   5.339   5.233  16.258 -0.3106 -0.8085  0.6129
17735TIP3    H274697   5.215   5.270  16.179  0.7384 -0.3779 -0.8616
17736TIP3   OH274698   2.803   1.079   3.529  0.3408 -0.2036  0.2756
17736TIP3    H174699   2.858   1.066   3.452 -0.0987  0.0900 -0.0893
17736TIP3    H274700   2.794   0.992   3.567 -0.1876 -0.4924 -0.5078
17737TIP3   OH274701   5.946   0.342  12.415 -0.4853 -0.3160 -0.0812
17737TIP3    H174702   5.942   0.250  12.441 -1.3236 -0.4692 -0.7209
17737TIP3    H274703   5.898   0.388  12.484 -3.1762 -0.7834 -1.5311
17738TIP3   OH274704   1.296   0.320  15.860  0.4315 -0.7110  0.0509
17738TIP3    H174705   1.331   0.373  15.789 -0.6212 -0.3088 -0.1796
17738TIP3    H274706   1.215   0.364  15.886 -1.5204 -3.2199 -1.4720
17739TIP3   OH274707   2.205   2.867  12.628  0.2388 -0.6796 -0.0374
17739TIP3    H174708   2.234   2.802  12.692  0.3866  0.1339  0.7271
17739TIP3    H274709   2.193   2.817  12.547 -1.1335 -1.9495  0.9148
17740TIP3   OH274710   0.228   5.901  14.227 -0.3034 -0.4110  0.0832
17740TIP3    H174711   0.214   5.955  14.305  1.4814  2.5370 -1.5213
17740TIP3    H274712   0.306   5.849  14.248  0.3579  0.6046  0.1861
17741TIP3   OH274713   3.729   4.488  10.850 -0.1221 -0.3385  0.2771
17741TIP3    H174714   3.779   4.424  10.799 -0.3280  1.1042 -1.7707
17741TIP3    H274715   3.699   4.552  10.786 -1.1545  1.0378  2.0922
17742TIP3   OH274716   5.568   3.501  12.605 -0.4570  0.2427 -0.1273
17742TIP3    H174717   5.545   3.574  12.547 -1.6097 -1.1885 -1.5141
17742TIP3    H274718   5.502   3.505  12.674  1.8252  2.8845  1.9855
17743TIP3   OH274719   0.803   2.116  14.238 -0.0041 -0.0977  0.2513
17743TIP3    H174720   0.815   2.126  14.332 -0.1273 -0.7846  0.3393
17743TIP3    H274721   0.711   2.096  14.226 -0.2460  1.1789 -0.1182
17744TIP3   OH274722   6.204   1.670   2.760 -0.8656  0.3125 -0.1714
17744TIP3    H174723   6.258   1.644   2.835 -1.9841 -1.6015  0.0081
17744TIP3    H274724   6.261   1.726   2.707  0.5173  0.2288  1.2008
17745TIP3   OH274725   1.608   0.811  11.478 -0.0498  0.2387  0.3857
17745TIP3    H174726   1.575   0.757  11.406  0.8058 -0.4479  0.5012
17745TIP3    H274727   1.699   0.785  11.487 -0.0149  0.7017  1.3898
17746TIP3   OH274728   1.647   4.898   1.794  0.2724  0.1078 -0.5743
17746TIP3    H174729   1.683   4.848   1.722  0.6370 -1.7893  0.8953
17746TIP3    H274730   1.723   4.930   1.843  0.0145 -0.1835  0.0269
17747TIP3   OH274731   1.778   0.332   4.216  0.2031  0.1104 -0.2674
17747TIP3    H174732   1.810   0.395   4.281 -2.2676 -3.0022  4.2043
17747TIP3    H274733   1.693   0.366   4.189  0.3989  0.4125 -0.5221
17748TIP3   OH274734   0.419   5.258   0.900 -0.2425  0.1360  0.1221
17748TIP3    H174735   0.513   5.270   0.886 -0.5074 -0.6152 -2.6749
17748TIP3    H274736   0.382   5.257   0.812 -2.8943  0.4679  1.1929
17749TIP3   OH274737   3.487   3.571  15.996 -0.0547 -0.1938  0.1318
17749TIP3    H174738   3.555   3.516  16.034  0.2806 -0.3867 -0.7499
17749TIP3    H274739   3.522   3.600  15.912 -1.1409 -0.4893 -0.4421
17750TIP3   OH274740   6.770   1.856   3.835 -0.1554  0.5826  0.2200
17750TIP3    H174741   6.716   1.894   3.766 -0.8674 -2.6334 -1.0742
17750TIP3    H274742   6.708   1.828   3.902  0.0266 -1.4887 -0.4530
17751TIP3   OH274743   1.352   1.744   0.588  0.0619 -0.7530  0.0584
17751TIP3    H174744   1.359   1.839   0.595 -0.5262 -0.6332 -0.8454
17751TIP3    H274745   1.419   1.719   0.524  0.4119 -0.9825  0.5096
17752TIP3   OH274746   0.471   4.066  11.613 -0.7419  0.1369 -0.0106
17752TIP3    H174747   0.443   4.034  11.699 -0.3641 -0.4284 -0.1001
17752TIP3    H274748   0.558   4.029  11.600 -1.4742 -1.1509 -1.3610
17753TIP3   OH274749   3.695   5.246  12.454 -0.1432  0.0538  0.6192
17753TIP3    H174750   3.697   5.321  12.396 -1.2232  0.3172  0.9121
17753TIP3    H274751   3.721   5.172  12.399  0.6230  0.5925  0.2611
17754TIP3   OH274752   2.916   2.470   5.764 -0.2272 -0.6088 -0.3215
17754TIP3    H174753   2.901   2.380   5.794  1.8902 -1.4312 -1.5555
17754TIP3    H274754   2.975   2.507   5.830 -1.9837  0.2837  0.7880
17755TIP3   OH274755   3.797   0.368   3.768  0.3978  0.3725  0.1312
17755TIP3    H174756   3.721   0.383   3.823 -1.1257 -0.6428 -1.6565
17755TIP3    H274757   3.770   0.394   3.680  1.9430 -0.4286 -0.6104
17756TIP3   OH274758   1.889   3.126  14.016  0.5682  0.3236 -0.3643
17756TIP3    H174759   1.950   3.199  14.004 -0.5569  1.5015  0.9115
17756TIP3    H274760   1.804   3.162  13.990  0.0169 -0.5618  0.1994
17757TIP3   OH274761   4.277   5.379  14.257  0.4271 -0.2250 -0.3218
17757TIP3    H174762   4.212   5.420  14.199  0.0081 -1.1745 -0.5375
17757TIP3    H274763   4.247   5.401  14.345 -0.1596 -0.6022 -0.4230
17758TIP3   OH274764   4.707   4.119   2.581 -0.1420  0.0603  0.4011
17758TIP3    H174765   4.661   4.051   2.630  0.2096  0.9206  1.9723
17758TIP3    H274766   4.669   4.201   2.611  0.3466  0.6340 -0.4971
17759TIP3   OH274767   0.721   0.583  11.348 -0.3302 -0.5870 -0.3298
17759TIP3    H174768   0.727   0.619  11.437 -2.4236 -0.1414 -0.3318
17759TIP3    H274769   0.764   0.498  11.353  0.3182 -0.2004  0.9068
17760TIP3   OH274770   6.397   3.925   0.305  0.1781 -0.0961  0.2779
17760TIP3    H174771   6.475   3.960   0.262 -1.0667  3.5644  0.7633
17760TIP3    H274772   6.428   3.894   0.391  1.1740  0.9334  0.2996
17761TIP3   OH274773   5.231   1.355  13.975 -0.5416  0.0404  0.2202
17761TIP3    H174774   5.192   1.329  14.058 -0.4826 -0.1600  0.1846
17761TIP3    H274775   5.157   1.382  13.921 -0.7434 -1.2637 -0.1880
17762TIP3   OH274776   3.591   4.043   3.248 -0.1431 -0.1296  0.3607
17762TIP3    H174777   3.558   3.958   3.278  0.6360 -0.0594  1.4465
17762TIP3    H274778   3.541   4.107   3.298 -1.1422  0.0749 -0.8830
17763TIP3   OH274779   3.476   4.324  16.667 -0.3698 -0.2763  0.1202
17763TIP3    H174780   3.504   4.303  16.579  0.2078  0.8392  0.0339
17763TIP3    H274781   3.522   4.262  16.723  1.7062  1.0426 -0.0836
17764TIP3   OH274782   5.165   2.392  15.143 -0.3826 -0.1785  0.1882
17764TIP3    H174783   5.085   2.444  15.134  1.9094  3.0837 -2.4391
17764TIP3    H274784   5.163   2.332  15.068  0.3565  0.9264 -0.7149
17765TIP3   OH274785   3.745   4.816  11.532  0.4113 -0.2737 -0.1130
17765TIP3    H174786   3.754   4.911  11.525  2.5621 -0.3652  1.1038
17765TIP3    H274787   3.823   4.781  11.489  0.8254 -1.4290  1.5477
17766TIP3   OH274788   3.254   2.231  12.797 -0.3159 -0.0604 -0.5516
17766TIP3    H174789   3.232   2.240  12.704 -0.8127 -0.8936 -0.5267
17766TIP3    H274790   3.172   2.250  12.843 -1.3050 -4.0015 -0.4929
17767TIP3   OH274791   1.127   5.618  16.264  0.3162 -0.3403 -0.0621
17767TIP3    H174792   1.121   5.546  16.326 -0.8454  0.3732  0.6560
17767TIP3    H274793   1.085   5.692  16.308 -0.5813  0.1520 -1.7132
17768TIP3   OH274794   6.439   1.405  11.107 -0.1314 -0.0127  0.6041
17768TIP3    H174795   6.380   1.363  11.044 -0.4531  1.1647  0.1098
17768TIP3    H274796   6.404   1.381  11.192 -0.0706 -1.0876  0.3301
17769TIP3   OH274797   0.621   3.130  15.758 -0.1555  0.2252 -0.6365
17769TIP3    H174798   0.584   3.199  15.813  0.1532 -0.8125  0.8991
17769TIP3    H274799   0.551   3.108  15.697 -0.8606  0.6861 -0.0023
17770TIP3   OH274800   1.999   4.687  11.757 -0.4064  0.4469 -0.3459
17770TIP3    H174801   1.911   4.720  11.738 -0.0196  1.4356 -0.4756
17770TIP3    H274802   2.025   4.734  11.836 -0.1465 -0.1333 -0.0831
17771TIP3   OH274803   1.284   1.871  14.183  0.0111  0.5336  0.6652
17771TIP3    H174804   1.195   1.889  14.215  0.0418  1.5763  0.1866
17771TIP3    H274805   1.270   1.826  14.099 -0.0791  2.3850 -0.3311
17772TIP3   OH274806   0.185   0.874   0.642 -0.5040 -0.3438  0.6057
17772TIP3    H174807   0.255   0.825   0.685  0.1307 -0.4012 -0.4632
17772TIP3    H274808   0.127   0.900   0.713  0.6951 -0.1407  1.5297
17773TIP3   OH274809   5.417   6.410  14.643  0.6949  0.1234  0.0515
17773TIP3    H174810   5.349   6.455  14.692  0.5384 -0.0623  0.0076
17773TIP3    H274811   5.370   6.359  14.578  0.8110 -0.9260  0.7780
17774TIP3   OH274812   3.197   0.828  12.280  0.2433 -0.2533  0.8482
17774TIP3    H174813   3.182   0.746  12.328  0.9208  0.5027  2.3767
17774TIP3    H274814   3.291   0.843  12.287 -0.0880  1.4452  1.8909
17775TIP3   OH274815   3.038   6.795   0.417  0.3530  0.1997  0.1567
17775TIP3    H174816   3.083   6.813   0.334 -0.6023 -0.8511 -0.5957
17775TIP3    H274817   3.105   6.755   0.473  1.1821  1.5453  0.1489
17776TIP3   OH274818   0.400   2.624   2.477  0.4395  0.1518 -0.3685
17776TIP3    H174819   0.456   2.663   2.545 -1.9290  0.2104  1.5813
17776TIP3    H274820   0.396   2.692   2.409  0.3641  1.3437  0.7942
17777TIP3   OH274821   2.836   6.435   6.213 -0.2100  0.3795  0.0489
17777TIP3    H174822   2.904   6.445   6.280  1.3750 -2.2386 -1.0832
17777TIP3    H274823   2.883   6.440   6.130 -1.2603 -2.0935 -0.7331
17778TIP3   OH274824   4.535   4.500  15.589  0.1383 -0.0644 -0.1392
17778TIP3    H174825   4.590   4.519  15.665  0.8908  0.0604 -0.7150
17778TIP3    H274826   4.446   4.522  15.618  0.0956 -2.3460  1.4974
17779TIP3   OH274827   1.162   4.155   3.420  0.2161  0.1976  0.7362
17779TIP3    H174828   1.113   4.192   3.346  1.3110  0.7678  0.2867
17779TIP3    H274829   1.135   4.209   3.495 -2.5444 -1.7332  1.2258
17780TIP3   OH274830   4.414   6.366  16.925  0.4753  0.1124 -0.4245
17780TIP3    H174831   4.369   6.425  16.865 -0.1344  0.3053  0.2237
17780TIP3    H274832   4.349   6.346  16.992  0.9019 -0.7513 -0.2746
17781TIP3   OH274833   0.472   2.143   5.992  0.2487  0.3660  0.1435
17781TIP3    H174834   0.485   2.153   6.086 -0.7550  1.5728  0.1722
17781TIP3    H274835   0.389   2.188   5.974  0.4869  0.2540 -1.3315
17782TIP3   OH274836   4.645   4.313   2.756  0.2292  0.1282 -0.2567
17782TIP3    H174837   4.734   4.321   2.788  0.4777 -1.5066 -0.5246
17782TIP3    H274838   4.593   4.366   2.816  1.2047  0.1177  0.6018
17783TIP3   OH274839   5.409   2.585  13.444 -0.2565  0.0484  0.3101
17783TIP3    H174840   5.499   2.618  13.439  0.0519 -1.0375 -1.5056
17783TIP3    H274841   5.376   2.591  13.355 -1.4893 -0.9789  0.6789
17784TIP3   OH274842   0.693   4.209  15.650 -0.4843 -0.2535  0.1714
17784TIP3    H174843   0.626   4.221  15.718  1.7381  0.7856  2.2327
17784TIP3    H274844   0.646   4.164  15.579 -3.3436  0.3553  1.5720
17785TIP3   OH274845   2.881   6.157   3.093  0.7350  0.2986 -0.7749
17785TIP3    H174846   2.911   6.184   3.180  4.0999 -1.2394 -1.3562
17785TIP3    H274847   2.852   6.238   3.052  1.0956  1.3846  1.0417
17786TIP3   OH274848   5.979   2.985  14.369 -0.0378  0.1123  0.2380
17786TIP3    H174849   6.037   2.980  14.445 -0.6893  1.8240  0.8659
17786TIP3    H274850   6.039   2.990  14.294  0.5994 -1.8973  0.5944
17787TIP3   OH274851   1.842   2.886   2.464 -0.1855 -0.2294 -0.2622
17787TIP3    H174852   1.863   2.802   2.423  0.3717 -0.9898  1.5450
17787TIP3    H274853   1.919   2.941   2.446  0.2918 -0.7331  0.2384
17788TIP3   OH274854   0.490   5.056   5.918 -0.1186  0.9621 -0.6933
17788TIP3    H174855   0.427   5.019   5.857  0.9414  0.9569 -1.8004
17788TIP3    H274856   0.575   5.024   5.888  0.5187  1.8504  0.1171
17789TIP3   OH274857   4.869   3.445  11.640  0.1004  0.6308 -0.0526
17789TIP3    H174858   4.856   3.505  11.713  1.8914  0.9086  0.0460
17789TIP3    H274859   4.800   3.468  11.578  0.2519  2.2374  0.3503
17790TIP3   OH274860   1.620   4.319   3.000 -0.2243  0.0471 -0.4729
17790TIP3    H174861   1.652   4.265   2.927 -0.2394 -0.2105 -0.2899
17790TIP3    H274862   1.694   4.322   3.062 -0.1413  0.4276 -0.5870
17791TIP3   OH274863   3.177   1.592   0.014  0.1150  0.4478 -0.0775
17791TIP3    H174864   3.251   1.563   0.067 -1.1504  1.4474  2.3240
17791TIP3    H274865   3.209   1.669  -0.033  1.1775 -0.3103 -0.6053
17792TIP3   OH274866   6.644   4.315   3.513  0.3530  0.0518 -0.3241
17792TIP3    H174867   6.557   4.316   3.473  0.3171 -3.3106 -0.4361
17792TIP3    H274868   6.629   4.344   3.603 -1.2127 -2.1150  0.1703
17793TIP3   OH274869   6.739   6.658   5.738  0.4030 -0.5617 -0.0983
17793TIP3    H174870   6.658   6.677   5.786  0.9970  1.1625  0.2699
17793TIP3    H274871   6.713   6.661   5.646  0.1460  0.5611 -0.0025
17794TIP3   OH274872   5.887   1.293  12.448 -0.1726  0.2972 -0.5458
17794TIP3    H174873   5.823   1.231  12.414 -0.5483  0.7927 -0.7482
17794TIP3    H274874   5.916   1.342  12.371  1.5549 -0.9371 -0.6898
17795TIP3   OH274875   0.141   0.434  13.679  0.0349  0.1544 -0.4440
17795TIP3    H174876   0.175   0.473  13.760  1.9052  0.1785 -1.2346
17795TIP3    H274877   0.219   0.411  13.629 -1.1084 -0.9718 -1.7234
17796TIP3   OH274878   5.237   1.215  13.492 -0.4703 -0.0470 -0.2154
17796TIP3    H174879   5.192   1.177  13.567 -1.7406  0.2282 -0.8229
17796TIP3    H274880   5.176   1.203  13.419  1.6533 -2.3739 -1.6995
17797TIP3   OH274881   1.400   2.666   3.822 -0.1593 -0.4947 -0.1282
17797TIP3    H174882   1.476   2.638   3.873 -0.9736 -1.8984  0.3423
17797TIP3    H274883   1.430   2.663   3.731  0.9996  1.0638  0.1900
17798TIP3   OH274884   0.877   5.370  12.184 -0.1786 -0.5527  0.5049
17798TIP3    H174885   0.931   5.440  12.222  0.0391 -1.1759  1.3354
17798TIP3    H274886   0.913   5.359  12.096  0.4837 -0.3584  0.7469
17799TIP3   OH274887   3.310   6.373   3.775  0.5299 -0.1457 -0.2431
17799TIP3    H174888   3.364   6.451   3.787  0.6528 -0.5323  2.0417
17799TIP3    H274889   3.237   6.384   3.836  0.5057 -1.7512  0.0579
17800TIP3   OH274890   4.132   0.745   1.978 -0.4764  0.0837 -0.5832
17800TIP3    H174891   4.145   0.832   2.015  0.9902 -0.4499  0.2128
17800TIP3    H274892   4.047   0.717   2.013 -0.3731  0.6831  0.1683
17801TIP3   OH274893   4.295   5.505   0.637  0.5539  1.1635 -0.4327
17801TIP3    H174894   4.296   5.572   0.705  0.6504  1.2132 -0.4826
17801TIP3    H274895   4.304   5.422   0.684 -1.1674  1.0576 -0.2288
17802TIP3   OH274896   3.786   3.063   4.311 -0.3608  0.0578  0.6667
17802TIP3    H174897   3.731   3.107   4.246 -0.4719 -1.6753 -0.4447
17802TIP3    H274898   3.725   3.026   4.374 -0.2872  0.9799  1.3037
17803TIP3   OH274899   5.127   1.516  12.366  0.1440 -0.3129  0.4528
17803TIP3    H174900   5.095   1.598  12.330  0.2653 -0.4501  0.0340
17803TIP3    H274901   5.051   1.458  12.366 -0.0023 -0.1249  0.9801
17804TIP3   OH274902   1.387   3.932   3.170 -0.3454  0.2680  0.4733
17804TIP3    H174903   1.403   3.986   3.247 -1.0322  0.1680  0.6862
17804TIP3    H274904   1.436   3.976   3.100  1.0140 -0.1371  1.1529
17805TIP3   OH274905   4.239   3.447   6.018 -0.4244  0.2419 -0.2803
17805TIP3    H174906   4.204   3.531   6.049  2.9503  2.3445 -1.7994
17805TIP3    H274907   4.188   3.428   5.939 -0.3401  1.6186 -0.6941
17806TIP3   OH274908   6.569   5.357  10.750  0.0485  0.5055  0.3198
17806TIP3    H174909   6.660   5.357  10.780 -0.2916  0.5026  1.3912
17806TIP3    H274910   6.560   5.275  10.701  1.4136  1.8789 -2.3392
17807TIP3   OH274911   5.872   4.573   3.406  0.1088 -0.2600 -0.4239
17807TIP3    H174912   5.922   4.624   3.470  1.0806  0.4999 -1.7726
17807TIP3    H274913   5.819   4.513   3.460  1.4527 -0.1522  1.0682
17808TIP3   OH274914   5.125   5.259  14.797  0.5737  0.1171 -0.1737
17808TIP3    H174915   5.195   5.321  14.819 -0.2152  0.2672  1.9842
17808TIP3    H274916   5.159   5.174  14.822 -0.4245  0.3159  1.8959
17809TIP3   OH274917   5.190   1.532  15.381 -0.0873  0.4498  0.3092
17809TIP3    H174918   5.203   1.626  15.394  2.6482  0.2309 -0.6775
17809TIP3    H274919   5.228   1.492  15.459 -0.4372  0.1115  0.3058
17810TIP3   OH274920   2.499   1.688  17.121  0.0438  0.0798 -0.4000
17810TIP3    H174921   2.494   1.728  17.208  0.8748 -3.0499  1.1435
17810TIP3    H274922   2.424   1.629  17.117  1.9322 -2.3536 -0.4555
17811TIP3   OH274923   3.799   2.126   5.664 -0.1022 -0.4392 -0.0842
17811TIP3    H174924   3.832   2.054   5.611  0.3479  0.4637 -1.0462
17811TIP3    H274925   3.877   2.178   5.685 -0.3254 -0.6095  1.1853
17812TIP3   OH274926   0.990   3.956  13.479  1.0025 -0.2441  0.1222
17812TIP3    H174927   1.008   3.879  13.533  0.4787 -0.3444  0.1526
17812TIP3    H274928   0.949   3.922  13.400  1.1733 -0.0356 -0.0567
17813TIP3   OH274929   0.031   2.229  16.523  0.0877 -0.1622  0.0781
17813TIP3    H174930   0.050   2.203  16.613  2.6112  1.7123  0.1335
17813TIP3    H274931   0.110   2.206  16.474 -1.9726 -2.9557 -2.0971
17814TIP3   OH274932   4.617   0.309  11.468  0.4900 -0.1811 -0.0105
17814TIP3    H174933   4.577   0.367  11.403  1.4334 -0.3562 -0.7640
17814TIP3    H274934   4.545   0.287  11.527  0.0416  1.5001  0.1176
17815TIP3   OH274935   5.617   4.442   0.257 -0.5566 -0.3813  0.1705
17815TIP3    H174936   5.710   4.462   0.273 -0.1077 -1.2969 -1.1480
17815TIP3    H274937   5.573   4.526   0.262  0.6629  0.3689 -1.2195
17816TIP3   OH274938   3.810   5.628  12.120 -0.2739 -0.1943  0.2231
17816TIP3    H174939   3.896   5.670  12.121  0.0572 -0.8879  0.9815
17816TIP3    H274940   3.824   5.542  12.157 -1.1113 -0.6971 -0.5970
17817TIP3   OH274941   1.527   6.479   5.392 -0.1689  0.1014  0.3415
17817TIP3    H174942   1.455   6.490   5.330 -0.0244  0.9627  0.3081
17817TIP3    H274943   1.606   6.491   5.339 -0.0356  0.3742  0.5950
17818TIP3   OH274944   0.228   2.289  15.467 -0.0896  0.6738 -0.2741
17818TIP3    H174945   0.214   2.365  15.524 -1.1246  0.1176  0.2303
17818TIP3    H274946   0.323   2.281  15.461  0.0457  0.4748  1.7634
17819TIP3   OH274947   4.370   4.816  14.113 -0.3885  1.0654 -0.2772
17819TIP3    H174948   4.431   4.867  14.060  1.1172 -0.0369  0.3476
17819TIP3    H274949   4.366   4.862  14.197  1.1068  0.1320  0.3486
17820TIP3   OH274950   1.713   0.270   5.294  0.1738 -0.3265  0.7070
17820TIP3    H174951   1.645   0.310   5.348 -0.5309 -1.7617  0.9088
17820TIP3    H274952   1.769   0.223   5.356 -0.3072 -1.5080  0.2528
17821TIP3   OH274953   5.316   5.286  14.390  0.1354  0.3272  0.3448
17821TIP3    H174954   5.358   5.202  14.411 -0.6411  0.2955  1.8261
17821TIP3    H274955   5.344   5.305  14.300  1.5514 -0.7623  0.5368
17822TIP3   OH274956   0.425   4.073   1.506 -0.1671 -0.3094  0.5239
17822TIP3    H174957   0.350   4.131   1.520 -1.1824 -1.9405  2.0728
17822TIP3    H274958   0.451   4.046   1.594  2.3656  0.3535  0.0118
17823TIP3   OH274959   6.216   6.706   4.560  0.0807  0.1649 -0.7994
17823TIP3    H174960   6.177   6.793   4.548 -1.2352 -0.2521  0.4305
17823TIP3    H274961   6.288   6.721   4.622 -2.2799 -0.1756  2.0973
17824TIP3   OH274962   4.269   6.274  11.482  0.5150  0.5561 -0.3901
17824TIP3    H174963   4.302   6.354  11.524  1.9573  0.7832 -1.8850
17824TIP3    H274964   4.331   6.206  11.510 -2.1909 -0.6159  2.9901
17825TIP3   OH274965   3.681   3.496  12.582  0.1795  0.1930 -0.1278
17825TIP3    H174966   3.676   3.407  12.547 -0.5522  0.1098  0.1786
17825TIP3    H274967   3.743   3.541  12.525  2.4793 -1.2141  1.2033
17826TIP3   OH274968   4.451   4.206  10.798  0.8054  0.5102 -0.2083
17826TIP3    H174969   4.445   4.117  10.831  1.2729  0.1663 -1.0331
17826TIP3    H274970   4.505   4.252  10.863 -2.1389  1.0716  1.9618
17827TIP3   OH274971   1.173   4.853  11.324 -0.3197  0.2444  0.3901
17827TIP3    H174972   1.261   4.882  11.300  0.3072 -1.7685  0.1847
17827TIP3    H274973   1.129   4.840  11.240 -0.3999  0.0291  0.4665
17828TIP3   OH274974   3.845   3.722  14.593 -0.3709  0.9480 -0.3163
17828TIP3    H174975   3.788   3.690  14.523 -1.3822  0.3360  0.7868
17828TIP3    H274976   3.786   3.745  14.664  0.7874 -0.4510  1.1425
17829TIP3   OH274977   3.209   1.773  14.867 -0.4775  0.0290  0.1798
17829TIP3    H174978   3.117   1.799  14.864 -0.4955 -0.2187 -1.5079
17829TIP3    H274979   3.256   1.845  14.825 -0.0366 -0.4828 -0.2002
17830TIP3   OH274980   1.882   3.035  16.025 -0.1457 -0.4397  0.0297
17830TIP3    H174981   1.891   3.122  15.989  0.4220 -0.4894  0.0441
17830TIP3    H274982   1.972   3.008  16.046 -0.4717 -0.3044  1.7072
17831TIP3   OH274983   3.242   6.649   0.545 -0.2224 -0.6239  0.2855
17831TIP3    H174984   3.285   6.633   0.461  1.3913  0.2639  0.9358
17831TIP3    H274985   3.247   6.565   0.591  1.0845 -0.4594  0.4690
17832TIP3   OH274986   2.342   2.112  15.510  0.0052  0.0410  0.2784
17832TIP3    H174987   2.294   2.195  15.508  1.6288  1.0364  1.5976
17832TIP3    H274988   2.366   2.100  15.602 -1.8312 -2.8596  0.4311
17833TIP3   OH274989   2.255   0.355  12.595  0.7544 -0.0580 -0.0359
17833TIP3    H174990   2.183   0.322  12.649  1.4646  0.9398  1.5542
17833TIP3    H274991   2.276   0.282  12.536 -1.1086 -0.5913 -0.0776
17834TIP3   OH274992   0.516   6.605  12.159 -0.1160  0.4488 -0.0059
17834TIP3    H174993   0.608   6.618  12.137 -0.3911  0.2805 -1.2658
17834TIP3    H274994   0.478   6.693  12.156 -0.4388  0.2652 -1.5278
17835TIP3   OH274995   6.631   0.584   5.281 -0.0899 -0.7009  0.0383
17835TIP3    H174996   6.663   0.550   5.364  0.0176  0.0461  0.3035
17835TIP3    H274997   6.537   0.569   5.283 -0.4683  1.6804  1.4177
17836TIP3   OH274998   4.031   3.331  16.842  0.2163 -0.4901 -0.3304
17836TIP3    H174999   4.095   3.376  16.897 -0.7823 -1.0950  1.3678
17836TIP3    H275000   4.039   3.373  16.756  1.5099  0.7584  0.3857
17837TIP3   OH275001   1.749   4.653  15.900 -0.1214 -0.0456 -0.0051
17837TIP3    H175002   1.827   4.708  15.901  0.1464 -0.4339  0.4006
17837TIP3    H275003   1.677   4.714  15.890  0.2389  0.3115 -0.4549
17838TIP3   OH275004   2.841   6.125  16.012  0.1333 -0.4969  0.3486
17838TIP3    H175005   2.819   6.037  15.981  0.3594 -0.3733 -0.1720
17838TIP3    H275006   2.762   6.176  15.998  1.0648  0.2452 -2.6597
17839TIP3   OH275007   6.233   3.506   1.738 -0.5011 -0.4523 -0.4626
17839TIP3    H175008   6.267   3.480   1.652  1.4597 -0.6913  0.3385
17839TIP3    H275009   6.165   3.571   1.719 -0.3958 -0.8308 -2.2068
17840TIP3   OH275010   2.237   3.847  14.391 -0.3337 -0.1262 -0.4458
17840TIP3    H175011   2.182   3.826  14.467  0.3624  2.5931  0.8723
17840TIP3    H275012   2.322   3.809  14.412 -0.2431  0.3098 -0.0053
17841TIP3   OH275013   6.186   2.214   5.317  0.2419 -0.2328 -0.4827
17841TIP3    H175014   6.200   2.138   5.374  0.8803  0.7394  0.6828
17841TIP3    H275015   6.139   2.179   5.241 -1.1600 -1.4575  0.9110
17842TIP3   OH275016   2.391   5.386  12.810 -0.2232  0.3546  0.0972
17842TIP3    H175017   2.463   5.425  12.760 -1.3302  0.3624 -1.5362
17842TIP3    H275018   2.350   5.460  12.854  0.8654  0.3244  1.2033
17843TIP3   OH275019   1.173   3.067   3.756 -0.1850  0.2971  0.4511
17843TIP3    H175020   1.215   3.127   3.818  0.6314 -0.1359  0.3262
17843TIP3    H275021   1.109   3.019   3.808  1.1721 -0.7570  1.1917
17844TIP3   OH275022   2.024   5.628  16.697  0.3128  0.1299  0.1001
17844TIP3    H175023   2.041   5.536  16.717 -2.5360 -0.6271 -0.6757
17844TIP3    H275024   2.038   5.636  16.603 -0.4427  0.2207 -0.0128
17845TIP3   OH275025   4.211   3.318  17.137  0.6379 -0.3439 -0.0803
17845TIP3    H175026   4.265   3.241  17.152 -1.4384 -1.6860  0.6386
17845TIP3    H275027   4.241   3.381  17.203  2.7319 -0.2997 -1.0458
17846TIP3   OH275028   2.837   2.769  14.898 -0.1123 -0.2234  0.1462
17846TIP3    H175029   2.883   2.789  14.980  1.7515 -0.5973 -0.7988
17846TIP3    H275030   2.848   2.847  14.844  0.8689 -0.9596 -0.7263
17847TIP3   OH275031   3.163   1.013   4.487 -0.4970  0.0105  0.3160
17847TIP3    H175032   3.167   0.946   4.419 -0.8138  1.6624 -1.3546
17847TIP3    H275033   3.082   1.061   4.469 -1.4734 -0.5554  2.8703
17848TIP3   OH275034   2.142   1.056  11.756  0.8113 -0.1394 -0.1056
17848TIP3    H175035   2.148   1.125  11.823 -1.4797 -0.3492  0.3390
17848TIP3    H275036   2.089   1.094  11.687 -0.4520 -1.4550  0.1326
17849TIP3   OH275037   2.040   4.974  16.538 -0.4446 -0.0259 -0.2593
17849TIP3    H175038   1.960   4.978  16.591  0.4043  1.0144  0.9755
17849TIP3    H275039   2.017   5.018  16.456 -0.5038  2.3245  0.9682
17850TIP3   OH275040   5.439   5.328  12.644 -0.8404 -0.5273 -0.9486
17850TIP3    H175041   5.498   5.332  12.720 -1.5473  0.3652 -0.4247
17850TIP3    H275042   5.484   5.272  12.581  0.2298 -0.4505 -0.2665
17851TIP3   OH275043   4.718   1.388   1.636 -1.1728 -0.0755  0.0651
17851TIP3    H175044   4.788   1.421   1.692 -0.0877 -3.5346  0.8609
17851TIP3    H275045   4.638   1.401   1.688 -0.7172  0.7745  0.5613
17852TIP3   OH275046   1.555   0.546   1.113 -0.1503  0.1286 -1.0023
17852TIP3    H175047   1.548   0.641   1.108  0.4397  0.2425  0.0364
17852TIP3    H275048   1.471   0.518   1.149  1.0469  0.6377  2.4302
17853TIP3   OH275049   5.729   6.144   0.080  0.2302 -0.3958  0.3272
17853TIP3    H175050   5.713   6.154   0.174  0.3584 -3.1749  0.6712
17853TIP3    H275051   5.644   6.157   0.040 -0.0862 -0.5188  0.9471
17854TIP3   OH275052   1.140   2.603   3.901 -0.0544  0.0341  0.4344
17854TIP3    H175053   1.226   2.629   3.870  0.7442 -1.3628  1.4261
17854TIP3    H275054   1.103   2.550   3.830  0.7175 -0.9976  0.7858
17855TIP3   OH275055   2.761   1.931   1.027  0.3519 -0.2436  0.0121
17855TIP3    H175056   2.832   1.907   1.086  0.7925 -0.3973 -0.5874
17855TIP3    H275057   2.728   2.014   1.061  0.3070 -0.5567  0.7433
17856TIP3   OH275058   0.964   6.381  12.077  0.3425  0.8634 -0.0113
17856TIP3    H175059   0.883   6.333  12.063 -0.0734  0.3285  3.6726
17856TIP3    H275060   0.946   6.469  12.043 -0.7174 -0.0769 -1.9222
17857TIP3   OH275061   1.539   6.459  15.403  0.5805  0.1306 -0.4570
17857TIP3    H175062   1.519   6.497  15.488 -0.7152 -2.8774  0.6664
17857TIP3    H275063   1.526   6.531  15.341 -3.1182  1.2090  1.3885
17858TIP3   OH275064   6.104   0.132  17.023  0.9210  0.0216 -0.0131
17858TIP3    H175065   6.143   0.214  16.993  0.9391 -0.9473 -2.7791
17858TIP3    H275066   6.178   0.071  17.030  0.4589 -0.7522 -1.5645
17859TIP3   OH275067   5.957   1.603   2.401 -0.2428  0.8043 -0.0424
17859TIP3    H175068   5.959   1.511   2.372 -3.0601  0.5912  0.3026
17859TIP3    H275069   5.943   1.652   2.320 -1.5271  0.6861  0.0867
17860TIP3   OH275070   6.347   0.224   1.845 -0.6623 -0.3005  0.3232
17860TIP3    H175071   6.262   0.185   1.863 -0.6929 -0.7945 -0.8007
17860TIP3    H275072   6.407   0.180   1.906 -1.3533  0.7167  1.7577
17861TIP3   OH275073   6.458   6.644   5.139 -0.0786 -0.1596 -0.4367
17861TIP3    H175074   6.420   6.569   5.094 -3.0409  0.0993  1.5069
17861TIP3    H275075   6.461   6.618   5.231 -0.6778  1.8826  0.1878
17862TIP3   OH275076   1.155   6.261   0.562  0.7127 -0.3287 -0.5403
17862TIP3    H175077   1.130   6.308   0.481  0.4271 -0.6943 -0.6678
17862TIP3    H275078   1.247   6.240   0.550  0.7995  0.0556 -0.5569
17863TIP3   OH275079   3.788   2.153  13.438  0.2211  0.0538  0.0647
17863TIP3    H175080   3.880   2.137  13.457  0.3795  1.0623  0.1458
17863TIP3    H275081   3.784   2.245  13.413 -0.3665 -0.5957 -2.3547
17864TIP3   OH275082   0.121   0.795  13.768  0.1803 -0.7007  0.6424
17864TIP3    H175083   0.037   0.752  13.785  0.5770 -1.0377  1.8150
17864TIP3    H275084   0.108   0.885  13.798  0.2645 -0.7757  0.9043
17865TIP3   OH275085   4.162   4.959  13.921  0.0892 -0.6346  0.2997
17865TIP3    H175086   4.194   4.937  14.009 -1.2637 -2.8914  0.2793
17865TIP3    H275087   4.078   4.912  13.915 -0.3638  0.4256 -1.7833
17866TIP3   OH275088   0.283   3.294   3.750  0.2364 -0.1630 -0.4856
17866TIP3    H175089   0.264   3.359   3.818  0.7249  1.0240 -1.4750
17866TIP3    H275090   0.362   3.326   3.707 -0.0404 -0.9426 -1.5872
17867TIP3   OH275091   1.394   4.090  14.506  0.4964 -0.0594 -0.3026
17867TIP3    H175092   1.487   4.109  14.524 -0.1256  0.1872  2.8264
17867TIP3    H275093   1.361   4.172  14.468  0.9965  0.6624  0.7898
17868TIP3   OH275094   2.970   6.614   3.799  0.1436 -0.0503  0.0741
17868TIP3    H175095   2.967   6.595   3.705 -0.7801 -1.2589  0.3355
17868TIP3    H275096   2.968   6.710   3.804  1.1603  0.0558 -1.1670
17869TIP3   OH275097   5.535   0.731  14.252 -0.0581  0.0277 -0.0335
17869TIP3    H175098   5.503   0.752  14.340  0.2829  1.3219 -0.2102
17869TIP3    H275099   5.612   0.677  14.267  0.5015  0.9650  0.4842
17870TIP3   OH275100   3.085   6.475   1.487 -1.0334 -0.2206  0.0550
17870TIP3    H175101   3.137   6.415   1.434  0.6381  0.3223  1.0438
17870TIP3    H275102   3.053   6.540   1.424  0.7787  0.3176 -0.3334
17871TIP3   OH275103   4.322   5.861  13.798  0.3053  0.2175  0.2471
17871TIP3    H175104   4.328   5.766  13.787 -1.0991  0.1430  0.0321
17871TIP3    H275105   4.408   5.893  13.772  1.4328 -1.1591  2.1515
17872TIP3   OH275106   3.900   0.445  13.290 -0.0084  0.2156  0.5035
17872TIP3    H175107   3.884   0.538  13.302  0.9954  0.2513  1.6037
17872TIP3    H275108   3.981   0.428  13.337  1.6573 -0.5575 -2.4594
17873TIP3   OH275109   3.092   1.625  11.355  0.1114  0.2058  0.4561
17873TIP3    H175110   3.097   1.542  11.402 -0.2548 -0.7463 -1.1500
17873TIP3    H275111   3.046   1.604  11.274  1.2150  1.7086 -0.5796
17874TIP3   OH275112   6.266   3.923   5.069 -0.5201  0.0702 -0.1497
17874TIP3    H175113   6.248   4.001   5.015  1.5728  1.0551  0.5161
17874TIP3    H275114   6.244   3.950   5.158  0.9423  0.1621  0.1892
17875TIP3   OH275115   3.340   4.390  15.118 -0.4868 -0.3516  0.6340
17875TIP3    H175116   3.319   4.353  15.033  0.8849  0.0020  0.1164
17875TIP3    H275117   3.430   4.361  15.135 -0.3271  0.5763  1.4170
17876TIP3   OH275118   2.276   1.199   0.479 -0.0753  0.2925 -0.0882
17876TIP3    H175119   2.231   1.196   0.564  0.6801 -0.4062  0.2899
17876TIP3    H275120   2.333   1.122   0.479 -0.0858  0.2769 -1.2446
17877TIP3   OH275121   1.867   2.932   5.233 -0.2009  0.0267 -0.5742
17877TIP3    H175122   1.850   2.852   5.282  1.2683 -0.5565 -0.9907
17877TIP3    H275123   1.940   2.974   5.279  1.3702 -0.6528 -2.3473
17878TIP3   OH275124   5.628   1.406  12.299 -0.1645 -0.0826  0.4672
17878TIP3    H175125   5.666   1.341  12.358 -1.0091 -0.9831  0.0247
17878TIP3    H275126   5.682   1.484  12.311  0.2167 -0.5414  1.7733
17879TIP3   OH275127   2.757   1.214   1.646  1.1602 -0.0175 -0.0811
17879TIP3    H175128   2.824   1.264   1.692 -0.0820  1.3758  0.2430
17879TIP3    H275129   2.737   1.265   1.568  1.6367 -1.2448 -1.0242
17880TIP3   OH275130   4.954   6.126   4.014  0.1286  0.1745 -0.4713
17880TIP3    H175131   5.012   6.056   4.042  0.2840  0.3793 -0.2839
17880TIP3    H275132   4.906   6.089   3.940  1.3717  0.3995 -1.4169
17881TIP3   OH275133   1.922   6.325  11.016 -0.0730 -0.2709  0.0932
17881TIP3    H175134   1.935   6.230  11.024 -1.4976 -0.4269  0.6556
17881TIP3    H275135   1.968   6.361  11.092  0.0535 -0.5402  0.1475
17882TIP3   OH275136   6.460   0.376   1.297 -0.4728 -0.3707 -0.5424
17882TIP3    H175137   6.529   0.360   1.361 -0.2739  0.1689 -0.6256
17882TIP3    H275138   6.494   0.340   1.215 -0.2108  0.0725 -0.6274
17883TIP3   OH275139   3.455   0.078   1.179 -0.6265 -0.1053  0.1893
17883TIP3    H175140   3.521   0.075   1.110  0.4657  1.0767  1.1591
17883TIP3    H275141   3.386   0.020   1.149  1.1454 -1.8822 -0.5537
17884TIP3   OH275142   3.709   6.533  11.381 -0.2590 -0.4375 -0.4683
17884TIP3    H175143   3.766   6.493  11.446  0.7702  0.7849 -0.5844
17884TIP3    H275144   3.622   6.500  11.401  0.4827 -2.3865 -0.3223
17885TIP3   OH275145   4.505   5.261  15.496 -0.0442  0.6756 -0.1263
17885TIP3    H175146   4.455   5.342  15.505  0.5072  1.1320 -1.0983
17885TIP3    H275147   4.454   5.207  15.436 -0.9177 -0.1239  1.2920
17886TIP3   OH275148   0.819   3.864  16.626  0.2512  0.1261  0.2963
17886TIP3    H175149   0.884   3.926  16.594  0.5839 -0.0307  0.6690
17886TIP3    H275150   0.800   3.808  16.551  2.5059 -1.5034  0.9138
17887TIP3   OH275151   0.522   6.198  14.473 -0.5278 -0.7015 -0.2853
17887TIP3    H175152   0.571   6.154  14.542  0.4614 -0.3362 -0.7555
17887TIP3    H275153   0.479   6.271  14.517 -0.8594 -1.1699  0.1748
17888TIP3   OH275154   5.952   1.382   5.358 -0.1748 -0.2581 -0.8305
17888TIP3    H175155   6.022   1.361   5.297 -0.9621 -2.0951 -1.1431
17888TIP3    H275156   5.979   1.342   5.441 -0.0698  0.4653 -0.5153
17889TIP3   OH275157   5.802   3.884   3.424  0.5034 -0.3900 -0.0689
17889TIP3    H175158   5.884   3.914   3.387  0.2822 -1.1409 -1.1677
17889TIP3    H275159   5.743   3.960   3.415 -0.0671 -1.1228 -2.8805
17890TIP3   OH275160   5.692   5.479  17.184  0.1940  0.0812 -0.0466
17890TIP3    H175161   5.720   5.543  17.118  0.4476  0.9446  0.8925
17890TIP3    H275162   5.600   5.463  17.163 -0.0608  1.2631  0.1098
17891TIP3   OH275163   4.958   2.522  11.015  0.0253 -0.1743  0.6415
17891TIP3    H175164   5.039   2.488  10.976  0.2699  2.4726 -1.2858
17891TIP3    H275165   4.972   2.616  11.021 -2.9619  0.3451  0.1387
17892TIP3   OH275166   3.461   4.993  14.397 -0.4785  0.0648  0.1042
17892TIP3    H175167   3.474   5.073  14.345  0.0015  0.2979  0.5851
17892TIP3    H275168   3.536   4.938  14.373 -1.1509 -0.5039 -0.7130
17893TIP3   OH275169   2.719   2.748  13.353  0.3890  0.2184 -0.1738
17893TIP3    H175170   2.794   2.801  13.379 -0.9304  1.7748  0.6157
17893TIP3    H275171   2.680   2.795  13.279  1.3842 -1.6921 -1.9447
17894TIP3   OH275172   3.846   0.904  13.372 -0.6946  0.3891 -0.5212
17894TIP3    H175173   3.928   0.906  13.323 -1.3267 -0.2336 -1.6411
17894TIP3    H275174   3.827   0.995  13.392 -0.2584  0.6239 -1.1744
17895TIP3   OH275175   3.206   0.273  12.425 -0.4296 -0.0493  0.4182
17895TIP3    H175176   3.264   0.198  12.420 -1.7250 -0.9157 -3.2834
17895TIP3    H275177   3.252   0.344  12.380 -1.1002  0.0208 -0.1812
17896TIP3   OH275178   4.298   6.587  16.293  0.3086  0.2369  0.0719
17896TIP3    H175179   4.330   6.665  16.339 -0.1677 -0.0862  0.9566
17896TIP3    H275180   4.352   6.515  16.326 -0.9043 -0.2079  1.1076
17897TIP3   OH275181   2.573   0.405   6.191  0.2014 -0.5450 -0.0070
17897TIP3    H175182   2.528   0.403   6.275 -0.9380  1.4524 -0.5415
17897TIP3    H275183   2.584   0.313   6.167  2.4432 -1.2164  3.3152
17898TIP3   OH275184   4.830   3.572  14.801  0.2756 -0.0663  0.4560
17898TIP3    H175185   4.797   3.635  14.865  0.0592  0.6224 -0.3254
17898TIP3    H275186   4.924   3.589  14.796 -0.2136  2.1464 -1.8635
17899TIP3   OH275187   0.060   3.669   1.616  0.1448  0.0469 -0.1867
17899TIP3    H175188   0.155   3.656   1.623 -0.0145 -1.5679 -0.8691
17899TIP3    H275189   0.030   3.596   1.561 -1.1978  1.7484 -1.7773
17900TIP3   OH275190   2.372   4.609  16.642 -0.4233 -0.9162  0.0848
17900TIP3    H175191   2.290   4.651  16.618  0.3032 -1.1268 -3.0181
17900TIP3    H275192   2.348   4.518  16.661 -1.2005 -0.4353  1.5103
17901TIP3   OH275193   3.836   2.321  12.703 -0.4806 -0.1265  0.4845
17901TIP3    H175194   3.755   2.368  12.684 -0.2617  0.0268 -0.0453
17901TIP3    H275195   3.843   2.255  12.634  1.0047  1.2990 -0.7507
17902TIP3   OH275196   5.140   4.212   4.805  0.1712 -0.1459 -0.4243
17902TIP3    H175197   5.077   4.275   4.770 -1.9467 -1.8407  0.2384
17902TIP3    H275198   5.158   4.153   4.733  1.0810  0.3668 -0.6291
17903TIP3   OH275199   0.435   2.203  16.726  0.5986  0.1726 -0.3507
17903TIP3    H175200   0.437   2.168  16.637  0.0666 -0.6736 -0.0383
17903TIP3    H275201   0.422   2.126  16.782 -2.0196  0.9740  0.2489
17904TIP3   OH275202   3.771   3.426   3.748 -0.1634 -0.3592 -0.7884
17904TIP3    H175203   3.848   3.447   3.695  0.8588 -0.3662  0.6846
17904TIP3    H275204   3.786   3.335   3.776 -0.1623  0.0207  0.4413
17905TIP3   OH275205   5.800   0.837  14.930 -0.3753  0.3200 -0.0796
17905TIP3    H175206   5.732   0.771  14.937 -0.5636  0.5962  0.8327
17905TIP3    H275207   5.795   0.868  14.840 -2.6613  1.6001  0.4570
17906TIP3   OH275208   4.811   2.603  11.342  0.3594  0.2369  0.1076
17906TIP3    H175209   4.756   2.634  11.271 -0.5469 -0.9990  0.2349
17906TIP3    H275210   4.869   2.676  11.363  1.7974  0.0467 -3.0255
17907TIP3   OH275211   0.656   4.090   2.385  0.2830 -0.5722 -0.2937
17907TIP3    H175212   0.610   4.098   2.468 -2.0630  2.5353 -1.7605
17907TIP3    H275213   0.586   4.071   2.321  1.7102 -0.6175 -1.8823
17908TIP3   OH275214   3.010   4.857  11.963  0.0281  0.7009  0.4890
17908TIP3    H175215   3.087   4.908  11.989 -0.0934  1.1312  0.0050
17908TIP3    H275216   2.948   4.922  11.929 -0.5706  0.3605  0.9299
17909TIP3   OH275217   1.263   5.835   5.484  0.4668 -0.2297  0.0844
17909TIP3    H175218   1.249   5.742   5.503 -2.2483  0.3472  1.2861
17909TIP3    H275219   1.296   5.871   5.566  1.5448 -0.1299 -0.3906
17910TIP3   OH275220   6.554   5.130  10.595 -0.4157 -0.5747 -0.2327
17910TIP3    H175221   6.568   5.038  10.619  2.3367 -0.4019 -1.0451
17910TIP3    H275222   6.547   5.129  10.500  0.0420  0.1007 -0.2736
17911TIP3   OH275223   2.096   4.649   3.821  0.1168 -0.0917 -0.1058
17911TIP3    H175224   2.164   4.688   3.875 -0.0693  0.1128 -0.0224
17911TIP3    H275225   2.135   4.568   3.788  0.1507 -0.3237  0.5082
17912TIP3   OH275226   1.274   0.118   0.390 -0.0811  0.0169  0.7918
17912TIP3    H175227   1.273   0.076   0.304  0.5341 -1.0062  1.2781
17912TIP3    H275228   1.256   0.211   0.372  0.0392 -0.1927 -0.4321
17913TIP3   OH275229   0.657   3.608   3.318  0.1136 -0.3975 -0.0932
17913TIP3    H175230   0.618   3.677   3.372 -1.1543 -0.3636 -1.0350
17913TIP3    H275231   0.671   3.650   3.233  4.4600  0.3305  0.8604
17914TIP3   OH275232   5.725   5.241  13.670 -0.8333  0.1528 -0.5885
17914TIP3    H175233   5.634   5.211  13.661 -1.1403  1.2480 -1.1296
17914TIP3    H275234   5.719   5.321  13.722 -0.2098  0.4650 -0.9982
17915TIP3   OH275235   4.327   1.299  11.946 -0.5809  0.3307 -0.2263
17915TIP3    H175236   4.234   1.283  11.963 -0.4707 -0.2055 -0.1221
17915TIP3    H275237   4.337   1.283  11.852 -0.0486 -2.3354  0.2488
17916TIP3   OH275238   1.663   1.493   0.957  0.1737 -0.1357 -0.4704
17916TIP3    H175239   1.578   1.450   0.967  0.1654  0.1433  0.6713
17916TIP3    H275240   1.697   1.460   0.874 -0.0008 -2.0326  0.2050
17917TIP3   OH275241   6.023   4.687  15.946 -0.1979 -0.4576 -0.1971
17917TIP3    H175242   6.085   4.615  15.957  0.1915 -0.4009 -1.9978
17917TIP3    H275243   6.061   4.759  15.996  2.4432  0.3250 -3.1899
17918TIP3   OH275244   4.421   0.099  10.703  1.0990  0.1499  0.2234
17918TIP3    H175245   4.497   0.078  10.649  0.3724 -0.6757 -0.5162
17918TIP3    H275246   4.422   0.194  10.711  2.7916  0.0810  1.1015
17919TIP3   OH275247   2.480   4.083   0.431  0.1188 -0.7625 -0.3039
17919TIP3    H175248   2.470   4.178   0.438 -1.3297 -0.9484  0.3704
17919TIP3    H275249   2.573   4.067   0.444  0.5868  0.6867 -1.8587
17920TIP3   OH275250   2.895   0.807  12.475  0.7730 -0.3501  0.0590
17920TIP3    H175251   2.951   0.732  12.458  2.2399  0.8994 -0.7247
17920TIP3    H275252   2.860   0.832  12.390  1.2849  0.6242  0.1288
17921TIP3   OH275253   1.245   2.542   6.450 -0.5698  0.3693  0.0893
17921TIP3    H175254   1.153   2.522   6.429 -0.5655  0.2141  0.2151
17921TIP3    H275255   1.281   2.459   6.481 -0.2380  0.3079 -0.4628
17922TIP3   OH275256   3.021   4.454  12.724  0.1594  0.2851 -0.5704
17922TIP3    H175257   3.078   4.381  12.746  1.3628  0.9258 -1.4755
17922TIP3    H275258   2.934   4.415  12.714  0.4798 -0.7449  0.5736
17923TIP3   OH275259   1.005   2.890   3.877 -0.2447 -0.5950 -0.3119
17923TIP3    H175260   0.957   2.871   3.958 -2.0591  0.2835 -1.1373
17923TIP3    H275261   0.978   2.821   3.816  0.1015 -0.5130 -0.5604
17924TIP3   OH275262   3.450   5.170  10.924  0.3452 -0.1885 -0.3710
17924TIP3    H175263   3.383   5.108  10.897  0.2858 -0.3083  0.0362
17924TIP3    H275264   3.486   5.204  10.843 -1.8605  1.6908 -0.6015
17925TIP3   OH275265   6.431   4.237  11.289  0.1003 -0.2172  1.0251
17925TIP3    H175266   6.425   4.307  11.354  1.5206  0.7325  0.1582
17925TIP3    H275267   6.453   4.159  11.339 -1.6065 -0.0879  2.0210
17926TIP3   OH275268   3.932   1.748   1.871  0.3646  0.0472  0.8405
17926TIP3    H175269   3.926   1.842   1.858 -0.0447 -0.0906  0.0557
17926TIP3    H275270   3.987   1.739   1.949  0.7252  0.9194  0.6955
17927TIP3   OH275271   3.025   2.865  15.593 -0.0511 -0.2562 -0.2307
17927TIP3    H175272   2.947   2.824  15.556 -0.7671 -1.1745  2.2085
17927TIP3    H275273   2.993   2.945  15.635  0.6350  0.3730 -0.8774
17928TIP3   OH275274   4.981   4.459   1.170  0.7089 -1.3798 -0.4147
17928TIP3    H175275   4.997   4.365   1.160  3.7047 -0.9370 -0.2921
17928TIP3    H275276   5.001   4.477   1.261 -1.5412 -0.8879  0.0113
17929TIP3   OH275277   2.438   0.528  13.397  0.4532  0.1632  0.3778
17929TIP3    H175278   2.495   0.573  13.460 -0.0803  0.0130  0.9761
17929TIP3    H275279   2.357   0.579  13.399  0.6447  0.5172 -0.6485
17930TIP3   OH275280   4.475   3.832   0.060  0.0069  0.6848 -0.2194
17930TIP3    H175281   4.401   3.826  -0.001 -0.4688 -0.3645  0.4515
17930TIP3    H275282   4.441   3.797   0.142  1.5838 -0.7963 -0.1934
17931TIP3   OH275283   5.705   0.275  15.925 -0.3264  0.2227  0.1983
17931TIP3    H175284   5.616   0.305  15.908 -0.4354 -0.2672 -0.1208
17931TIP3    H275285   5.760   0.352  15.910 -0.6073  0.2871 -0.5139
17932TIP3   OH275286   1.383   2.652  15.576 -0.2858 -0.2304  0.0021
17932TIP3    H175287   1.355   2.659  15.668  0.6563  0.8116  0.2303
17932TIP3    H275288   1.301   2.654  15.526 -0.7779 -0.2055  0.7959
17933TIP3   OH275289   5.846   3.106  12.457 -0.1799  0.5616 -0.1620
17933TIP3    H175290   5.804   3.180  12.415  1.4111  1.5804  0.0170
17933TIP3    H275291   5.928   3.093  12.409  0.9543  0.8124  1.6553
17934TIP3   OH275292   5.998   3.802   2.870 -0.1030  0.3256 -0.0471
17934TIP3    H175293   6.065   3.735   2.888  0.1244 -0.1361 -2.4505
17934TIP3    H275294   5.968   3.782   2.781 -2.7318  1.1471  0.6271
17935TIP3   OH275295   3.143   1.468  10.832 -0.0903 -0.5760 -0.2553
17935TIP3    H175296   3.225   1.468  10.881  0.2823 -0.7456 -0.8847
17935TIP3    H275297   3.165   1.509  10.749 -0.7040 -0.3890 -0.3290
17936TIP3   OH275298   5.245   2.586   1.519  0.3270 -0.5567 -0.0904
17936TIP3    H175299   5.337   2.602   1.498  0.4070 -0.2957  0.4408
17936TIP3    H275300   5.216   2.520   1.455 -0.2605  2.3587 -2.9588
17937TIP3   OH275301   6.775   5.268  15.679 -0.4180  0.0652 -0.2934
17937TIP3    H175302   6.837   5.222  15.623 -0.0409 -1.5491  1.3787
17937TIP3    H275303   6.828   5.303  15.751 -1.2107 -0.0160  0.3510
17938TIP3   OH275304   0.767   1.352   4.903  0.2149 -0.2240 -0.2845
17938TIP3    H175305   0.812   1.382   4.982 -0.2417 -1.0190  0.2913
17938TIP3    H275306   0.808   1.268   4.883 -0.4108 -0.5317 -0.2732
17939TIP3   OH275307   5.247   3.751   1.011  0.2707 -0.5547 -0.7169
17939TIP3    H175308   5.322   3.725   0.957  0.3227 -0.9438 -0.4608
17939TIP3    H275309   5.226   3.839   0.982 -0.7511 -1.3767 -2.5261
17940TIP3   OH275310   3.334   6.404   1.007 -0.7191  0.9427  0.3783
17940TIP3    H175311   3.278   6.431   0.934 -0.6079 -0.7883 -0.3527
17940TIP3    H275312   3.420   6.440   0.986 -0.4257 -0.4905 -0.9025
17941TIP3   OH275313   4.460   0.308  11.911  0.0209 -0.2862 -0.0714
17941TIP3    H175314   4.541   0.265  11.882  0.1831  0.5053 -0.7927
17941TIP3    H275315   4.483   0.400  11.920 -0.8091 -0.0531 -0.2952
17942TIP3   OH275316   0.548   4.727   0.724  0.0771  0.1536 -0.3994
17942TIP3    H175317   0.459   4.699   0.703 -0.3315  2.3476 -1.8089
17942TIP3    H275318   0.601   4.697   0.650  0.2548  0.0994 -0.2507
17943TIP3   OH275319   1.855   0.902  13.256  0.3987  0.0778  0.0655
17943TIP3    H175320   1.944   0.907  13.223 -0.3086 -0.7595 -2.0842
17943TIP3    H275321   1.809   0.976  13.215 -0.3087 -0.5285 -0.2615
17944TIP3   OH275322   0.268   0.407  13.203  0.0185  0.4385 -0.3661
17944TIP3    H175323   0.268   0.480  13.140 -0.3128  0.1483 -0.7066
17944TIP3    H275324   0.304   0.333  13.154 -1.8997 -0.2518 -0.7800
17945TIP3   OH275325   1.248   6.653   4.803  0.2513 -0.5887  0.1143
17945TIP3    H175326   1.313   6.597   4.847  0.3497 -1.4875 -1.1396
17945TIP3    H275327   1.279   6.659   4.713  0.2778  1.5824  0.2568
17946TIP3   OH275328   0.496   0.245  16.132 -0.4155 -0.0886 -0.6736
17946TIP3    H175329   0.521   0.297  16.209 -2.3060 -0.0417 -0.0522
17946TIP3    H275330   0.572   0.250  16.074  0.1467  1.8499  0.1701
17947TIP3   OH275331   6.341   5.743  11.746 -0.6581 -0.2513 -0.0832
17947TIP3    H175332   6.387   5.659  11.746 -1.5898 -0.7868 -1.1670
17947TIP3    H275333   6.290   5.741  11.665  0.7447  2.1740 -1.0546
17948TIP3   OH275334   6.004   3.536  10.226 -0.3873 -0.0005 -0.2104
17948TIP3    H175335   5.970   3.600  10.163  0.1771 -0.7416 -1.2977
17948TIP3    H275336   6.097   3.557  10.234 -0.8232  1.2514  1.8117
17949TIP3   OH275337   1.672   0.594  14.181  0.6660 -1.0260 -0.0318
17949TIP3    H175338   1.657   0.614  14.089  3.0896  0.1164 -0.2119
17949TIP3    H275339   1.734   0.521  14.180  0.2881 -1.3700  0.7062
17950TIP3   OH275340   2.589   3.745  12.612 -0.1365 -0.8285  0.4022
17950TIP3    H175341   2.531   3.821  12.599  1.0093  0.1808  1.0456
17950TIP3    H275342   2.580   3.694  12.531 -2.8788 -1.3630  0.9998
17951TIP3   OH275343   6.417   1.382  16.657 -0.0894 -0.6294  0.3760
17951TIP3    H175344   6.335   1.338  16.678  0.5790 -1.6941  0.8392
17951TIP3    H275345   6.477   1.310  16.635  0.6763  0.1423 -0.0872
17952TIP3   OH275346   6.391   5.942   1.481 -0.2481 -0.2957  0.0011
17952TIP3    H175347   6.481   5.965   1.505 -0.1383  0.1334 -0.7878
17952TIP3    H275348   6.351   6.026   1.457 -0.1523 -0.7749 -1.9037
17953TIP3   OH275349   4.162   4.625   3.900 -0.3446  0.0164 -0.0443
17953TIP3    H175350   4.143   4.653   3.990  0.4176  0.5667 -0.0474
17953TIP3    H275351   4.079   4.590   3.868 -1.1311  1.6081  0.2145
17954TIP3   OH275352   5.859   0.603   4.406 -0.1394  0.9840 -0.5277
17954TIP3    H175353   5.939   0.568   4.366 -0.4968  1.6799 -1.8907
17954TIP3    H275354   5.811   0.641   4.332 -0.8249  2.2839  0.5795
17955TIP3   OH275355   6.116   5.314  14.379 -0.0018 -0.1002  0.2590
17955TIP3    H175356   6.144   5.351  14.462 -0.5798 -0.3390  0.5659
17955TIP3    H275357   6.098   5.390  14.324 -1.3485  0.0891  0.9412
17956TIP3   OH275358   5.496   5.714  14.081 -0.3505 -0.1975  0.3921
17956TIP3    H175359   5.402   5.730  14.088 -0.7755 -2.7384  0.9301
17956TIP3    H275360   5.517   5.662  14.159  1.1868 -1.0086 -0.5535
17957TIP3   OH275361   1.991   6.646   1.561  0.3976 -0.1802  0.1129
17957TIP3    H175362   1.927   6.596   1.511 -0.4235  1.2840 -0.3412
17957TIP3    H275363   1.962   6.638   1.652 -0.5144  0.5916 -0.1068
17958TIP3   OH275364   4.859   1.636   4.150 -0.6765  0.0321  0.6021
17958TIP3    H175365   4.907   1.692   4.210  0.7203  0.3066 -0.7387
17958TIP3    H275366   4.922   1.570   4.122 -0.9549  0.5612 -1.3923
17959TIP3   OH275367   4.161   1.533  13.765  0.0726  0.6123  0.1158
17959TIP3    H175368   4.169   1.623  13.796 -0.2918  0.0313  1.9317
17959TIP3    H275369   4.100   1.538  13.691  0.4263  1.9108 -0.1011
17960TIP3   OH275370   1.481   6.288   5.029 -0.0413 -0.0354  0.0140
17960TIP3    H175371   1.518   6.207   4.994  0.5916  0.5010 -0.5769
17960TIP3    H275372   1.406   6.260   5.082 -0.4361 -0.9403 -1.0042
17961TIP3   OH275373   0.894   1.238   0.262  0.0271 -0.5605 -0.4657
17961TIP3    H175374   0.945   1.317   0.247 -0.3643 -0.2076  0.0454
17961TIP3    H275375   0.958   1.167   0.255  0.5193 -0.1497 -0.2231
17962TIP3   OH275376   0.319   4.741  16.011  0.8112 -0.0070 -0.1913
17962TIP3    H175377   0.274   4.788  15.940  1.2494  1.0359  0.2082
17962TIP3    H275378   0.257   4.745  16.084  0.6151 -0.5568 -0.3225
17963TIP3   OH275379   5.436   3.392  10.300  0.0910 -0.5571  0.5701
17963TIP3    H175380   5.487   3.316  10.330  0.2747 -0.8481 -0.4488
17963TIP3    H275381   5.348   3.377  10.333  0.2676 -0.9099  0.8877
17964TIP3   OH275382   2.924   6.747   4.426 -0.3815  0.0493 -0.0470
17964TIP3    H175383   2.997   6.704   4.472 -0.7652 -0.0812  0.4358
17964TIP3    H275384   2.956   6.836   4.408 -0.4496  0.2822  0.9875
17965TIP3   OH275385   3.856   5.132   0.666  0.9710 -0.1434  0.7967
17965TIP3    H175386   3.832   5.136   0.573  1.3686 -2.3263  0.5687
17965TIP3    H275387   3.949   5.156   0.667  0.7655  0.6577  0.7259
17966TIP3   OH275388   6.229   3.479  15.904 -0.3278  0.0315  0.3566
17966TIP3    H175389   6.173   3.546  15.942  0.9320  1.1147  0.3170
17966TIP3    H275390   6.170   3.405  15.888 -1.6195  0.9359  0.8664
17967TIP3   OH275391   2.108   6.248   2.423  0.0602  0.8826 -0.2184
17967TIP3    H175392   2.180   6.308   2.404  0.2080  0.2595 -1.6411
17967TIP3    H275393   2.074   6.222   2.337 -1.0444  0.1812  0.4131
17968TIP3   OH275394   0.420   6.565  15.725  0.2407 -0.1275  0.1585
17968TIP3    H175395   0.426   6.533  15.814  1.2183 -0.2927  0.0398
17968TIP3    H275396   0.509   6.595  15.704 -0.0400  0.1571 -0.6572
17969TIP3   OH275397   5.262   5.974  14.143 -0.4605 -0.0452  0.3755
17969TIP3    H175398   5.186   6.030  14.130  0.2033  0.9755  0.7973
17969TIP3    H275399   5.250   5.936  14.230 -0.1929  0.5962  0.6970
17970TIP3   OH275400   3.822   5.313   5.246  0.3950  0.9491 -0.6587
17970TIP3    H175401   3.808   5.219   5.248 -0.3637  1.0760  0.7480
17970TIP3    H275402   3.913   5.324   5.221  0.3583 -0.1357 -1.3088
17971TIP3   OH275403   1.279   2.373   3.124 -0.0587 -0.1122  0.3434
17971TIP3    H175404   1.308   2.324   3.200 -0.9447 -0.2720  0.5751
17971TIP3    H275405   1.360   2.392   3.076  0.2811 -1.9254  0.1588
17972TIP3   OH275406   3.210   3.364  12.294  0.2729  0.1592  0.1842
17972TIP3    H175407   3.258   3.438  12.257 -1.4522  1.8767  1.2364
17972TIP3    H275408   3.185   3.311  12.218  3.2008 -0.4422 -0.4200
17973TIP3   OH275409   6.411   4.460   0.744  0.6801 -0.4151  0.2074
17973TIP3    H175410   6.407   4.365   0.758 -1.2469 -0.3292  0.4242
17973TIP3    H275411   6.321   4.490   0.757  0.9601  1.2316 -1.4243
17974TIP3   OH275412   1.773   2.326  17.265  0.1605 -0.2136 -0.3582
17974TIP3    H175413   1.834   2.377  17.318 -0.3943  1.5736 -1.4234
17974TIP3    H275414   1.827   2.256  17.228  0.9975 -0.2111  0.8183
17975TIP3   OH275415   4.383   6.257  10.781 -0.0308 -0.4782  0.0332
17975TIP3    H175416   4.347   6.187  10.727 -1.9546  0.9659 -0.6331
17975TIP3    H275417   4.419   6.320  10.719  0.8079 -0.3943  0.5893
17976TIP3   OH275418   5.059   2.564   5.557  0.4092 -0.3478  0.0502
17976TIP3    H175419   4.996   2.562   5.629  0.5553 -2.0257  0.1551
17976TIP3    H275420   5.061   2.655   5.529 -1.3044 -0.0918  0.7159
17977TIP3   OH275421   4.252   4.138  13.247 -0.6791  0.8833  0.3115
17977TIP3    H175422   4.188   4.203  13.276 -1.1404  0.6947 -0.2656
17977TIP3    H275423   4.210   4.054  13.266 -1.5914  0.7375 -2.1241
17978TIP3   OH275424   2.808   3.005   6.420  0.2942 -0.6003 -0.3236
17978TIP3    H175425   2.798   3.021   6.514  0.1087 -2.2974 -0.0280
17978TIP3    H275426   2.895   3.037   6.399 -0.4530  1.6795 -0.0075
17979TIP3   OH275427   3.798   0.058  13.868 -0.4105  0.4614  0.5155
17979TIP3    H175428   3.890   0.064  13.840  0.1997 -1.7065  1.8800
17979TIP3    H275429   3.749   0.045  13.786  0.8749 -1.5139  0.0093
17980TIP3   OH275430   1.698   1.962  16.108  0.1251  0.2160  0.0655
17980TIP3    H175431   1.721   1.925  16.022  0.3379  0.5903 -0.0397
17980TIP3    H275432   1.677   2.053  16.089 -2.1387 -0.2931  0.0497
17981TIP3   OH275433   0.177   1.243  13.909 -0.0720 -0.0487  0.0647
17981TIP3    H175434   0.131   1.271  13.830 -0.0534  0.9306  0.3858
17981TIP3    H275435   0.124   1.171  13.944 -1.4670  1.1696  0.5157
17982TIP3   OH275436   4.881   0.633  13.612  0.5231 -0.3367  0.0354
17982TIP3    H175437   4.943   0.676  13.670 -0.3639 -1.8316  2.1469
17982TIP3    H275438   4.935   0.600  13.540  1.8881  0.0692  0.8499
17983TIP3   OH275439   4.542   6.235  12.182  0.2820  0.2602 -0.5446
17983TIP3    H175440   4.598   6.295  12.230  2.0380  0.0959 -2.3128
17983TIP3    H275441   4.453   6.259  12.207  1.1305  0.3212  2.5664
17984TIP3   OH275442   2.499   4.522  15.489 -0.5783 -0.6024  0.1839
17984TIP3    H175443   2.525   4.613  15.474  1.0393 -0.7125  2.2060
17984TIP3    H275444   2.496   4.483  15.402  0.0440  1.0269 -0.5797
17985TIP3   OH275445   1.706   1.832  17.191  0.2657  0.2272  0.3462
17985TIP3    H175446   1.783   1.804  17.240 -0.4378  0.3283  1.5299
17985TIP3    H275447   1.669   1.751  17.156  2.5484  0.4160 -2.7844
17986TIP3   OH275448   2.778   0.161  12.650 -0.4328 -0.3423 -0.1531
17986TIP3    H175449   2.790   0.170  12.744 -0.3839  0.6379 -0.2478
17986TIP3    H275450   2.840   0.224  12.612 -0.3675 -0.8153 -0.8433
17987TIP3   OH275451   5.942   5.900  16.117  0.6020 -0.1335  0.2797
17987TIP3    H175452   6.011   5.947  16.071  0.7456 -1.2375 -0.6534
17987TIP3    H275453   5.978   5.813  16.132  0.5163  0.1662  2.4058
17988TIP3   OH275454   2.459   0.205  17.141 -0.3525 -0.2210  0.1510
17988TIP3    H175455   2.426   0.173  17.057 -0.7140  0.3606  0.0735
17988TIP3    H275456   2.541   0.250  17.119  1.6040 -3.3906  0.5817
17989TIP3   OH275457   1.077   4.114  12.907 -0.0674 -0.2910 -0.3658
17989TIP3    H175458   1.010   4.047  12.917  1.0317 -1.4384 -0.6732
17989TIP3    H275459   1.158   4.073  12.938  0.3959  1.2712  0.5694
17990TIP3   OH275460   2.917   1.378   1.308 -0.3212  0.0334  0.5506
17990TIP3    H175461   2.958   1.313   1.365  0.8602  1.4113  1.3064
17990TIP3    H275462   2.924   1.340   1.220 -1.5748 -1.8130  1.2236
17991TIP3   OH275463   2.856   1.342   3.824  0.4749  0.0258  0.1220
17991TIP3    H175464   2.929   1.292   3.861  0.8692 -0.4060 -1.2218
17991TIP3    H275465   2.853   1.315   3.732 -0.0097  1.6771 -0.3493
17992TIP3   OH275466   5.427   2.267  16.184  0.0755  0.4058  0.2872
17992TIP3    H175467   5.352   2.253  16.242 -1.7287  0.9254 -1.8442
17992TIP3    H275468   5.411   2.353  16.144  2.8670  1.4674  1.3122
17993TIP3   OH275469   1.502   2.611   3.587 -0.2279  0.1605  0.3483
17993TIP3    H175470   1.514   2.699   3.552 -0.3172 -0.1673 -0.5191
17993TIP3    H275471   1.581   2.563   3.561 -0.9942 -0.5198 -0.7703
17994TIP3   OH275472   3.640   4.356  16.254 -0.4626  0.0482  0.5221
17994TIP3    H175473   3.609   4.372  16.165  0.0027  0.1761  0.3813
17994TIP3    H275474   3.716   4.413  16.263 -0.7541  0.3404  1.1434
17995TIP3   OH275475   3.038   5.349   5.429 -0.3818 -0.1778  0.4822
17995TIP3    H175476   3.077   5.437   5.435 -1.6042  0.3434  0.8073
17995TIP3    H275477   3.072   5.315   5.346 -0.0711  0.6838  0.2377
17996TIP3   OH275478   2.478   1.983  13.548  0.5962 -0.6148 -0.3970
17996TIP3    H175479   2.382   1.992  13.548  0.2720 -3.0435  2.9019
17996TIP3    H275480   2.500   1.962  13.457 -2.1285 -1.2650 -0.9520
17997TIP3   OH275481   1.133   0.214  16.475  0.5071 -0.3477 -0.2614
17997TIP3    H175482   1.168   0.151  16.537  0.2531  0.8735  1.1558
17997TIP3    H275483   1.208   0.268  16.449 -0.0483  1.5623  1.9340
17998TIP3   OH275484   3.409   6.065  13.481 -0.0897 -0.3640  0.2298
17998TIP3    H175485   3.457   6.133  13.527  1.9191 -0.3844 -1.7235
17998TIP3    H275486   3.419   5.987  13.536  2.3459 -0.4092 -0.2093
17999TIP3   OH275487   4.094   1.513   2.783  0.1910 -0.3720 -0.3115
17999TIP3    H175488   4.006   1.544   2.761 -1.0344 -2.1762  1.7771
17999TIP3    H275489   4.133   1.586   2.832 -0.0848  0.4991 -1.3815
18000TIP3   OH275490   0.398   4.493  14.222  0.9532 -0.1019 -0.3138
18000TIP3    H175491   0.352   4.427  14.274  0.1390 -0.5861 -1.6087
18000TIP3    H275492   0.473   4.446  14.185  1.8483  0.3889  0.8785
18001TIP3   OH275493   5.969   1.730  15.251  0.3557  0.2199 -0.1996
18001TIP3    H175494   5.954   1.635  15.253  0.0026  0.3007  1.8832
18001TIP3    H275495   5.947   1.755  15.162  1.8988 -1.8845 -1.2288
18002TIP3   OH275496   4.702   5.830  14.207  0.0538  0.6958  0.3964
18002TIP3    H175497   4.657   5.915  14.211 -0.4343  0.4047  1.2796
18002TIP3    H275498   4.631   5.766  14.198  0.3647  0.3245  0.5941
18003TIP3   OH275499   1.886   4.525   2.481 -0.3990  0.7467 -0.4572
18003TIP3    H175500   1.848   4.437   2.486  0.7629  0.2887  0.4327
18003TIP3    H275501   1.974   4.516   2.517  0.2352  2.0047 -1.6365
18004TIP3   OH275502   0.927   0.613   5.459  0.2081 -0.5073 -0.0121
18004TIP3    H175503   0.942   0.668   5.383 -1.1551 -0.1355 -0.0343
18004TIP3    H275504   0.979   0.653   5.529 -0.1190  0.3198 -0.2409
18005TIP3   OH275505   1.029   0.763   3.703  0.0789 -0.0989  0.1760
18005TIP3    H175506   1.093   0.830   3.726 -3.7075  3.3017  1.3613
18005TIP3    H275507   1.022   0.769   3.607  1.2815 -0.2935  0.0693
18006TIP3   OH275508   3.724   1.386  15.122 -0.6401  0.4826  0.4722
18006TIP3    H175509   3.687   1.444  15.188 -1.3111  0.3897  0.1908
18006TIP3    H275510   3.741   1.304  15.168 -2.2616  0.0106  0.2721
18007TIP3   OH275511   1.407   3.360  12.014 -0.4773  0.1559 -0.3275
18007TIP3    H175512   1.463   3.285  11.997 -2.1686 -1.1914 -0.1541
18007TIP3    H275513   1.365   3.378  11.930 -2.9632 -1.5790  0.4667
18008TIP3   OH275514   4.673   0.973  16.641 -0.6227  0.0822  0.1868
18008TIP3    H175515   4.748   1.032  16.629 -0.2280 -0.1034  1.6761
18008TIP3    H275516   4.597   1.027  16.618  0.0397 -0.2475 -3.0658
18009TIP3   OH275517   5.684   1.178  15.744 -0.2143 -0.1289  0.0364
18009TIP3    H175518   5.624   1.233  15.694 -1.1872 -0.0296  1.2936
18009TIP3    H275519   5.705   1.106  15.685 -0.2543  0.7083 -1.0122
18010TIP3   OH275520   0.953   6.421  16.364  0.0049 -0.1336 -0.4502
18010TIP3    H175521   0.898   6.470  16.425 -1.3216 -0.6727 -1.1778
18010TIP3    H275522   1.034   6.404  16.412 -0.8444 -0.1801  0.9928
18011TIP3   OH275523   5.760   0.971  15.168  0.7434 -0.7884 -0.1129
18011TIP3    H175524   5.699   0.911  15.211 -1.5777  2.2696  1.0245
18011TIP3    H275525   5.781   0.927  15.086 -1.6455 -2.7601  0.2452
18012TIP3   OH275526   0.940   4.026   3.840 -0.1668 -0.4609 -0.2538
18012TIP3    H175527   1.036   4.024   3.836 -0.0366  0.8004  1.5164
18012TIP3    H275528   0.918   4.119   3.839 -1.3295 -0.7222  0.1732
18013TIP3   OH275529   1.076   4.306   3.639 -0.0467 -0.1345 -0.4980
18013TIP3    H175530   0.993   4.313   3.686  0.0122  0.5408 -0.4911
18013TIP3    H275531   1.123   4.387   3.660 -0.0082  0.1587 -1.6933
18014TIP3   OH275532   4.739   6.085  11.870 -0.4960 -0.2640 -0.1629
18014TIP3    H175533   4.726   6.061  11.962  2.6285 -0.1175  0.3648
18014TIP3    H275534   4.735   6.002  11.823  0.3413 -0.6358  0.4132
18015TIP3   OH275535   4.782   3.879  12.709  0.0924 -0.1054 -0.1353
18015TIP3    H175536   4.850   3.820  12.742  0.7015  0.2711 -0.7124
18015TIP3    H275537   4.762   3.936  12.784 -0.5311 -1.0679  0.4369
18016TIP3   OH275538   0.078   2.044  13.302 -0.0175  0.6299 -0.0281
18016TIP3    H175539   0.063   2.137  13.286 -0.4239  0.2010 -2.2387
18016TIP3    H275540   0.009   1.999  13.253  1.0549 -0.9046 -0.1760
18017TIP3   OH275541   1.254   4.633  16.587 -0.3256  0.1234 -0.0544
18017TIP3    H175542   1.333   4.636  16.533  0.0250 -0.3073  0.4311
18017TIP3    H275543   1.285   4.605  16.673 -0.8932  0.7513  0.3525
18018TIP3   OH275544   1.514   5.100   0.029  0.0408  0.3869 -0.3969
18018TIP3    H175545   1.524   5.148   0.111 -1.2515  2.0241 -1.1473
18018TIP3    H275546   1.552   5.014   0.046  3.2950  1.9384  0.7478
18019TIP3   OH275547   3.461   6.156   1.186 -0.0899  1.2200 -0.4056
18019TIP3    H175548   3.382   6.149   1.131 -0.8533  0.2272  0.7824
18019TIP3    H275549   3.428   6.148   1.275  1.5555 -1.2967  0.0317
18020TIP3   OH275550   2.565   0.205   1.919 -0.2986 -0.4781 -0.2652
18020TIP3    H175551   2.608   0.126   1.888  2.9913  1.1796 -0.0416
18020TIP3    H275552   2.507   0.231   1.847 -0.2831 -2.2038 -0.9291
18021TIP3   OH275553   0.203   6.506   1.169  0.6699 -0.4369  0.0562
18021TIP3    H175554   0.123   6.555   1.153 -0.5769 -2.2934  0.4408
18021TIP3    H275555   0.179   6.442   1.236  1.9160 -2.3465 -1.2751
18022TIP3   OH275556   4.000   1.446  15.642 -0.0952 -0.5003  0.5145
18022TIP3    H175557   3.917   1.400  15.651 -0.2692 -0.0698  1.1817
18022TIP3    H275558   3.993   1.520  15.702  0.3134  0.2010 -0.2843
18023TIP3   OH275559   3.899   2.192  15.814  0.2506  0.2726  0.2552
18023TIP3    H175560   3.886   2.136  15.738 -0.4499  0.2495  0.3911
18023TIP3    H275561   3.945   2.268  15.780  0.8223 -0.1808 -0.0094
18024TIP3   OH275562   0.208   4.009  13.768 -0.2696 -0.1825 -0.2573
18024TIP3    H175563   0.115   4.023  13.789  0.2310  3.0893  0.0125
18024TIP3    H275564   0.207   3.982  13.676 -1.5474 -1.0665 -0.0029
18025TIP3   OH275565   6.018   0.888   6.223  0.4903 -0.5434 -0.0862
18025TIP3    H175566   6.064   0.822   6.171 -0.0773 -0.4385 -0.7287
18025TIP3    H275567   5.979   0.838   6.295  1.0648 -0.7319  0.0911
18026TIP3   OH275568   6.031   3.570  11.706  0.6256  0.2428 -0.0011
18026TIP3    H175569   6.081   3.651  11.696 -1.3031  1.3641 -0.9101
18026TIP3    H275570   6.017   3.540  11.616 -3.1455  1.7740 -0.0439
18027TIP3   OH275571   0.192   3.257  13.054  0.2864 -0.1434 -0.3290
18027TIP3    H175572   0.275   3.276  13.096  0.1049 -1.3958  0.6330
18027TIP3    H275573   0.214   3.197  12.983  0.4712  1.2309 -1.4508
18028TIP3   OH275574   2.165   2.048   4.868  0.0870 -0.0515 -0.5338
18028TIP3    H175575   2.226   1.975   4.856  0.1429  0.0759 -1.0538
18028TIP3    H275576   2.139   2.043   4.960  0.0463 -0.7534 -0.5855
18029TIP3   OH275577   5.562   4.162   1.795  0.5480  0.2435 -0.0506
18029TIP3    H175578   5.604   4.238   1.833  0.6228  0.8569 -1.3543
18029TIP3    H275579   5.478   4.194   1.762  1.4725  0.2424 -2.5090
18030TIP3   OH275580   2.997   6.232  11.183  0.3959  0.1927 -0.0925
18030TIP3    H175581   3.063   6.179  11.139 -0.6199 -0.5443 -0.7453
18030TIP3    H275582   3.007   6.319  11.145  0.0361 -0.2574 -1.2495
18031TIP3   OH275583   3.339   0.105   0.840 -0.0860  0.2200 -0.0364
18031TIP3    H175584   3.402   0.112   0.911 -0.8341 -0.8613  0.7588
18031TIP3    H275585   3.315   0.195   0.819 -1.8877  0.4600  2.9146
18032TIP3   OH275586   2.327   4.715  17.029 -0.3483 -0.0132  0.1846
18032TIP3    H175587   2.279   4.633  17.041  2.5391 -1.8230 -0.1749
18032TIP3    H275588   2.343   4.747  17.117 -2.4899  0.8111  0.3011
18033TIP3   OH275589   1.394   6.402   3.278  0.4056  0.2713  0.1356
18033TIP3    H175590   1.459   6.340   3.311  0.9464 -0.1796 -1.7171
18033TIP3    H275591   1.396   6.391   3.183 -1.3027  1.3389 -0.0520
18034TIP3   OH275592   0.494   3.202   0.753  0.5717 -0.2624 -0.1934
18034TIP3    H175593   0.487   3.296   0.739 -0.6984 -0.3693 -0.3002
18034TIP3    H275594   0.530   3.168   0.671  0.9455  0.1136 -0.1864
18035TIP3   OH275595   4.713   2.511   3.627  0.6724  0.1500 -0.1936
18035TIP3    H175596   4.719   2.605   3.612  2.9630  0.1878  0.6694
18035TIP3    H275597   4.789   2.475   3.583  0.7798 -1.0833  0.9619
18036TIP3   OH275598   1.033   3.715   3.694  0.4542  0.3838 -0.1515
18036TIP3    H175599   0.989   3.768   3.627 -2.5156 -1.7334  0.0107
18036TIP3    H275600   0.962   3.668   3.737  2.5853 -0.3292  2.7257
18037TIP3   OH275601   5.847   0.153   2.828  0.0257 -0.0430 -0.1598
18037TIP3    H175602   5.759   0.184   2.805 -0.5812 -1.1883  0.5491
18037TIP3    H275603   5.903   0.229   2.817 -1.5079  1.4502  2.0089
18038TIP3   OH275604   0.560   6.558   5.317  0.0304 -0.8412  0.1960
18038TIP3    H175605   0.563   6.493   5.387 -0.5540 -0.2984  0.7277
18038TIP3    H275606   0.636   6.613   5.333 -0.3137 -0.4901  0.6259
18039TIP3   OH275607   5.830   0.550   1.565 -0.2662  0.0106  0.3893
18039TIP3    H175608   5.858   0.484   1.629 -1.7696 -0.1099  0.9451
18039TIP3    H275609   5.850   0.633   1.608 -3.7234 -0.0210  2.2310
18040TIP3   OH275610   2.508   6.342  13.533  0.4232  0.1561 -0.0372
18040TIP3    H175611   2.599   6.329  13.505 -0.0309  1.0595 -2.0107
18040TIP3    H275612   2.513   6.346  13.629  2.5376  0.6990 -0.1484
18041TIP3   OH275613   2.322   4.910  13.487  0.5071  0.4905  0.3569
18041TIP3    H175614   2.364   4.877  13.408  3.1363  1.1842  1.3991
18041TIP3    H275615   2.269   4.984  13.457  2.6625  1.6966 -0.5915
18042TIP3   OH275616   4.391   0.370  10.698 -0.2377  0.6132  0.2015
18042TIP3    H175617   4.438   0.452  10.715 -2.3204  2.1958 -1.3288
18042TIP3    H275618   4.328   0.393  10.629 -2.2580 -1.7790  1.1797
18043TIP3   OH275619   0.394   5.237   2.003  0.0790 -0.2144 -0.3088
18043TIP3    H175620   0.390   5.180   1.926  0.4151 -0.0066 -0.4807
18043TIP3    H275621   0.430   5.182   2.072  1.3865  0.0727 -0.7411
18044TIP3   OH275622   2.557   4.502  12.899  0.0607 -0.6604  0.9784
18044TIP3    H175623   2.606   4.441  12.843  0.1992 -0.9009  1.3536
18044TIP3    H275624   2.586   4.480  12.988 -0.7966 -0.8545  1.2065
18045TIP3   OH275625   1.313   1.016   2.428 -0.0547  0.2427 -0.4052
18045TIP3    H175626   1.236   1.036   2.481 -0.7651 -1.7545 -0.6342
18045TIP3    H275627   1.384   1.002   2.492 -0.6049 -0.8760 -0.0235
18046TIP3   OH275628   1.029   4.616  13.172  0.6490 -0.5391 -0.6160
18046TIP3    H175629   1.037   4.531  13.130  0.2153 -1.4763  1.1796
18046TIP3    H275630   1.037   4.679  13.100 -0.6142 -2.1214 -2.1738
18047TIP3   OH275631   3.711   4.433   0.491  0.0381 -0.7306 -0.1860
18047TIP3    H175632   3.801   4.446   0.522  0.3654 -1.5475 -0.7584
18047TIP3    H275633   3.702   4.494   0.418  0.8703 -2.1756 -1.5309
18048TIP3   OH275634   1.962   5.482   2.175  0.6575 -0.5049 -0.5276
18048TIP3    H175635   1.886   5.477   2.118 -0.7934 -1.1007  1.3943
18048TIP3    H275636   2.009   5.400   2.160  1.6704  0.4503 -2.7018
18049TIP3   OH275637   1.579   1.932   4.339 -0.1209  0.2030 -0.0840
18049TIP3    H175638   1.594   1.905   4.248  1.5005 -0.7934  0.4610
18049TIP3    H275639   1.646   1.887   4.389 -0.4784  1.4010  1.5232
18050TIP3   OH275640   0.928   1.370  12.660  0.3383  0.2342 -0.3361
18050TIP3    H175641   0.912   1.461  12.636 -0.8503  0.2279  0.3880
18050TIP3    H275642   0.857   1.348  12.719  0.6914 -1.1340 -0.3994
18051TIP3   OH275643   6.289   1.316   2.274 -0.1160  0.3779 -0.1859
18051TIP3    H175644   6.252   1.388   2.222 -0.9280  0.2210  0.1754
18051TIP3    H275645   6.260   1.237   2.229 -0.7413  0.2422  0.4530
18052TIP3   OH275646   5.797   0.642  11.828 -0.0610 -0.6413  0.4433
18052TIP3    H175647   5.780   0.658  11.735 -1.1301  1.5116  0.9879
18052TIP3    H275648   5.820   0.549  11.832 -0.2089 -0.8189 -1.9356
18053TIP3   OH275649   0.311   0.049  16.140  0.6250  0.0196 -0.1485
18053TIP3    H175650   0.355   0.130  16.167  1.2981 -0.7582  1.1375
18053TIP3    H275651   0.235   0.043  16.198 -0.3573  0.5947 -1.3719
18054TIP3   OH275652   1.272   4.374   0.389 -0.0013 -0.5816  0.1642
18054TIP3    H175653   1.182   4.396   0.414  0.0836 -0.1605  0.1013
18054TIP3    H275654   1.278   4.399   0.297  0.8163  1.4122  0.7239
18055TIP3   OH275655   1.330   3.634  13.018  0.3514  0.5313  0.0230
18055TIP3    H175656   1.349   3.545  13.048  2.6871  1.1952  0.6515
18055TIP3    H275657   1.309   3.624  12.925  0.2608 -0.7281  0.1778
18056TIP3   OH275658   3.544   0.528   5.420  0.9612 -0.3855  0.2512
18056TIP3    H175659   3.531   0.439   5.387 -3.0617  0.6276 -1.1614
18056TIP3    H275660   3.527   0.522   5.514 -0.8098 -0.8800 -0.0847
18057TIP3   OH275661   1.345   6.539   2.933  0.0819  0.0019 -0.0755
18057TIP3    H175662   1.255   6.529   2.965 -0.0903  1.5314 -0.0519
18057TIP3    H275663   1.387   6.455   2.954 -1.0002 -0.2850  1.0262
18058TIP3   OH275664   0.209   3.851  16.869  0.2771  0.0499  0.6834
18058TIP3    H175665   0.127   3.887  16.905 -0.7735  0.2051 -1.7749
18058TIP3    H275666   0.214   3.888  16.781  0.5157 -3.7043 -0.9615
18059TIP3   OH275667   0.258   5.468   4.169 -0.4978  0.2664  0.2643
18059TIP3    H175668   0.245   5.538   4.233  2.1041  1.2899 -0.2650
18059TIP3    H275669   0.317   5.407   4.213 -0.7214 -0.3107 -0.2358
18060TIP3   OH275670   5.107   3.413  13.837  0.0270  1.0381  0.8930
18060TIP3    H175671   5.051   3.380  13.908  0.7610  0.8204  1.3780
18060TIP3    H275672   5.088   3.356  13.763 -1.5775  1.9614  0.5683
18061TIP3   OH275673   4.293   0.607  16.687  0.0525 -0.0859  0.2040
18061TIP3    H175674   4.352   0.637  16.619 -0.0702  0.4243  0.3153
18061TIP3    H275675   4.260   0.687  16.727  0.2411 -0.3826  0.9627
18062TIP3   OH275676   2.929   1.709  15.519 -0.2154 -0.7619 -0.0122
18062TIP3    H175677   2.850   1.664  15.490 -1.2075  2.2292 -2.3130
18062TIP3    H275678   2.905   1.802  15.515  2.9538  0.1332  0.7454
18063TIP3   OH275679   5.162   3.565  11.310  0.2305 -0.0555  0.1207
18063TIP3    H175680   5.202   3.637  11.359  0.3276 -0.2332  0.3035
18063TIP3    H275681   5.113   3.608  11.240  0.6438  0.1729 -0.0340
18064TIP3   OH275682   1.500   2.713   1.333  0.1568 -0.1950  0.3084
18064TIP3    H175683   1.483   2.790   1.386  0.2137 -2.8900  4.5088
18064TIP3    H275684   1.561   2.743   1.266 -2.1587  4.0211 -0.0644
18065TIP3   OH275685   2.341   0.958   3.876 -0.3382  0.1157  0.5957
18065TIP3    H175686   2.302   1.009   3.805 -0.0415 -1.1910 -0.5169
18065TIP3    H275687   2.350   1.021   3.948  2.2022  2.2882 -1.5014
18066TIP3   OH275688   1.575   1.733   1.064  0.2492 -0.0781 -0.1235
18066TIP3    H175689   1.557   1.644   1.034 -2.7979  1.0266 -1.7189
18066TIP3    H275690   1.568   1.787   0.986 -1.3504  2.0153  1.4008
18067TIP3   OH275691   2.990   2.266   2.753  0.3847  0.1244  0.2515
18067TIP3    H175692   3.013   2.321   2.678 -1.6482  2.3500  1.1738
18067TIP3    H275693   3.037   2.305   2.827 -0.7902  0.4442  0.8503
18068TIP3   OH275694   2.904   1.431   0.772 -0.0308  0.5196  0.4759
18068TIP3    H175695   2.913   1.345   0.731 -0.5127  0.3357  0.7510
18068TIP3    H275696   2.835   1.475   0.722  0.9274  1.1420 -0.3189
18069TIP3   OH275697   4.853   6.112   3.137  0.0502  0.3572 -0.1429
18069TIP3    H175698   4.861   6.018   3.154  0.4738  0.2700 -0.8077
18069TIP3    H275699   4.772   6.138   3.182 -0.4374 -0.4624 -0.5381
18070TIP3   OH275700   3.256   6.566  12.406 -0.6911 -0.3260 -0.0368
18070TIP3    H175701   3.194   6.493  12.411 -1.2591 -0.1418 -3.3785
18070TIP3    H275702   3.307   6.549  12.327  0.8052  1.6714  0.4528
18071TIP3   OH275703   1.613   1.242   6.900  0.0642  0.2746 -0.2000
18071TIP3    H175704   1.535   1.213   6.852  0.1700 -1.7090  0.7884
18071TIP3    H275705   1.619   1.182   6.974  1.9197  1.1033  0.3468
18072TIP3   OH275706   2.799   5.799   3.157 -0.2688 -0.7661 -0.2520
18072TIP3    H175707   2.743   5.876   3.163  0.0386 -0.5355 -0.3430
18072TIP3    H275708   2.739   5.728   3.130 -0.6752 -0.7128  0.5014
18073TIP3   OH275709   4.991   1.144  11.554 -0.7088  0.4313 -0.0292
18073TIP3    H175710   4.981   1.082  11.626 -0.4119 -0.9852 -1.1778
18073TIP3    H275711   4.936   1.108  11.484 -0.6290  1.5294 -0.6623
18074TIP3   OH275712   5.295   6.810   0.350  0.3673 -0.6482 -0.4373
18074TIP3    H175713   5.305   6.848   0.437  0.2223 -1.1592 -0.1943
18074TIP3    H275714   5.337   6.724   0.356 -0.3196 -1.0096 -0.6413
18075TIP3   OH275715   3.967   2.894   4.410  0.4199 -0.2471  0.0063
18075TIP3    H175716   4.016   2.871   4.331  0.0627 -2.0690  0.2852
18075TIP3    H275717   3.886   2.933   4.378  0.0708 -1.4049 -0.5670
18076TIP3   OH275718   6.749   5.126   0.441 -0.1658 -0.0119 -0.0206
18076TIP3    H175719   6.754   5.205   0.495 -1.3978 -0.1612  0.3400
18076TIP3    H275720   6.673   5.140   0.385  0.8058 -0.0788 -1.3908
18077TIP3   OH275721   1.520   5.953  15.888 -0.0682  0.1730 -0.6743
18077TIP3    H175722   1.576   5.916  15.957 -2.1468  2.2709  2.2718
18077TIP3    H275723   1.497   6.040  15.920 -3.4278  0.1169 -2.6790
18078TIP3   OH275724   0.654   4.694  11.165  0.0334  0.2033 -0.3034
18078TIP3    H175725   0.561   4.687  11.188  0.3851 -0.5569  0.9345
18078TIP3    H275726   0.689   4.607  11.181  0.7258  0.1847 -1.8736
18079TIP3   OH275727   1.950   6.513   6.733 -0.3778  0.3527  0.0096
18079TIP3    H175728   1.895   6.591   6.726 -0.9670 -0.0545  0.1335
18079TIP3    H275729   1.998   6.525   6.815 -0.6009  0.4982  0.1183
18080TIP3   OH275730   5.071   0.312  11.301 -0.0966  0.6382  0.0404
18080TIP3    H175731   5.076   0.320  11.206 -0.4655  0.7787  0.0314
18080TIP3    H275732   5.018   0.387  11.329  0.5950  0.9926  0.4217
18081TIP3   OH275733   2.435   2.894  13.803 -0.1511  0.0380  0.1125
18081TIP3    H175734   2.381   2.859  13.732 -1.3503 -0.8955  1.4698
18081TIP3    H275735   2.470   2.817  13.847  0.6494  0.6168  0.4977
18082TIP3   OH275736   0.545   0.824  11.033  0.4721 -0.2109 -0.1034
18082TIP3    H175737   0.485   0.870  11.092  1.0801 -0.7094  0.9262
18082TIP3    H275738   0.600   0.893  10.996 -0.4581  0.2005 -0.7401
18083TIP3   OH275739   3.894   2.536  13.730 -0.1991  0.3379 -0.4418
18083TIP3    H175740   3.971   2.577  13.691  0.6218  0.4618  1.2763
18083TIP3    H275741   3.908   2.542  13.824 -1.7222 -0.7641 -0.1179
18084TIP3   OH275742   6.482   2.674   5.135  0.5269  0.0636  0.1445
18084TIP3    H175743   6.549   2.674   5.203  1.4032  1.1130 -0.7104
18084TIP3    H275744   6.424   2.602   5.159  3.2696 -2.4194 -0.4326
18085TIP3   OH275745   0.703   2.560   4.883 -0.5941  0.1260  1.0052
18085TIP3    H175746   0.783   2.592   4.842  0.3418 -2.7531  0.5153
18085TIP3    H275747   0.640   2.633   4.873  0.8734  1.0679 -1.7368
18086TIP3   OH275748   4.006   1.439   3.740 -0.3157 -0.0042 -0.2553
18086TIP3    H175749   3.922   1.431   3.785  0.5611 -1.0757  1.2469
18086TIP3    H275750   4.025   1.351   3.709  0.1837  0.2624 -0.7069
18087TIP3   OH275751   0.387   2.638   1.239  0.6726 -0.0079 -0.4322
18087TIP3    H175752   0.426   2.720   1.208 -0.4334  0.1129 -1.5388
18087TIP3    H275753   0.414   2.573   1.175 -1.5187  0.2135 -1.6273
18088TIP3   OH275754   6.217   6.323   0.762 -0.2930  0.6036  0.1886
18088TIP3    H175755   6.204   6.234   0.795  2.0973  0.4046  0.6983
18088TIP3    H275756   6.302   6.320   0.718 -0.6576  2.3871 -0.6642
18089TIP3   OH275757   5.430   0.680   4.688  0.0996  0.1269 -0.5125
18089TIP3    H175758   5.456   0.645   4.603  1.3570 -0.7582  0.2330
18089TIP3    H275759   5.492   0.643   4.750  0.1765  2.0140  0.5884
18090TIP3   OH275760   0.272   6.724   0.054  0.1923  0.3356 -0.1735
18090TIP3    H175761   0.299   6.747  -0.034  0.7942  1.4493  0.2946
18090TIP3    H275762   0.236   6.805   0.090 -0.5398 -0.2459  0.4188
18091TIP3   OH275763   4.264   3.485   0.040  0.6787  0.1166  0.4354
18091TIP3    H175764   4.190   3.526   0.085  0.4579  0.1166  0.0751
18091TIP3    H275765   4.321   3.455   0.111  0.6944  0.7713  0.7067
18092TIP3   OH275766   2.264   3.770  15.485  0.0962 -0.0157 -0.0344
18092TIP3    H175767   2.303   3.839  15.539 -0.4212 -0.7443  1.2978
18092TIP3    H275768   2.314   3.691  15.507 -1.0435 -0.6116  0.4350
18093TIP3   OH275769   0.192   0.861  12.095  0.1405  0.2084  0.6670
18093TIP3    H175770   0.231   0.803  12.160 -2.2184 -1.9786  0.1936
18093TIP3    H275771   0.111   0.893  12.137  0.6216  1.9456  0.3219
18094TIP3   OH275772   5.287   2.743  13.635  0.5739  0.5183  0.3502
18094TIP3    H175773   5.240   2.674  13.681 -2.8291  1.9431 -0.8510
18094TIP3    H275774   5.329   2.699  13.561 -0.9561 -0.3904  0.0128
18095TIP3   OH275775   4.233   0.704   2.746  0.0843  0.6188  0.0808
18095TIP3    H175776   4.303   0.729   2.806  0.9711  1.0797 -1.1247
18095TIP3    H275777   4.222   0.609   2.759 -0.6233  0.9337  1.8729
18096TIP3   OH275778   6.774   2.344  17.292 -0.1823  0.3630  0.6753
18096TIP3    H175779   6.705   2.312  17.350 -0.0271  0.6404  1.0197
18096TIP3    H275780   6.826   2.267  17.271 -1.4507 -0.1332 -0.7749
18097TIP3   OH275781   1.247   2.300   0.586 -0.3963 -0.7721  0.5128
18097TIP3    H175782   1.206   2.379   0.551  1.4524  0.3015  0.6596
18097TIP3    H275783   1.212   2.291   0.674 -1.0510 -0.4352  0.2868
18098TIP3   OH275784   1.473   5.137   2.001  0.1323  0.1175 -0.5346
18098TIP3    H175785   1.568   5.132   2.009  0.2058  1.7031 -0.2462
18098TIP3    H275786   1.443   5.048   2.016  1.4235  0.0102  1.6457
18099TIP3   OH275787   5.941   0.453   2.277  0.2685  0.3735 -0.1470
18099TIP3    H175788   5.900   0.403   2.348 -0.8207  0.7912 -0.4671
18099TIP3    H275789   5.900   0.419   2.197 -0.3618  1.6379 -0.3849
18100TIP3   OH275790   2.632   5.621   3.017 -0.6083 -0.0870 -0.4506
18100TIP3    H175791   2.605   5.535   3.049 -2.3083  0.6327  0.1316
18100TIP3    H275792   2.624   5.616   2.922  0.7073 -1.0085 -0.5331
18101TIP3   OH275793   0.947   1.806   5.488  0.0595  0.0584  0.1382
18101TIP3    H175794   0.919   1.772   5.403 -3.4092  0.8495  0.8732
18101TIP3    H275795   0.970   1.728   5.538 -0.3072 -0.6191 -0.7329
18102TIP3   OH275796   5.562   1.013  16.854 -0.9586  0.5072 -0.0183
18102TIP3    H175797   5.529   1.029  16.766  0.9662  0.8397 -0.7034
18102TIP3    H275798   5.502   0.949  16.891 -1.3331 -0.2308 -1.8568
18103TIP3   OH275799   5.871   5.861   3.576  0.7633  0.3055  0.4276
18103TIP3    H175800   5.830   5.860   3.662  0.4320  1.6117  0.3040
18103TIP3    H275801   5.926   5.940   3.576  0.6379  0.4093 -0.6037
18104TIP3   OH275802   6.577   2.689   2.622 -0.0413 -0.0298 -0.2383
18104TIP3    H175803   6.600   2.603   2.587 -0.1250 -0.3070  0.3842
18104TIP3    H275804   6.658   2.740   2.617  1.1312 -1.3822  3.1274
18105TIP3   OH275805   1.842   0.165  10.769 -0.0463  0.1905 -0.2198
18105TIP3    H175806   1.914   0.228  10.762  0.0420 -0.0543 -1.6030
18105TIP3    H275807   1.882   0.080  10.752 -0.3540 -0.1323  0.6480
18106TIP3   OH275808   0.981   2.478  14.315 -0.7105 -0.2966 -0.2298
18106TIP3    H175809   1.070   2.506  14.340 -0.4497  0.1324 -1.6116
18106TIP3    H275810   0.939   2.457  14.399  1.1320 -1.8485  0.3578
18107TIP3   OH275811   0.716   6.645  10.466  0.4209  0.3521  0.0022
18107TIP3    H175812   0.780   6.712  10.440  0.4305  0.4968  0.3909
18107TIP3    H275813   0.676   6.680  10.545  0.3718 -0.0706  0.1662
18108TIP3   OH275814   4.226   1.981  16.820 -0.2184  0.6780 -0.6208
18108TIP3    H175815   4.286   2.005  16.890 -1.0604  2.9655 -0.6307
18108TIP3    H275816   4.149   1.946  16.865  1.0393 -2.1681 -0.6068
18109TIP3   OH275817   2.708   1.347   4.425 -0.3039  0.3676  0.7161
18109TIP3    H175818   2.613   1.349   4.441  0.0319  0.2848  2.8826
18109TIP3    H275819   2.746   1.390   4.502  1.5419 -1.5795  0.9311
18110TIP3   OH275820   0.179   4.326   3.306  0.9080 -0.3653  0.8058
18110TIP3    H175821   0.135   4.379   3.373  1.5199 -0.3644  1.2093
18110TIP3    H275822   0.211   4.390   3.243  1.1186 -0.2924  0.9830
18111TIP3   OH275823   0.407   6.267   2.922 -0.1395  0.3695  0.1990
18111TIP3    H175824   0.345   6.328   2.961 -1.6370 -0.2692 -1.1377
18111TIP3    H275825   0.438   6.312   2.843 -0.8977 -0.4103 -0.5427
18112TIP3   OH275826   6.685   0.552   1.859  0.0014 -0.1692 -0.6190
18112TIP3    H175827   6.688   0.505   1.776 -0.2353 -0.0892 -0.6738
18112TIP3    H275828   6.703   0.486   1.925  0.3016 -0.2114 -0.7437
18113TIP3   OH275829   3.147   3.294  11.995  0.4147 -0.1535  0.5369
18113TIP3    H175830   3.167   3.278  11.902  0.0606 -1.1207  0.6268
18113TIP3    H275831   3.073   3.236  12.014  0.1073  0.4711  1.2744
18114TIP3   OH275832   4.610   6.250  11.700 -0.7566  0.1449  0.0331
18114TIP3    H175833   4.566   6.317  11.752 -1.9288  0.1354 -0.9138
18114TIP3    H275834   4.650   6.192  11.765 -0.6105  1.1790  0.8774
18115TIP3   OH275835   0.463   2.980  11.119  0.4792  0.6063  0.6601
18115TIP3    H175836   0.441   2.906  11.062  0.3501  2.2103 -1.4489
18115TIP3    H275837   0.386   2.991  11.174 -0.6165  0.8655 -0.8902
18116TIP3   OH275838   6.802   4.370  10.383  0.0971 -0.5752 -0.2537
18116TIP3    H175839   6.808   4.459  10.419  1.0262 -0.6795 -0.1363
18116TIP3    H275840   6.718   4.368  10.338 -0.2602  0.1402  0.3675
18117TIP3   OH275841   1.680   0.173   4.743  0.0485 -0.0585 -0.0454
18117TIP3    H175842   1.747   0.184   4.810 -0.9587 -3.0750  1.5327
18117TIP3    H275843   1.597   0.188   4.789 -0.5645 -0.3535 -1.0202
18118TIP3   OH275844   5.379   1.932  15.769 -0.0607  0.0432  0.1193
18118TIP3    H175845   5.287   1.932  15.795 -0.6616 -0.6680 -1.9368
18118TIP3    H275846   5.418   2.005  15.817 -2.1792  1.7425 -0.6692
18119TIP3   OH275847   6.244   1.181   2.762  0.0218 -0.3352  1.0217
18119TIP3    H175848   6.186   1.106   2.774 -0.1082 -0.4492 -0.2445
18119TIP3    H275849   6.188   1.258   2.777 -0.8990 -0.3963 -1.7948
18120TIP3   OH275850   2.761   1.584  16.318  0.6642  0.4740 -0.0292
18120TIP3    H175851   2.725   1.667  16.286 -0.9952 -0.4020 -0.4692
18120TIP3    H275852   2.688   1.544  16.366  1.9947  0.0821  1.7251
18121TIP3   OH275853   1.822   0.819  11.945  0.6001 -0.7466  0.3423
18121TIP3    H175854   1.857   0.834  11.857 -0.4758  0.8516  0.1618
18121TIP3    H275855   1.729   0.801  11.931  0.6029 -1.3581  1.0924
18122TIP3   OH275856   4.313   3.507   4.374  0.3028  0.0236  0.2399
18122TIP3    H175857   4.253   3.439   4.404  0.9675 -0.1321  1.2285
18122TIP3    H275858   4.257   3.569   4.327 -0.1817 -1.6941 -1.5204
18123TIP3   OH275859   3.233   2.417  13.553  0.3890  0.1380  0.0814
18123TIP3    H175860   3.187   2.356  13.495 -0.2829  1.4186 -0.7499
18123TIP3    H275861   3.290   2.467  13.495 -0.6975  1.8114  0.4051
18124TIP3   OH275862   4.516   3.099  15.822  0.0688  0.2244 -0.1689
18124TIP3    H175863   4.575   3.074  15.751 -0.0596 -1.1824  0.2004
18124TIP3    H275864   4.433   3.058  15.798 -0.7036  1.9572 -0.5433
18125TIP3   OH275865   1.617   4.652  14.697  0.2544  0.3500 -0.4558
18125TIP3    H175866   1.598   4.564  14.730 -0.2800  1.3786  2.1392
18125TIP3    H275867   1.699   4.643  14.649  0.5078 -1.4496  0.2880
18126TIP3   OH275868   6.315   4.112  13.531 -0.3326  0.0853  0.7672
18126TIP3    H175869   6.221   4.129  13.536  0.0102  1.8270  1.3702
18126TIP3    H275870   6.342   4.149  13.447  0.1016  0.9519  1.2940
18127TIP3   OH275871   0.861   0.948   6.919 -0.5571  0.0462 -0.0029
18127TIP3    H175872   0.787   0.905   6.962 -0.6320 -0.4750 -0.6482
18127TIP3    H275873   0.911   0.876   6.879  1.1316  0.2299  1.6860
18128TIP3   OH275874   0.265   6.804  13.880  0.1099  0.0442 -0.5799
18128TIP3    H175875   0.331   6.852  13.929 -0.5018 -1.4426  1.7771
18128TIP3    H275876   0.283   6.712  13.900 -2.9867 -0.3604  0.5321
18129TIP3   OH275877   4.855   2.564   0.557  0.0840 -0.5297  0.3788
18129TIP3    H175878   4.875   2.551   0.649  1.0403  0.9775  0.3905
18129TIP3    H275879   4.940   2.581   0.516 -0.3855 -0.7489 -0.7074
18130TIP3   OH275880   4.301   5.522   1.933  0.1285  0.0664 -0.1139
18130TIP3    H175881   4.371   5.507   1.870  1.7530 -0.2751  1.7449
18130TIP3    H275882   4.319   5.608   1.970 -1.9168  1.1317 -1.4370
18131TIP3   OH275883   5.426   2.011  13.224 -0.0288 -0.3468  0.0235
18131TIP3    H175884   5.459   2.004  13.313  0.5549  1.1437 -0.0635
18131TIP3    H275885   5.401   2.103  13.214 -0.0259 -0.4810 -1.3708
18132TIP3   OH275886   5.816   3.833  13.278 -0.3142  0.6694 -0.4619
18132TIP3    H175887   5.867   3.823  13.197 -0.8113  2.7640 -1.0770
18132TIP3    H275888   5.733   3.871  13.248 -1.1578 -0.1177  0.8558
18133TIP3   OH275889   5.292   1.694   1.980  0.3963  0.4952  0.1106
18133TIP3    H175890   5.271   1.621   2.038 -1.0873  0.6389 -0.2279
18133TIP3    H275891   5.213   1.748   1.979  0.8427  1.1563 -1.0517
18134TIP3   OH275892   2.749   3.091   6.694  0.2325  0.0110  0.3091
18134TIP3    H175893   2.780   3.051   6.775 -0.9410  0.1568  0.8448
18134TIP3    H275894   2.655   3.070   6.692  0.4936 -1.0805 -1.6509
18135TIP3   OH275895   2.185   0.125   2.888 -0.1981  0.2726 -0.0929
18135TIP3    H175896   2.250   0.191   2.867 -0.6010  0.2741 -1.3677
18135TIP3    H275897   2.236   0.045   2.901  0.0265  0.1757 -1.5189
18136TIP3   OH275898   6.555   3.022  16.902 -0.8867 -0.1951 -0.3494
18136TIP3    H175899   6.536   3.005  16.995  0.7560 -2.1483 -0.3177
18136TIP3    H275900   6.617   3.095  16.904 -0.3283 -0.6765  0.1328
18137TIP3   OH275901   2.002   6.202  16.728 -0.0102 -0.6094  0.8889
18137TIP3    H175902   1.921   6.156  16.704 -0.9901  1.2270  0.5823
18137TIP3    H275903   2.067   6.168  16.667 -1.2871  0.1799 -0.9542
18138TIP3   OH275904   4.542   4.513   1.962 -0.0383 -0.3355 -0.6079
18138TIP3    H175905   4.634   4.487   1.952 -0.3870 -2.0468  0.5834
18138TIP3    H275906   4.495   4.456   1.901 -0.5848 -1.1835  0.5999
18139TIP3   OH275907   6.286   4.285  11.771  0.1547 -0.0164  0.7093
18139TIP3    H175908   6.369   4.289  11.723  0.1428  0.5161  0.7291
18139TIP3    H275909   6.308   4.315  11.859 -0.2849  1.2383  0.4056
18140TIP3   OH275910   6.291   4.962   0.228 -0.1265 -0.6142 -0.1475
18140TIP3    H175911   6.246   4.986   0.309 -1.0223  0.4557 -0.9327
18140TIP3    H275912   6.356   4.897   0.254 -0.5185 -0.4029  1.3957
18141TIP3   OH275913   2.058   4.077   3.408 -0.0617  0.0385 -0.4135
18141TIP3    H175914   2.010   4.077   3.491 -1.1806  0.4631 -1.0394
18141TIP3    H275915   2.141   4.120   3.428  0.7005 -2.0008  1.0384
18142TIP3   OH275916   2.579   0.634  13.000 -0.3877 -0.6456 -0.4454
18142TIP3    H175917   2.606   0.644  12.908 -0.0092  0.9044 -0.1846
18142TIP3    H275918   2.570   0.540  13.012 -0.1295 -0.8899 -1.9920
18143TIP3   OH275919   5.989   3.328   0.474 -0.2705  0.2827  0.1056
18143TIP3    H175920   6.060   3.382   0.508 -0.1809 -0.0022  0.3716
18143TIP3    H275921   6.032   3.248   0.444 -0.2587  0.7987 -1.2998
18144TIP3   OH275922   4.438   1.774   6.233 -0.3429  0.0683 -0.7967
18144TIP3    H175923   4.402   1.729   6.156 -1.6708  0.6580 -0.5272
18144TIP3    H275924   4.431   1.709   6.303 -1.8080  0.5275 -0.5190
18145TIP3   OH275925   6.119   4.357   1.034 -0.4027  0.1429  0.0910
18145TIP3    H175926   6.039   4.405   1.055  0.2328  0.4748  1.8391
18145TIP3    H275927   6.103   4.321   0.946 -2.0647  1.0269  0.0089
18146TIP3   OH275928   1.034   5.914  14.496 -0.4331  0.5327  0.1243
18146TIP3    H175929   1.045   5.821  14.516  0.1944  0.5052 -0.3181
18146TIP3    H275930   1.071   5.923  14.408 -0.7196  1.1555  0.0702
18147TIP3   OH275931   4.506   6.012  14.196 -0.4989  0.5534 -0.2374
18147TIP3    H175932   4.428   6.009  14.140 -1.0332 -1.5903  0.5871
18147TIP3    H275933   4.473   5.997  14.284  0.6346  1.5281  0.3603
18148TIP3   OH275934   6.309   4.632  17.289  0.0921  0.3999 -0.0952
18148TIP3    H175935   6.323   4.645  17.383  0.4500  0.0349 -0.0906
18148TIP3    H275936   6.235   4.572  17.283 -1.3307  2.1362 -0.1089
18149TIP3   OH275937   5.384   0.779  12.173 -0.1852 -0.6339 -0.4580
18149TIP3    H175938   5.351   0.771  12.084  0.7586 -1.2419 -0.7651
18149TIP3    H275939   5.354   0.865  12.203 -0.4391 -0.3985 -1.3881
18150TIP3   OH275940   0.742   2.672   5.559  0.6547  0.2462 -0.2132
18150TIP3    H175941   0.800   2.733   5.604  0.8320  0.5742 -0.8717
18150TIP3    H275942   0.721   2.716   5.476 -2.7800  1.3930  1.1725
18151TIP3   OH275943   6.500   6.376  11.518 -0.7034 -0.3426  0.5990
18151TIP3    H175944   6.519   6.337  11.432 -0.4994 -0.2930  0.6201
18151TIP3    H275945   6.517   6.469  11.506  1.6151 -0.6366  1.3258
18152TIP3   OH275946   1.297   2.324  15.877 -0.3967  0.6506  0.1059
18152TIP3    H175947   1.367   2.371  15.832  0.2797 -0.2483  0.2131
18152TIP3    H275948   1.244   2.286  15.807 -0.6365  1.1274  0.0283
18153TIP3   OH275949   3.816   1.044  11.112 -0.9847 -0.2821  0.2367
18153TIP3    H175950   3.876   0.972  11.093 -1.5830 -0.9908  0.9709
18153TIP3    H275951   3.747   1.036  11.047 -0.1855  0.6648 -0.7436
18154TIP3   OH275952   5.758   1.692   3.375 -0.6683 -0.2546  0.2196
18154TIP3    H175953   5.692   1.695   3.306 -1.7378 -0.0304  1.2225
18154TIP3    H275954   5.837   1.662   3.332 -0.2422  3.6592 -1.9506
18155TIP3   OH275955   0.427   5.288   1.228  0.1417  1.1295 -0.4350
18155TIP3    H175956   0.410   5.372   1.271  1.0918  0.9597  0.2953
18155TIP3    H275957   0.342   5.263   1.191 -0.9668  0.8441  2.1348
18156TIP3   OH275958   0.514   6.336  15.575 -0.1508 -0.1056  0.1023
18156TIP3    H175959   0.602   6.372  15.588  0.1651 -0.0631 -2.0817
18156TIP3    H275960   0.456   6.403  15.611  0.6045  0.8778 -0.5029
18157TIP3   OH275961   1.589   2.489  13.604 -0.6300 -0.2394 -0.2084
18157TIP3    H175962   1.589   2.462  13.695  0.7271 -1.1491 -0.4683
18157TIP3    H275963   1.619   2.580  13.606  0.2263 -0.5288  0.1740
18158TIP3   OH275964   6.063   0.999  12.820 -0.3893  0.2754 -0.2984
18158TIP3    H175965   6.124   1.066  12.788  0.9012 -0.4264  0.6597
18158TIP3    H275966   6.111   0.917  12.812 -1.1947 -0.2855  0.5157
18159TIP3   OH275967   0.623   4.498  15.748 -0.0617 -0.3852 -0.4638
18159TIP3    H175968   0.682   4.535  15.682  0.3513 -0.5612 -0.1963
18159TIP3    H275969   0.676   4.492  15.827 -0.8265  0.7160  0.1461
18160TIP3   OH275970   6.091   0.900  14.733 -0.5562 -0.4538  0.0332
18160TIP3    H175971   6.100   0.982  14.686 -0.6293 -0.2538  0.3714
18160TIP3    H275972   6.096   0.924  14.825 -0.1400 -0.8784  0.1223
18161TIP3   OH275973   6.391   4.722   3.616  0.0287  0.0527  0.4696
18161TIP3    H175974   6.484   4.714   3.634 -0.4846 -0.4659  2.9795
18161TIP3    H275975   6.356   4.634   3.628 -0.8451  0.2897 -0.2369
18162TIP3   OH275976   3.404   3.942   2.064 -0.2645 -0.6213 -0.6419
18162TIP3    H175977   3.480   4.000   2.063  0.2962 -1.3268  0.5016
18162TIP3    H275978   3.401   3.907   2.153 -1.7518 -0.8382 -0.7581
18163TIP3   OH275979   1.263   2.674  11.495 -0.2358 -0.3229 -0.1328
18163TIP3    H175980   1.304   2.712  11.573 -1.4699 -1.5606  1.1714
18163TIP3    H275981   1.200   2.740  11.467 -1.2562 -0.7019  1.1808
18164TIP3   OH275982   1.343   3.811  13.882  0.0828 -0.2410 -0.3671
18164TIP3    H175983   1.386   3.853  13.956  1.4171  0.9887 -1.7967
18164TIP3    H275984   1.391   3.729  13.870 -0.0462 -0.3775  0.0470
18165TIP3   OH275985   0.087   0.105   3.765  0.4895 -0.1315  0.1004
18165TIP3    H175986   0.015   0.145   3.814  0.1685 -1.8151  1.0396
18165TIP3    H275987   0.079   0.141   3.677 -0.4176  1.0614  0.6584
18166TIP3   OH275988   3.445   5.709  16.661 -0.7616  0.4944  0.5218
18166TIP3    H175989   3.407   5.797  16.656 -1.2175  0.2485 -0.5795
18166TIP3    H275990   3.441   5.677  16.571 -0.5438 -0.6316  0.9094
18167TIP3   OH275991   1.150   5.945   0.112  0.7596  0.0948 -0.4044
18167TIP3    H175992   1.201   5.871   0.079  0.4980 -0.4087  0.3067
18167TIP3    H275993   1.104   5.910   0.188  0.3209  0.8842 -0.3061
18168TIP3   OH275994   1.866   6.575   1.105 -0.1608 -0.4165 -0.2646
18168TIP3    H175995   1.863   6.485   1.073 -1.3631 -0.2774 -0.5716
18168TIP3    H275996   1.927   6.572   1.179 -0.4626 -1.5616 -0.0404
18169TIP3   OH275997   4.433   6.789   5.427  0.2924 -0.0383  0.1782
18169TIP3    H175998   4.456   6.697   5.419  1.3665  0.2934 -0.7418
18169TIP3    H275999   4.514   6.836   5.406 -0.2252  1.1094  0.7045
18170TIP3   OH276000   2.936   2.566   2.771  0.2088 -0.0815  0.1638
18170TIP3    H176001   2.992   2.547   2.696 -1.1864  1.4933 -1.3083
18170TIP3    H276002   2.971   2.647   2.807 -0.3730  0.2488 -0.0190
18171TIP3   OH276003   2.214   0.402   3.336  0.0608  0.9822  0.1969
18171TIP3    H176004   2.167   0.415   3.418 -1.3598  0.4279 -0.5239
18171TIP3    H276005   2.146   0.395   3.269  1.1547  0.2963 -0.8793
18172TIP3   OH276006   1.239   0.504  10.663  0.3519  0.1401  0.0658
18172TIP3    H176007   1.305   0.464  10.607  0.5796  0.3508  0.1833
18172TIP3    H276008   1.278   0.504  10.751  0.9809  2.0141 -0.1923
18173TIP3   OH276009   0.602   5.224   0.653  0.5515  0.0478  0.3408
18173TIP3    H176010   0.651   5.157   0.699 -1.1641 -0.9906  0.7036
18173TIP3    H276011   0.555   5.177   0.584  0.9322  1.1774 -0.7043
18174TIP3   OH276012   5.190   5.348  13.554  0.0973  0.5387  0.4646
18174TIP3    H176013   5.204   5.363  13.461  0.1079  0.4888  0.4585
18174TIP3    H276014   5.261   5.397  13.597  1.7522 -1.6551  0.3332
18175TIP3   OH276015   3.717   0.034   4.204 -0.3230 -0.2516 -0.3790
18175TIP3    H176016   3.638  -0.018   4.190  0.2367 -0.8815 -1.2824
18175TIP3    H276017   3.717   0.098   4.132  1.2718 -1.8824 -1.8931
18176TIP3   OH276018   4.310   1.190  12.701  0.0283  0.4675  0.0264
18176TIP3    H176019   4.308   1.193  12.797  1.1694 -0.6339  0.0911
18176TIP3    H276020   4.340   1.102  12.680 -2.3604 -0.0726 -1.3868
18177TIP3   OH276021   0.722   2.615   0.881  0.0917  0.1627  0.4565
18177TIP3    H176022   0.731   2.530   0.839 -1.2034 -0.9780  2.3848
18177TIP3    H276023   0.798   2.622   0.939 -0.3276 -0.1545  1.0560
18178TIP3   OH276024   2.954   3.351   3.308 -0.0471  0.0099  0.1032
18178TIP3    H176025   2.947   3.257   3.326  2.2033 -0.1430  0.2896
18178TIP3    H276026   3.021   3.382   3.368  1.5771  1.1074 -2.2115
18179TIP3   OH276027   4.151   2.444   0.700  0.0621  0.9000 -0.2650
18179TIP3    H176028   4.133   2.536   0.720  0.1776  0.1066  3.9144
18179TIP3    H276029   4.069   2.399   0.719  0.7860 -0.1814  0.3593
18180TIP3   OH276030   5.296   0.267  16.702  0.8668 -0.0091 -0.2146
18180TIP3    H176031   5.275   0.290  16.611  4.0694  6.0450  0.2919
18180TIP3    H276032   5.354   0.191  16.695 -0.8065 -1.1091 -3.0069
18181TIP3   OH276033   0.481   5.260  14.151 -0.1331 -0.3655  0.1430
18181TIP3    H176034   0.435   5.338  14.182 -0.6221 -0.3547 -0.5852
18181TIP3    H276035   0.416   5.189  14.159 -0.4448 -0.2641 -1.3087
18182TIP3   OH276036   5.396   1.974  14.040  0.3547  0.2469 -0.5625
18182TIP3    H176037   5.371   1.951  13.950  1.3032  0.7550 -0.9581
18182TIP3    H276038   5.409   2.069  14.038  1.0537  0.1616 -0.0528
18183TIP3   OH276039   0.142   3.736   3.874 -0.3468 -0.4085  0.3265
18183TIP3    H176040   0.054   3.710   3.846 -0.0092 -0.3711 -0.8063
18183TIP3    H276041   0.201   3.682   3.821  0.3265  0.2201  0.4298
18184TIP3   OH276042   6.441   6.424  13.738  0.3898 -0.0148  0.6773
18184TIP3    H176043   6.460   6.372  13.659  1.6591  0.0105  0.9532
18184TIP3    H276044   6.497   6.385  13.806 -0.5254  0.1126  1.5089
18185TIP3   OH276045   1.350   4.980   0.697  0.3668  0.0372  0.0835
18185TIP3    H176046   1.313   5.062   0.731  1.9631  1.0934 -0.7027
18185TIP3    H276047   1.273   4.923   0.684 -0.7444  1.3595  0.7301
18186TIP3   OH276048   4.440   0.422   2.321 -0.1219  0.4382 -0.0796
18186TIP3    H176049   4.414   0.502   2.275 -1.1269 -0.7728 -1.7048
18186TIP3    H276050   4.472   0.451   2.406 -2.0590  2.4297  0.0047
18187TIP3   OH276051   2.778   0.258   4.868  0.4227  0.3199 -0.2244
18187TIP3    H176052   2.815   0.344   4.851  1.2047 -0.2327 -1.4575
18187TIP3    H276053   2.709   0.273   4.933  1.0480  1.7505  0.1278
18188TIP3   OH276054   3.772   4.661   5.220 -1.0854  0.7196  0.0269
18188TIP3    H176055   3.842   4.610   5.261 -2.1312 -0.8613 -0.1036
18188TIP3    H276056   3.751   4.728   5.285  0.0449  0.7447  0.3822
18189TIP3   OH276057   6.453   6.544   0.338 -0.3949 -0.0282 -0.4390
18189TIP3    H176058   6.531   6.509   0.380 -1.5211  0.2853  1.9744
18189TIP3    H276059   6.409   6.595   0.406 -0.6057  3.2574 -2.8978
18190TIP3   OH276060   6.631   2.273   4.120  0.1814 -0.4860 -0.4881
18190TIP3    H176061   6.687   2.284   4.197  2.0761 -0.0149 -1.8900
18190TIP3    H276062   6.684   2.221   4.060 -0.8685  0.0454 -1.8816
18191TIP3   OH276063   4.035   6.382  13.981 -0.6518 -0.0511 -0.1441
18191TIP3    H176064   3.989   6.417  13.904  0.1553 -0.7118 -0.9361
18191TIP3    H276065   4.109   6.334  13.944 -1.8961 -2.8505  0.9036
18192TIP3   OH276066   3.236   6.196  14.491 -0.7510  0.1457  0.2213
18192TIP3    H176067   3.177   6.184  14.417 -1.2401  2.2249  0.2478
18192TIP3    H276068   3.252   6.290  14.494  2.5717 -0.3322  0.2016
18193TIP3   OH276069   1.310   5.127  11.456  0.0630 -0.0835 -0.5056
18193TIP3    H176070   1.270   5.105  11.372  0.4194 -1.9237 -0.2205
18193TIP3    H276071   1.381   5.187  11.434  1.0987 -1.6963 -1.7070
18194TIP3   OH276072   0.325   4.894  13.290 -0.1840  0.2578  0.6792
18194TIP3    H176073   0.312   4.801  13.271  0.8956 -0.1314  1.8085
18194TIP3    H276074   0.382   4.925  13.219 -1.4676  0.3252 -0.3262
18195TIP3   OH276075   5.436   2.034   4.707 -0.3583 -0.1597  0.1451
18195TIP3    H176076   5.454   2.034   4.801  2.0620  0.7837 -0.2940
18195TIP3    H276077   5.385   2.114   4.692 -0.6959 -0.2803  0.6223
18196TIP3   OH276078   2.820   1.074  16.354 -0.5642  0.5617 -0.4038
18196TIP3    H176079   2.827   1.084  16.449  0.3360  1.5384 -0.5635
18196TIP3    H276080   2.799   1.162  16.322  2.4572  0.9752 -1.3933
18197TIP3   OH276081   3.334   4.260  11.375  1.0728  0.2889  0.2949
18197TIP3    H176082   3.365   4.242  11.463 -0.5302  0.5862  0.9491
18197TIP3    H276083   3.382   4.338  11.348  1.9279 -0.0891  0.7209
18198TIP3   OH276084   4.153   6.227   0.443  0.0689 -0.5572 -0.0455
18198TIP3    H176085   4.241   6.201   0.413  0.6457  0.0387  1.1304
18198TIP3    H276086   4.139   6.312   0.402 -0.7839 -1.5258 -1.8346
18199TIP3   OH276087   4.858   3.465   1.047  0.2450  0.7407  0.3571
18199TIP3    H176088   4.895   3.527   0.985 -0.8460  1.6338  0.5832
18199TIP3    H276089   4.770   3.448   1.014  0.3623 -0.3083  0.5677
18200TIP3   OH276090   1.788   5.673  17.270 -0.0722 -0.0064 -0.1832
18200TIP3    H176091   1.783   5.720  17.186  0.5106  0.9940  0.3396
18200TIP3    H276092   1.833   5.733  17.329  1.4436 -1.5362  0.2830
18201TIP3   OH276093   1.332   4.919  14.919 -0.0399  0.5235  0.2873
18201TIP3    H176094   1.253   4.973  14.913 -0.9199 -0.8493 -0.6000
18201TIP3    H276095   1.300   4.833  14.948  1.2465  0.2158  0.8210
18202TIP3   OH276096   5.371   0.362  14.876 -0.1388  0.5166 -0.6974
18202TIP3    H176097   5.300   0.310  14.838 -0.4217 -0.3971  1.0443
18202TIP3    H276098   5.451   0.321  14.844 -0.3714  0.8181 -1.6919
18203TIP3   OH276099   6.753   1.254   0.785 -0.1249 -0.5136  0.3703
18203TIP3    H176100   6.843   1.276   0.758 -0.4185 -0.0178 -0.2111
18203TIP3    H276101   6.759   1.241   0.880  0.4641  0.0283  0.4112
18204TIP3   OH276102   3.289   5.901   0.086  0.0554  0.2551 -0.3427
18204TIP3    H176103   3.319   5.810   0.081 -0.0561  0.0944  1.5115
18204TIP3    H276104   3.365   5.952   0.058  0.2259 -0.3905 -1.0779
18205TIP3   OH276105   3.404   1.788   5.172 -0.6204 -0.1292 -0.2819
18205TIP3    H176106   3.384   1.784   5.265 -1.3337 -1.9813 -0.5015
18205TIP3    H276107   3.491   1.828   5.168 -0.4452 -0.3346  1.1802
18206TIP3   OH276108   3.778   3.884  13.602 -0.1636  0.1517  0.1897
18206TIP3    H176109   3.688   3.862  13.576 -0.1107  1.2314 -0.9494
18206TIP3    H276110   3.783   3.859  13.695 -1.6534  0.1231  0.2760
18207TIP3   OH276111   1.519   2.588   4.717 -0.4780 -0.1791 -0.0410
18207TIP3    H176112   1.459   2.523   4.752  0.3453 -0.4167  0.9323
18207TIP3    H276113   1.469   2.670   4.716 -0.2828 -0.0223  2.3275
18208TIP3   OH276114   2.444   5.637   1.363  0.3854 -0.2704 -0.1178
18208TIP3    H176115   2.448   5.623   1.457  0.4331  0.8116  0.0454
18208TIP3    H276116   2.453   5.549   1.325  1.6580 -0.5698  0.8429
18209TIP3   OH276117   5.983   3.190   4.510 -0.4091  0.3147  0.2484
18209TIP3    H176118   6.012   3.261   4.568 -1.0280 -0.9719  2.1956
18209TIP3    H276119   5.891   3.210   4.493 -0.2351  0.6784 -0.2609
18210TIP3   OH276120   4.347   4.773  13.384  0.1927 -0.8858 -0.6596
18210TIP3    H176121   4.350   4.830  13.461  0.5188  0.1753 -1.4403
18210TIP3    H276122   4.421   4.801  13.331 -0.9928 -0.4823 -2.1292
18211TIP3   OH276123   0.373   5.662  14.842  0.5074  0.9341 -0.5023
18211TIP3    H176124   0.351   5.686  14.751 -1.6903  1.8135  0.2266
18211TIP3    H276125   0.393   5.745  14.884  1.9189  0.4816 -0.2787
18212TIP3   OH276126   3.498   2.017   3.219  0.3161  0.3656  0.1298
18212TIP3    H176127   3.498   1.924   3.196 -0.6690  0.5067 -0.4553
18212TIP3    H276128   3.513   2.063   3.136  1.0248  0.7296  0.4488
18213TIP3   OH276129   6.201   1.596  11.594 -0.8842 -0.0131 -0.3947
18213TIP3    H176130   6.252   1.595  11.674 -1.1056  0.8957 -0.2371
18213TIP3    H276131   6.232   1.520  11.544 -0.6665 -0.5043  0.4907
18214TIP3   OH276132   6.495   0.764   1.878  0.2445 -0.1794  0.1177
18214TIP3    H176133   6.552   0.836   1.905  0.3546 -0.8722  1.7870
18214TIP3    H276134   6.550   0.686   1.888 -0.2307 -0.6086 -0.5966
18215TIP3   OH276135   3.082   2.706   3.378 -0.3531  0.2437  0.0388
18215TIP3    H176136   3.071   2.613   3.401  1.3468  0.3319  1.3531
18215TIP3    H276137   3.177   2.719   3.380 -0.6119  2.1758  0.5451
18216TIP3   OH276138   1.259   5.951  11.243  0.4421 -0.0561  0.0509
18216TIP3    H176139   1.309   5.893  11.187  1.2627  0.5478  0.1532
18216TIP3    H276140   1.207   6.004  11.182  0.7403  0.0551 -0.1097
18217TIP3   OH276141   2.461   2.609  15.814  0.9856 -0.1916 -0.5708
18217TIP3    H176142   2.434   2.644  15.899 -1.4163  0.9431 -1.7158
18217TIP3    H276143   2.555   2.622  15.811  0.8833  1.1954  1.2795
18218TIP3   OH276144   4.647   6.652  15.989 -0.3044 -0.0555  0.3403
18218TIP3    H176145   4.695   6.655  15.906 -1.5640  1.6025 -0.3428
18218TIP3    H276146   4.714   6.665  16.056  0.5975 -0.5691 -0.4407
18219TIP3   OH276147   2.191   6.120  17.069  0.3893 -0.1181 -0.1795
18219TIP3    H176148   2.277   6.104  17.030  0.3195  0.8814 -0.7611
18219TIP3    H276149   2.137   6.148  16.995 -0.5650 -1.2052  0.0924
18220TIP3   OH276150   5.893   5.502  14.016 -0.3576 -0.1589 -0.2625
18220TIP3    H176151   5.883   5.593  14.045 -0.8825 -0.5528  0.8292
18220TIP3    H276152   5.978   5.475  14.051 -0.1227 -0.0367 -0.7346
18221TIP3   OH276153   3.904   0.331   1.636 -0.0563  0.4589 -0.0358
18221TIP3    H176154   3.925   0.421   1.663  1.6238 -0.3887  1.5641
18221TIP3    H276155   3.888   0.284   1.718  0.4928 -1.0439 -0.7642
18222TIP3   OH276156   3.159   0.645  17.014  0.0965 -0.3470  0.4587
18222TIP3    H176157   3.071   0.610  17.003 -0.2354  0.3144  1.0377
18222TIP3    H276158   3.216   0.567  17.010 -0.6178 -0.9255  1.5461
18223TIP3   OH276159   3.707   5.532   3.063  0.3347  0.4175  0.6171
18223TIP3    H176160   3.779   5.554   3.003  0.4266 -3.1210 -0.6520
18223TIP3    H276161   3.631   5.523   3.007  0.1435 -1.6513  1.1776
18224TIP3   OH276162   4.574   1.927   5.821 -0.1601 -0.0699  1.0044
18224TIP3    H176163   4.578   2.009   5.771  0.5011 -0.0066  1.1514
18224TIP3    H276164   4.629   1.944   5.898 -0.0035 -0.6635  1.0208
18225TIP3   OH276165   6.809   4.978  14.664  0.0765 -0.1527 -0.2428
18225TIP3    H176166   6.784   5.071  14.666  2.7760  0.6270  0.0277
18225TIP3    H276167   6.761   4.942  14.590 -3.3189  0.7338  1.4353
18226TIP3   OH276168   2.471   4.141  14.556  0.3392  0.4245  0.1331
18226TIP3    H176169   2.468   4.049  14.583  0.6740  0.7411  1.2802
18226TIP3    H276170   2.452   4.190  14.636 -0.7437  1.3383 -0.6663
18227TIP3   OH276171   3.912   5.602  16.196  1.1274 -0.1524  0.8343
18227TIP3    H176172   3.995   5.574  16.157  0.6026 -0.1250 -0.3074
18227TIP3    H276173   3.845   5.569  16.137  0.4116  1.7768  0.5314
18228TIP3   OH276174   5.745   3.483   5.728 -0.1796 -0.2175  0.4386
18228TIP3    H176175   5.768   3.400   5.685 -0.4068 -0.8467  1.5093
18228TIP3    H276176   5.651   3.477   5.742 -0.2025  0.2485  0.4664
18229TIP3   OH276177   5.600   3.098   1.544  0.4610  0.4469  0.2481
18229TIP3    H176178   5.629   3.080   1.633 -0.3408 -1.8724  0.0704
18229TIP3    H276179   5.654   3.172   1.515  2.1602 -0.1285  1.9079
18230TIP3   OH276180   0.128   2.769  13.338  0.0095 -0.0633 -0.1805
18230TIP3    H176181   0.156   2.861  13.338  0.6057 -0.1751  3.8109
18230TIP3    H276182   0.076   2.760  13.418  0.3908 -3.3424 -0.2594
18231TIP3   OH276183   6.144   5.481   4.712  0.2790 -0.6748  0.1661
18231TIP3    H176184   6.059   5.487   4.755  0.2344 -0.4187  0.0454
18231TIP3    H276185   6.124   5.451   4.623  0.1774  0.6936 -0.2938
18232TIP3   OH276186   2.068   2.845   5.054 -0.4527 -0.3037 -0.0479
18232TIP3    H176187   2.088   2.927   5.008  1.0784  1.8501  4.1131
18232TIP3    H276188   1.973   2.848   5.067 -0.1335  2.1374  2.1889
18233TIP3   OH276189   1.719   5.709   0.941  0.5240 -0.1612  0.2612
18233TIP3    H176190   1.763   5.793   0.928  1.5946 -0.8188 -0.4325
18233TIP3    H276191   1.752   5.654   0.870 -2.9729 -0.0635 -1.5275
18234TIP3   OH276192   3.956   0.547   4.083  0.0819  0.0771  0.0347
18234TIP3    H176193   4.038   0.595   4.088  0.0789 -0.0715  2.1380
18234TIP3    H276194   3.889   0.615   4.074  0.2293  0.4035  1.1877
18235TIP3   OH276195   4.970   6.603  13.319 -0.3757  0.2513  0.0318
18235TIP3    H176196   4.925   6.682  13.346  1.6256  1.3984  0.0824
18235TIP3    H276197   5.059   6.631  13.299 -0.0745 -1.6914 -1.5469
18236TIP3   OH276198   2.853   3.048   2.507 -0.2259  0.2615  0.5577
18236TIP3    H176199   2.825   3.110   2.439 -1.2944 -0.0843  0.6683
18236TIP3    H276200   2.812   2.965   2.482  0.0680 -0.0679  1.1658
18237TIP3   OH276201   1.461   6.378  12.361  0.3844 -0.0841 -0.2703
18237TIP3    H176202   1.492   6.378  12.271 -2.8279  1.9390 -1.4482
18237TIP3    H276203   1.509   6.450  12.403 -0.1831  0.7922 -1.1273
18238TIP3   OH276204   0.959   6.027   5.128 -0.0289  0.9731 -0.0233
18238TIP3    H176205   1.036   6.068   5.090  1.6532 -0.2752  1.9297
18238TIP3    H276206   0.957   5.939   5.091 -0.6540  1.0812 -0.2500
18239TIP3   OH276207   2.267   4.121  13.967  0.1724  0.5052 -0.5119
18239TIP3    H176208   2.318   4.184  13.916  0.9314  1.9962  2.0193
18239TIP3    H276209   2.329   4.086  14.031 -0.7384 -1.4371 -0.6627
18240TIP3   OH276210   3.956   4.790  13.912 -0.0142 -0.6171  0.6277
18240TIP3    H176211   3.920   4.750  13.991  0.8194 -1.8032  0.4164
18240TIP3    H276212   3.962   4.718  13.849 -2.2102  0.6288 -1.0738
18241TIP3   OH276213   0.331   5.894   3.507 -0.7428  0.4535 -0.5255
18241TIP3    H176214   0.323   5.920   3.599  1.8638  0.7553 -0.3522
18241TIP3    H276215   0.332   5.977   3.459 -3.1694  0.2610 -0.9390
18242TIP3   OH276216   4.333   0.585  11.423  0.5280 -0.2536  0.3988
18242TIP3    H176217   4.256   0.639  11.441 -0.0670 -0.9766  0.0742
18242TIP3    H276218   4.343   0.530  11.501  1.2868  0.5045  0.8368
18243TIP3   OH276219   6.286   6.292  12.781  0.4059 -0.6525 -0.3439
18243TIP3    H176220   6.306   6.204  12.814  0.6113  0.1856  1.8546
18243TIP3    H276221   6.371   6.328  12.756  0.4302 -0.7821 -0.4489
18244TIP3   OH276222   2.568   4.056  16.809  0.2359  0.4359 -0.0136
18244TIP3    H176223   2.625   4.132  16.810  0.1289  0.5188 -0.2632
18244TIP3    H276224   2.492   4.082  16.862 -0.0986  0.7317 -0.6426
18245TIP3   OH276225   1.540   4.952  12.842 -0.2696  0.3591  0.0447
18245TIP3    H176226   1.568   5.043  12.831  0.4750  0.1634  0.2837
18245TIP3    H276227   1.545   4.914  12.754  2.0899 -0.1946  0.3811
18246TIP3   OH276228   4.275   0.162   4.372  0.1936  0.3622  0.1854
18246TIP3    H176229   4.277   0.124   4.284  0.3670  0.3285  0.2044
18246TIP3    H276230   4.206   0.229   4.367 -0.3317 -0.1659  0.2405
18247TIP3   OH276231   2.983   5.577   2.105 -0.5687  0.1343  0.3521
18247TIP3    H176232   2.979   5.499   2.160  1.2890 -0.1533  0.1316
18247TIP3    H276233   2.895   5.615   2.109 -1.4709 -1.9315  0.5079
18248TIP3   OH276234   3.122   0.612   1.688  0.3397  0.4063  0.0222
18248TIP3    H176235   3.166   0.697   1.698  0.3853  0.5202 -1.0977
18248TIP3    H276236   3.029   0.633   1.692  0.3513  0.4930 -0.1859
18249TIP3   OH276237   0.313   2.941   3.932 -0.0231  0.0361  0.9670
18249TIP3    H176238   0.231   2.980   3.962 -0.3960 -0.3455  0.4420
18249TIP3    H276239   0.337   2.879   4.002 -0.1128  0.2441  1.1820
18250TIP3   OH276240   5.218   0.634  11.665 -0.2743  0.0537 -0.0448
18250TIP3    H176241   5.180   0.703  11.609  0.5444 -0.2338 -0.9749
18250TIP3    H276242   5.253   0.681  11.740  1.2018  0.7981 -1.1663
18251TIP3   OH276243   2.252   3.604   1.936  0.5943 -0.5830  0.5531
18251TIP3    H176244   2.312   3.639   1.871 -0.0042  0.8364  0.7526
18251TIP3    H276245   2.182   3.563   1.885  0.5693 -0.2321  0.3057
18252TIP3   OH276246   1.475   3.251   6.163  0.4786 -0.0973  0.1955
18252TIP3    H176247   1.447   3.194   6.235  1.2734  0.5165  0.9960
18252TIP3    H276248   1.563   3.278   6.187  0.2137  1.2582 -0.3176
18253TIP3   OH276249   0.882   0.438  11.855 -0.1981  0.0461  1.0519
18253TIP3    H176250   0.946   0.428  11.925 -0.1323 -0.5763  0.9048
18253TIP3    H276251   0.867   0.533  11.849 -0.6740  0.0636  2.3364
18254TIP3   OH276252   0.803   5.974   5.353 -0.6394 -0.7193 -0.5173
18254TIP3    H176253   0.824   5.895   5.404  0.1604 -1.3307 -1.7633
18254TIP3    H276254   0.875   5.981   5.290  0.1994  1.9765  0.6966
18255TIP3   OH276255   3.604   2.439  10.833 -0.3737 -0.3515 -0.0560
18255TIP3    H176256   3.527   2.386  10.856 -0.8314  0.0192 -0.7167
18255TIP3    H276257   3.571   2.529  10.829 -0.3033 -0.4025 -2.1257
18256TIP3   OH276258   1.005   6.518   0.616  0.6452  0.1371 -0.1047
18256TIP3    H176259   1.079   6.554   0.665  0.3661 -0.4168  0.7416
18256TIP3    H276260   0.963   6.458   0.678  0.3601 -0.6672 -1.0715
18257TIP3   OH276261   4.117   5.059   5.390 -0.3617 -0.2528 -0.3410
18257TIP3    H176262   4.112   4.964   5.384  0.3037 -0.3123  0.0428
18257TIP3    H276263   4.191   5.076   5.447 -1.5642  0.4605  1.0356
18258TIP3   OH276264   3.348   1.607   3.076  0.1843  0.0476  0.3222
18258TIP3    H176265   3.399   1.553   3.136 -1.5930  0.3122  2.1384
18258TIP3    H276266   3.329   1.550   3.002  0.7040 -0.9449  0.9368
18259TIP3   OH276267   2.289   5.946   1.921 -0.0167 -0.0402  0.2603
18259TIP3    H176268   2.335   6.023   1.956  1.9390 -1.0082 -0.0891
18259TIP3    H276269   2.241   5.911   1.995  1.4022 -0.1237  1.1644
18260TIP3   OH276270   5.530   6.320  15.417 -0.1794 -0.2382 -0.0175
18260TIP3    H176271   5.605   6.348  15.470 -1.1655 -0.2566  1.4217
18260TIP3    H276272   5.565   6.308  15.329  1.2398  1.0088  0.3636
18261TIP3   OH276273   5.912   5.097   5.339 -0.3130  0.0741  0.3447
18261TIP3    H176274   5.861   5.140   5.271  0.3874 -1.9078 -1.4971
18261TIP3    H276275   5.993   5.148   5.343 -0.7365  0.7568  0.3640
18262TIP3   OH276276   3.129   1.036   0.907 -1.1516 -0.3352 -0.4189
18262TIP3    H176277   3.152   0.977   0.834 -2.1142  1.9804 -2.6505
18262TIP3    H276278   3.046   1.002   0.940 -1.2431 -0.7746 -1.0848
18263TIP3   OH276279   2.480   6.019  16.980 -0.6044  0.0135 -0.7339
18263TIP3    H176280   2.541   5.945  16.973 -0.0668  0.3992 -0.2036
18263TIP3    H276281   2.419   6.006  16.907 -0.9882 -1.3780 -0.1872
18264TIP3   OH276282   3.481   4.738  11.300  0.4070 -0.2413  0.1891
18264TIP3    H176283   3.540   4.802  11.259  0.3626  0.3606  1.0547
18264TIP3    H276284   3.539   4.671  11.335  0.5928  0.4786  1.2600
18265TIP3   OH276285   1.936   5.694   1.525  0.2564  0.2361  0.1964
18265TIP3    H176286   1.992   5.711   1.600  2.0609 -0.2769 -1.0056
18265TIP3    H276287   1.996   5.673   1.454 -1.4718 -0.5716 -1.0717
18266TIP3   OH276288   1.245   6.038  13.354  0.5713  0.4798  0.3776
18266TIP3    H176289   1.324   6.092  13.354  0.1039  1.1643  0.7422
18266TIP3    H276290   1.249   5.991  13.437  0.8100  0.1882  0.2045
18267TIP3   OH276291   1.931   5.059   3.030 -0.1932 -0.4141  0.1439
18267TIP3    H176292   1.949   5.109   2.951 -1.1179  0.7321  0.6370
18267TIP3    H276293   1.961   4.970   3.010 -0.6001 -0.1858 -1.5456
18268TIP3   OH276294   5.830   4.258  10.835 -0.2693 -0.2353 -0.3348
18268TIP3    H176295   5.876   4.180  10.803 -0.0217 -0.3840  0.3890
18268TIP3    H276296   5.738   4.241  10.816 -0.1083 -0.2473 -1.1369
18269TIP3   OH276297   4.293   0.832   2.244  0.0946 -0.7950  0.7803
18269TIP3    H176298   4.237   0.891   2.194  1.0428 -1.6427 -1.3199
18269TIP3    H276299   4.232   0.780   2.297 -0.9122  0.1067  0.5275
18270TIP3   OH276300   6.786   6.311  14.454  0.9249  0.4634  0.0236
18270TIP3    H176301   6.715   6.336  14.395  1.7270  3.8600  0.3998
18270TIP3    H276302   6.837   6.248  14.403  0.0913  1.2965 -1.9208
18271TIP3   OH276303   2.589   4.677  14.798 -0.1772 -0.5327 -0.0896
18271TIP3    H176304   2.500   4.656  14.772  0.4767 -1.8392 -1.3819
18271TIP3    H276305   2.609   4.760  14.754 -0.8370 -0.1083  0.4150
18272TIP3   OH276306   3.066   2.560   2.220  0.2630  0.5120 -0.0230
18272TIP3    H176307   3.045   2.615   2.144 -0.0356 -1.0143 -1.0595
18272TIP3    H276308   3.146   2.515   2.196 -0.9961 -1.6277 -0.3284
18273TIP3   OH276309   3.071   6.730  16.671 -0.6183 -0.2241 -0.0380
18273TIP3    H176310   3.026   6.743  16.588  0.1821  1.9313 -0.1507
18273TIP3    H276311   3.160   6.705  16.647 -0.8349 -1.2700  0.1942
18274TIP3   OH276312   4.940   0.203  13.310 -0.2910 -0.0281 -0.1537
18274TIP3    H176313   4.961   0.171  13.222 -2.0145  1.3268 -1.0945
18274TIP3    H276314   4.872   0.144  13.342 -1.0394  0.6193 -0.5250
18275TIP3   OH276315   6.242   6.357  12.399  0.2065  0.4880  0.8825
18275TIP3    H176316   6.259   6.402  12.316 -2.1107  1.0796  0.7082
18275TIP3    H276317   6.189   6.418  12.449  0.9396 -0.1850  2.5263
18276TIP3   OH276318   0.751   5.650  16.390  0.1146  0.4743 -0.1736
18276TIP3    H176319   0.729   5.665  16.482  1.3787 -1.0326  0.3989
18276TIP3    H276320   0.818   5.581  16.393  0.2944  0.5539 -2.2098
18277TIP3   OH276321   3.898   3.012  15.620 -0.1761  0.6038 -0.2190
18277TIP3    H176322   3.949   2.961  15.558  0.3784  1.2728 -0.3257
18277TIP3    H276323   3.894   2.958  15.699 -0.9532 -0.2819 -0.8594
18278TIP3   OH276324   4.596   2.648  15.902  0.1658 -0.0718 -0.1182
18278TIP3    H176325   4.596   2.714  15.971  0.6473 -1.5735  1.3678
18278TIP3    H276326   4.590   2.565  15.950  0.7513 -1.1426 -1.8844
18279TIP3   OH276327   0.330   6.669   1.515  1.0511  0.2755 -0.0252
18279TIP3    H176328   0.402   6.674   1.452  1.4662  0.6695  0.4811
18279TIP3    H276329   0.258   6.716   1.473  0.8098 -0.8661 -0.9087
18280TIP3   OH276330   1.496   2.621  11.307  0.1999 -0.0460  0.0954
18280TIP3    H176331   1.423   2.601  11.365  0.8507 -0.0836  0.9126
18280TIP3    H276332   1.509   2.541  11.256  0.4956 -0.4884  0.8570
18281TIP3   OH276333   2.942   3.592  12.127 -0.2238 -0.0652 -0.4240
18281TIP3    H176334   2.888   3.569  12.203 -0.4827  0.4831 -0.4397
18281TIP3    H276335   2.901   3.544  12.055  0.5265 -1.2538 -0.0733
18282TIP3   OH276336   2.904   4.068  17.159  0.1034  0.1159 -0.3472
18282TIP3    H176337   2.996   4.092  17.148 -0.1710  0.8070 -1.2246
18282TIP3    H276338   2.900   3.975  17.139  0.4654  0.2836 -1.2241
18283TIP3   OH276339   5.829   0.726   5.480 -0.0732 -0.6731 -0.6355
18283TIP3    H176340   5.873   0.672   5.546 -0.4661  1.4613  1.4470
18283TIP3    H276341   5.737   0.724   5.505 -0.2151  0.2100 -1.0742
18284TIP3   OH276342   5.443   5.964  13.355  0.1426  0.0076  0.2812
18284TIP3    H176343   5.485   5.951  13.440 -1.0760 -1.6296  0.6609
18284TIP3    H276344   5.434   6.059  13.347 -0.3795  0.1407  2.2970
18285TIP3   OH276345   4.091   3.938  13.306 -0.1544  0.4584 -0.9682
18285TIP3    H176346   4.009   3.980  13.330  0.1735 -0.0109  1.0804
18285TIP3    H276347   4.070   3.887  13.227 -2.0643 -0.4342  0.0893
18286TIP3   OH276348   6.339   5.063   4.772  0.3230  0.0853 -0.0150
18286TIP3    H176349   6.305   5.098   4.690 -1.0962  1.6495  1.2121
18286TIP3    H276350   6.434   5.073   4.765  0.0313  2.8921 -0.2917
18287TIP3   OH276351   0.338   0.214  13.007 -0.3120 -0.6883  0.6290
18287TIP3    H176352   0.433   0.213  13.015 -0.1780 -2.8587 -0.8538
18287TIP3    H276353   0.320   0.182  12.919 -2.4101 -0.0930  0.7996
18288TIP3   OH276354   0.712   5.392  14.804 -0.1978  0.3941  0.1590
18288TIP3    H176355   0.738   5.481  14.825 -1.3723  1.4252 -2.5467
18288TIP3    H276356   0.620   5.399  14.778 -0.3864 -1.6442  0.1384
18289TIP3   OH276357   4.132   0.966  12.523  0.2305 -0.1919  0.5561
18289TIP3    H176358   4.136   1.027  12.449 -0.6977 -0.4613  0.2853
18289TIP3    H276359   4.059   0.998  12.577  1.9909  1.0468  2.2952
18290TIP3   OH276360   5.177   5.270  12.567  0.4655  0.5619  0.3554
18290TIP3    H176361   5.155   5.268  12.660  0.2193  3.1614  0.3904
18290TIP3    H276362   5.273   5.274  12.565  0.4097  4.3481  0.6864
18291TIP3   OH276363   3.746   3.549  15.469  0.2148  0.2236  0.7295
18291TIP3    H176364   3.816   3.608  15.440 -0.1651 -0.0047 -0.7018
18291TIP3    H276365   3.743   3.481  15.401  1.8601 -2.4834  3.2312
18292TIP3   OH276366   6.343   2.629   5.519  0.4834  0.4495 -0.1858
18292TIP3    H176367   6.294   2.549   5.536 -1.0455  1.7681  1.7750
18292TIP3    H276368   6.413   2.629   5.585  0.6790  0.5969 -0.3891
18293TIP3   OH276369   5.955   2.725   4.255 -0.0212 -0.0139 -0.3069
18293TIP3    H176370   6.000   2.681   4.328 -0.5648 -1.9342 -1.0955
18293TIP3    H276371   5.863   2.703   4.267 -0.2923  0.8578 -0.7729
18294TIP3   OH276372   3.592   3.770   4.964 -0.1921  0.6424 -0.3215
18294TIP3    H176373   3.650   3.788   4.890  0.2480 -1.2102 -0.4540
18294TIP3    H276374   3.507   3.752   4.923  0.0973 -0.5745 -0.4022
18295TIP3   OH276375   5.673   5.120  16.431  0.5748 -0.0468  0.2173
18295TIP3    H176376   5.755   5.159  16.400 -0.0966  0.4796 -0.9294
18295TIP3    H276377   5.656   5.164  16.514  2.2256 -1.2381  1.2171
18296TIP3   OH276378   6.406   0.861   4.874 -0.3112 -0.2097  0.0341
18296TIP3    H176379   6.329   0.917   4.870  0.1017  0.4617  1.2125
18296TIP3    H276380   6.377   0.783   4.922 -1.1667 -1.5090 -2.5032
18297TIP3   OH276381   3.595   0.086  17.077  0.0272 -0.8408 -0.1867
18297TIP3    H176382   3.595   0.081  16.981 -1.1467 -1.1584 -0.1847
18297TIP3    H276383   3.658   0.155  17.097 -0.7545  0.2150 -1.2647
18298TIP3   OH276384   3.932   5.985  16.396 -0.0958 -0.1050  0.1965
18298TIP3    H176385   3.993   5.924  16.437  1.3251  1.2549  0.1348
18298TIP3    H276386   3.855   5.983  16.453  1.0454  0.1768  1.7806
18299TIP3   OH276387   2.974   0.480  11.572  0.4419 -1.1356  0.4470
18299TIP3    H176388   2.959   0.570  11.602 -0.0804 -0.7666 -0.8539
18299TIP3    H276389   3.062   0.482  11.534 -0.0174 -0.8729 -0.6254
18300TIP3   OH276390   2.821   1.588  16.749 -0.0914  0.1488 -0.2145
18300TIP3    H176391   2.739   1.609  16.792 -0.6037  0.3610 -1.2792
18300TIP3    H276392   2.796   1.547  16.666  0.8747 -0.5347 -0.1803
18301TIP3   OH276393   3.859   2.294  16.762  0.5315  0.1923 -0.0795
18301TIP3    H176394   3.878   2.316  16.671  0.6102 -1.3535 -0.4493
18301TIP3    H276395   3.905   2.211  16.777  2.2589  1.4665  1.9964
18302TIP3   OH276396   2.918   0.058  17.084  0.0969  0.2537 -0.2466
18302TIP3    H176397   2.832   0.017  17.079  1.4808 -2.7650 -0.0151
18302TIP3    H276398   2.966   0.007  17.149  1.6506  2.7458  0.6526
18303TIP3   OH276399   5.531   3.103  16.359 -0.0663 -0.0843  0.5341
18303TIP3    H176400   5.477   3.084  16.282  0.0265  0.8914  0.2228
18303TIP3    H276401   5.577   3.021  16.376 -1.0665 -0.7019  0.3374
18304TIP3   OH276402   1.127   1.355   5.803 -0.0764 -0.0518  0.3526
18304TIP3    H176403   1.066   1.282   5.795  0.6105 -0.6896  0.8102
18304TIP3    H276404   1.145   1.381   5.713 -0.7005 -0.1280  0.2016
18305TIP3   OH276405   6.755   2.137  12.367  0.3703  0.4332 -0.1748
18305TIP3    H176406   6.681   2.172  12.417 -0.1832  1.7258 -1.8501
18305TIP3    H276407   6.828   2.136  12.429 -1.1794 -1.5044  1.7039
18306TIP3   OH276408   4.238   1.536  15.905 -0.7628  0.2699 -0.4719
18306TIP3    H176409   4.265   1.560  15.994 -1.7143 -0.8946  0.1336
18306TIP3    H276410   4.234   1.441  15.905 -1.7261  0.2948 -1.4844
18307TIP3   OH276411   1.582   5.067   0.808  0.2296  0.4074  0.4412
18307TIP3    H176412   1.526   5.097   0.880 -0.6934  0.8135 -0.4448
18307TIP3    H276413   1.536   4.992   0.770  0.9894 -0.1628  0.6152
18308TIP3   OH276414   5.856   5.955  12.031  0.1127 -0.0414 -0.1218
18308TIP3    H176415   5.945   5.931  12.055  0.2976 -0.8681 -1.5996
18308TIP3    H276416   5.809   5.872  12.024 -0.6797  0.3656  0.2611
18309TIP3   OH276417   2.500   5.470   1.988  0.0341  0.1832 -0.1424
18309TIP3    H176418   2.525   5.551   1.943 -0.3941 -0.4981 -1.6157
18309TIP3    H276419   2.458   5.417   1.921  1.8074 -1.9754  0.3976
18310TIP3   OH276420   1.519   0.238   1.651 -0.1463 -0.5688  0.0446
18310TIP3    H176421   1.519   0.188   1.569 -2.2447 -3.2037  1.5824
18310TIP3    H276422   1.434   0.219   1.691  0.8518  0.6304  2.8619
18311TIP3   OH276423   4.594   0.631  12.606  0.3872  0.6110  0.3231
18311TIP3    H176424   4.645   0.583  12.539  0.0958  0.9521 -0.1463
18311TIP3    H276425   4.584   0.568  12.677  1.3242  0.4794  0.3500
18312TIP3   OH276426   4.745   6.392  13.942  0.6557 -0.0242  0.3219
18312TIP3    H176427   4.672   6.333  13.960  1.0234 -0.3606  0.7392
18312TIP3    H276428   4.807   6.376  14.014  1.0446  0.4050  0.0855
18313TIP3   OH276429   5.777   2.073   0.810  0.6046 -0.2793 -0.2377
18313TIP3    H176430   5.871   2.078   0.826  0.7297 -1.7331 -0.4565
18313TIP3    H276431   5.743   2.019   0.881  0.1858 -1.1677 -1.0961
18314TIP3   OH276432   2.603   1.526   3.024 -0.8345 -0.3813 -0.4262
18314TIP3    H176433   2.567   1.451   2.977  0.0269 -1.6473  0.9015
18314TIP3    H276434   2.657   1.487   3.094  1.1226  1.4579 -0.8619
18315TIP3   OH276435   3.473   2.436   3.372  0.3305 -0.5284 -0.2291
18315TIP3    H176436   3.555   2.443   3.420  0.2686 -1.8463  0.1022
18315TIP3    H276437   3.493   2.474   3.286  0.6460  1.1532  0.5735
18316TIP3   OH276438   3.657   3.364   0.170 -0.1329  0.1004 -0.3400
18316TIP3    H176439   3.598   3.298   0.206 -1.3074  0.3940 -1.6787
18316TIP3    H276440   3.676   3.421   0.244 -2.2319  0.4906 -0.0646
18317TIP3   OH276441   4.175   5.771  13.397  0.0339 -0.0692 -0.1472
18317TIP3    H176442   4.219   5.852  13.425  0.4445 -0.0267 -0.8992
18317TIP3    H276443   4.127   5.742  13.474  2.2090 -0.6770  1.0055
18318TIP3   OH276444   1.019   2.103   4.665  0.3341  0.2611  0.0639
18318TIP3    H176445   1.107   2.078   4.692 -0.2255  1.3028  3.0397
18318TIP3    H276446   0.969   2.021   4.669  0.7596 -0.0034  0.0494
18319TIP3   OH276447   4.404   5.187   0.652 -0.0483 -0.1446  0.0410
18319TIP3    H176448   4.416   5.209   0.745 -0.5763  1.8112 -0.3269
18319TIP3    H276449   4.493   5.178   0.618  0.2277  2.2646  0.0452
18320TIP3   OH276450   0.406   2.253  12.920 -0.2338 -0.5634 -0.2414
18320TIP3    H176451   0.342   2.191  12.886  0.4969 -0.5751 -1.6462
18320TIP3    H276452   0.478   2.251  12.856  1.2007 -0.6042  1.3257
18321TIP3   OH276453   4.910   6.215  11.259  0.6395 -0.2615 -0.0946
18321TIP3    H176454   4.970   6.264  11.315  0.6052 -0.9065  0.5131
18321TIP3    H276455   4.933   6.242  11.170  2.3192 -1.0468  0.0767
18322TIP3   OH276456   2.276   1.525   0.752  0.2474  0.3722 -1.2303
18322TIP3    H176457   2.211   1.546   0.818  1.0525 -1.3965  0.1768
18322TIP3    H276458   2.353   1.578   0.776  0.2251  0.4564 -1.3395
18323TIP3   OH276459   3.599   4.905  15.861 -0.6804  0.1662  0.6241
18323TIP3    H176460   3.540   4.891  15.787 -0.0152 -2.2346  0.5255
18323TIP3    H276461   3.645   4.986  15.840 -0.6511 -0.3731 -1.4849
18324TIP3   OH276462   3.772   0.745   3.186  0.3862  0.2297  0.4800
18324TIP3    H176463   3.813   0.659   3.187  2.3389  1.1255 -1.0974
18324TIP3    H276464   3.691   0.732   3.136  0.5150 -0.7467  0.5069
18325TIP3   OH276465   6.621   1.168   3.655  0.6028 -0.3611  0.4136
18325TIP3    H176466   6.539   1.161   3.605 -0.8655 -0.6433  2.7753
18325TIP3    H276467   6.660   1.081   3.648  2.0570  0.4581 -2.8410
18326TIP3   OH276468   2.698   5.107   1.743 -0.6516  0.5533  0.2611
18326TIP3    H176469   2.763   5.092   1.675 -1.3161 -1.0866 -0.0270
18326TIP3    H276470   2.731   5.060   1.819 -1.0331  0.5044  0.3956
18327TIP3   OH276471   1.602   4.110  14.815 -0.2410 -0.2525  0.5492
18327TIP3    H176472   1.583   4.134  14.905  0.0690  0.7778  0.3460
18327TIP3    H276473   1.606   4.014  14.816 -1.2622 -0.2923  1.4114
18328TIP3   OH276474   5.087   4.139   2.197 -0.2674  0.6000  0.2135
18328TIP3    H176475   5.078   4.222   2.150 -1.2146  0.1844 -0.3432
18328TIP3    H276476   5.006   4.131   2.246 -0.7857 -0.6920 -0.8398
18329TIP3   OH276477   1.677   6.512   0.739 -0.3859  0.7639  0.8962
18329TIP3    H176478   1.694   6.515   0.645 -0.8193  1.7372  0.8485
18329TIP3    H276479   1.587   6.543   0.748 -0.1599  1.1890  1.6817
18330TIP3   OH276480   3.245   1.871  14.357 -0.9285  0.1852 -0.0801
18330TIP3    H176481   3.226   1.881  14.263 -0.3779  1.1276 -0.0906
18330TIP3    H276482   3.332   1.833  14.360 -1.2837 -0.6401  0.0441
18331TIP3   OH276483   2.618   2.756  16.032  0.2270 -0.0447 -0.2596
18331TIP3    H176484   2.696   2.752  15.976  0.5188  0.4372  0.1057
18331TIP3    H276485   2.650   2.793  16.114 -0.6708  1.5424 -0.6069
18332TIP3   OH276486   1.645   1.727  12.063 -0.2039 -0.3847 -0.0749
18332TIP3    H176487   1.706   1.657  12.043  0.3684 -0.1228  0.7563
18332TIP3    H276488   1.654   1.788  11.989  0.4511 -0.4042 -0.0085
18333TIP3   OH276489   4.750   3.670  13.167 -0.2305 -0.0699  0.1885
18333TIP3    H176490   4.715   3.625  13.244 -0.9691 -1.4743 -0.9638
18333TIP3    H276491   4.829   3.622  13.144 -0.3153  0.0020 -0.2653
18334TIP3   OH276492   5.034   3.625  17.126 -0.0892  1.2364 -0.2132
18334TIP3    H176493   5.078   3.707  17.104  1.3707  0.4811 -0.1673
18334TIP3    H276494   5.105   3.562  17.137 -1.0371  0.5197  2.1264
18335TIP3   OH276495   2.589   6.070   1.463  0.3101 -0.1676 -0.4385
18335TIP3    H176496   2.667   6.099   1.511  1.2503 -2.4772 -0.5191
18335TIP3    H276497   2.539   6.151   1.448  1.7313  1.0794  1.3043
18336TIP3   OH276498   5.275   2.766   6.343  0.4780  0.1902  0.2063
18336TIP3    H176499   5.318   2.682   6.332 -0.0344 -0.0891  0.3368
18336TIP3    H276500   5.218   2.775   6.266 -1.0632 -0.5420  1.2356
18337TIP3   OH276501   6.541   5.934  15.481  0.3048 -0.1912  0.1930
18337TIP3    H176502   6.473   5.996  15.506 -1.0859 -2.3103  1.8575
18337TIP3    H276503   6.562   5.956  15.390  0.9708  3.6625  1.1837
18338TIP3   OH276504   5.714   6.634  11.215 -0.6757  0.0541 -0.4951
18338TIP3    H176505   5.658   6.654  11.140 -0.5363 -3.1514 -1.5371
18338TIP3    H276506   5.766   6.713  11.227 -1.8024  1.2195 -2.7854
18339TIP3   OH276507   0.874   3.660  15.008 -0.3404  0.6191  0.1912
18339TIP3    H176508   0.871   3.615  15.093  0.3079  1.0909  0.4685
18339TIP3    H276509   0.931   3.736  15.023  2.5859 -1.1336 -1.5278
18340TIP3   OH276510   1.012   1.833  15.435 -0.1783 -0.3280 -0.2788
18340TIP3    H176511   1.099   1.853  15.472 -0.6526  0.6206  0.3440
18340TIP3    H276512   1.029   1.815  15.343  0.5419  1.0476 -0.4322
18341TIP3   OH276513   4.781   2.093   5.399 -0.4375  0.0149  0.3412
18341TIP3    H176514   4.799   2.177   5.357  0.0150  0.1966  0.8888
18341TIP3    H276515   4.840   2.090   5.474  1.3996 -1.9143 -1.1189
18342TIP3   OH276516   1.528   1.442  14.874  0.1140  0.5209 -0.5628
18342TIP3    H176517   1.607   1.482  14.838 -0.7972  0.4375 -2.7329
18342TIP3    H276518   1.554   1.353  14.897  0.7934  0.6729 -0.7307
18343TIP3   OH276519   0.222   0.324  11.871  0.1858 -0.2018 -0.6597
18343TIP3    H176520   0.300   0.317  11.816  0.5444  0.9631 -0.3203
18343TIP3    H276521   0.152   0.345  11.810 -0.2546 -3.0979 -1.2216
18344TIP3   OH276522   4.072   2.932   0.315  0.1137  0.0685  0.0793
18344TIP3    H176523   3.991   2.937   0.266 -0.3123 -0.5466  0.7013
18344TIP3    H276524   4.090   3.021   0.344  0.0727  0.3337 -0.7109
18345TIP3   OH276525   1.230   5.441   2.626  0.5172 -0.2213  0.1775
18345TIP3    H176526   1.241   5.355   2.584 -0.9714  0.3395 -1.4130
18345TIP3    H276527   1.140   5.466   2.606  1.0315  1.8706  0.3366
18346TIP3   OH276528   3.381   5.993  11.611 -0.1844 -0.1993 -0.3111
18346TIP3    H176529   3.320   5.938  11.662  0.9373 -1.8686 -0.7230
18346TIP3    H276530   3.449   5.932  11.583 -0.4185  0.8417 -3.2537
18347TIP3   OH276531   5.609   3.300   2.936 -0.8143 -1.0499  1.1410
18347TIP3    H176532   5.559   3.372   2.974  0.6203  0.0575  0.9694
18347TIP3    H276533   5.691   3.300   2.985  1.6490  1.2848 -2.7609
18348TIP3   OH276534   6.556   3.106   4.100 -0.3295 -0.4619 -0.4199
18348TIP3    H176535   6.490   3.131   4.036 -1.0803 -0.4405  0.3436
18348TIP3    H276536   6.562   3.011   4.094  0.4812 -0.3574 -1.3581
18349TIP3   OH276537   2.815   6.268  12.034 -0.3463  0.3943 -0.1697
18349TIP3    H176538   2.805   6.194  12.093  3.0045 -1.0630 -1.3106
18349TIP3    H276539   2.886   6.320  12.072  0.7491  0.3034 -2.0398
18350TIP3   OH276540   6.119   1.695  16.282  0.1526 -0.2597  0.0346
18350TIP3    H176541   6.131   1.773  16.227 -3.1495  0.6408  0.4451
18350TIP3    H276542   6.130   1.728  16.372 -1.0605 -0.3049  0.2015
18351TIP3   OH276543   5.257   4.449  11.790  0.4634 -0.1360 -0.2823
18351TIP3    H176544   5.210   4.366  11.801  0.1913  0.2819  1.8798
18351TIP3    H276545   5.329   4.428  11.731  1.9648 -2.5594  2.2809
18352TIP3   OH276546   0.578   1.108  14.641 -0.4531  0.4543 -0.1233
18352TIP3    H176547   0.645   1.053  14.600 -0.4268  0.6754 -0.3879
18352TIP3    H276548   0.585   1.090  14.734  0.9329  1.5076 -0.0112
18353TIP3   OH276549   1.301   5.977  17.150 -0.3353  0.5128  0.1569
18353TIP3    H176550   1.329   5.945  17.064  2.0285  0.0474  1.0840
18353TIP3    H276551   1.312   5.902  17.208 -1.4779  0.9690  0.9894
18354TIP3   OH276552   4.612   3.564  17.093  0.8447 -0.2104  0.6209
18354TIP3    H176553   4.667   3.642  17.094  2.0043 -1.0253  0.8596
18354TIP3    H276554   4.564   3.569  17.011  0.6833  0.9107  0.7816
18355TIP3   OH276555   1.599   0.084   2.223  0.2281 -0.0171  0.6654
18355TIP3    H176556   1.585   0.043   2.309  0.6371 -0.2313  0.6284
18355TIP3    H276557   1.674   0.142   2.235  0.1258  0.1480  0.5173
18356TIP3   OH276558   4.029   5.363   0.248 -0.1411  1.1899  0.1633
18356TIP3    H176559   4.081   5.294   0.290 -0.5708  1.2024  0.7168
18356TIP3    H276560   4.083   5.442   0.257 -0.1104  1.1369  0.4522
18357TIP3   OH276561   0.710   0.927  13.765  0.2270  0.2839 -0.1660
18357TIP3    H176562   0.792   0.928  13.716  0.4972  1.2935  0.2982
18357TIP3    H276563   0.642   0.939  13.698  0.6601  2.8802 -0.1826
18358TIP3   OH276564   6.111   3.564  11.401 -0.8866 -0.0832  0.4307
18358TIP3    H176565   6.142   3.478  11.374 -1.3161 -0.8617  2.3525
18358TIP3    H276566   6.086   3.607  11.319  2.4476 -0.5228 -0.9206
18359TIP3   OH276567   1.361   0.321  16.380 -0.0504 -0.2212  0.2756
18359TIP3    H176568   1.417   0.337  16.456 -0.7323 -2.6039  1.3317
18359TIP3    H276569   1.417   0.338  16.305  1.7031 -1.2491  1.3087
18360TIP3   OH276570   3.788   6.343   3.225 -0.3327  0.2156  0.7775
18360TIP3    H176571   3.849   6.273   3.248 -1.7487 -1.0274  0.8842
18360TIP3    H276572   3.737   6.307   3.152 -0.8007  1.2983  0.5567
18361TIP3   OH276573   0.200   4.065  11.197 -0.5774  0.0944  0.1906
18361TIP3    H176574   0.105   4.054  11.185 -0.3960 -1.1111 -0.2771
18361TIP3    H276575   0.212   4.067  11.292 -1.1354  0.9166  0.2516
18362TIP3   OH276576   4.159   6.416   5.663  0.1016  0.0321  0.6114
18362TIP3    H176577   4.103   6.341   5.682  0.8368 -0.2405  1.7560
18362TIP3    H276578   4.221   6.383   5.598  0.9167 -0.6073  1.6835
18363TIP3   OH276579   4.058   4.415   3.152 -0.4168 -0.1513 -0.3550
18363TIP3    H176580   3.966   4.440   3.138 -0.3947 -0.2974 -0.7454
18363TIP3    H276581   4.060   4.320   3.140 -0.7508 -0.5411  2.4476
18364TIP3   OH276582   2.509   5.598   2.749  0.0984 -0.0883 -0.1288
18364TIP3    H176583   2.514   5.645   2.665  0.3954  0.8154  0.3872
18364TIP3    H276584   2.451   5.525   2.731  0.6526 -0.2665 -1.3030
18365TIP3   OH276585   1.549   1.333  10.947 -0.3275 -0.4206  0.1917
18365TIP3    H176586   1.644   1.346  10.951 -0.2173 -0.3618 -2.2732
18365TIP3    H276587   1.513   1.411  10.988  0.6694  0.1166  0.0689
18366TIP3   OH276588   0.007   4.444  10.919 -0.4469 -0.0139  0.9504
18366TIP3    H176589   0.087   4.486  10.948  0.5218  0.3163 -2.0679
18366TIP3    H276590   0.020   4.351  10.940  1.3769 -0.1964 -0.8554
18367TIP3   OH276591   3.296   4.342  12.931  0.4274  0.0632 -0.1066
18367TIP3    H176592   3.250   4.281  12.874 -1.1940  1.5436 -0.4145
18367TIP3    H276593   3.267   4.319  13.019 -2.3317  2.1026 -0.4185
18368TIP3   OH276594   0.846   2.047   5.565 -0.3633  0.0919 -0.8233
18368TIP3    H176595   0.890   1.964   5.548 -0.2635 -0.2064  0.7382
18368TIP3    H276596   0.797   2.031   5.646  0.2812  1.7628 -0.0730
18369TIP3   OH276597   0.670   3.254   0.469 -0.2999 -0.1756  0.0909
18369TIP3    H176598   0.729   3.282   0.539 -1.0408  0.5877  0.4181
18369TIP3    H276599   0.706   3.170   0.439 -1.0543 -1.4591  2.6666
18370TIP3   OH276600   4.677   1.106  15.610 -0.5429  0.0629 -0.6598
18370TIP3    H176601   4.666   1.168  15.537 -1.5817  2.0825  1.1676
18370TIP3    H276602   4.663   1.020  15.570 -1.5042  1.1678 -2.7823
18371TIP3   OH276603   1.988   5.011   5.946  0.0388  0.4936 -0.4712
18371TIP3    H176604   1.941   5.065   6.010  0.8117 -1.6719  1.9909
18371TIP3    H276605   2.001   5.070   5.871 -2.9750  2.3690  0.3718
18372TIP3   OH276606   1.708   0.608  16.695 -0.2619 -0.1356 -0.7604
18372TIP3    H176607   1.680   0.561  16.774  0.9930  0.4461  0.0385
18372TIP3    H276608   1.634   0.664  16.673 -1.8785 -2.5829 -1.8493
18373TIP3   OH276609   5.751   6.641   4.655  0.4080  0.0796 -0.7147
18373TIP3    H176610   5.695   6.565   4.673 -0.8278  1.0156 -0.5959
18373TIP3    H276611   5.760   6.642   4.560  1.0419 -0.6316 -0.6768
18374TIP3   OH276612   5.296   5.646   3.108  0.1902  0.2334  0.4149
18374TIP3    H176613   5.324   5.616   3.021 -0.0195 -0.5502  0.6134
18374TIP3    H276614   5.220   5.592   3.128  1.2277 -0.7293  1.7966
18375TIP3   OH276615   4.080   6.758  15.761 -0.0625  0.8426  0.3199
18375TIP3    H176616   4.162   6.713  15.742 -0.1637 -0.6225  3.1512
18375TIP3    H276617   4.027   6.694  15.808 -3.1570  1.5277 -2.0280
18376TIP3   OH276618   5.773   0.881  15.958 -0.0004  0.0121 -0.2348
18376TIP3    H176619   5.692   0.871  15.907  0.5855 -0.5254 -1.0919
18376TIP3    H276620   5.749   0.856  16.047 -0.3320 -2.1422 -0.8832
18377TIP3   OH276621   1.293   6.356   4.272  0.7746  0.5275 -0.2142
18377TIP3    H176622   1.336   6.326   4.352 -0.6845  0.1478  0.4542
18377TIP3    H276623   1.209   6.392   4.302  1.5651  3.3466 -1.2304
18378TIP3   OH276624   6.533   5.171  10.296 -0.1282  0.2685 -0.0141
18378TIP3    H176625   6.563   5.215  10.216  0.9860 -2.1106 -0.9533
18378TIP3    H276626   6.474   5.234  10.337  2.2470  3.1125 -0.7227
18379TIP3   OH276627   3.778   5.318   4.643 -0.2151 -0.1717  0.0673
18379TIP3    H176628   3.801   5.248   4.705  0.7193  0.9936  1.0861
18379TIP3    H276629   3.690   5.295   4.612 -0.6147 -0.9117  1.6681
18380TIP3   OH276630   1.033   4.987  17.247  0.5572  0.8819 -0.2782
18380TIP3    H176631   0.975   5.062  17.234 -0.9918  0.0334  1.5018
18380TIP3    H276632   1.119   5.026  17.265 -0.3886  2.2621  1.4174
18381TIP3   OH276633   0.598   4.024  13.281 -0.3647 -0.0632  0.0045
18381TIP3    H176634   0.559   4.068  13.357 -0.9633 -0.7478  0.0893
18381TIP3    H276635   0.690   4.053  13.282 -0.8599  1.5500 -0.1996
18382TIP3   OH276636   2.101   4.005  12.824 -0.6155  0.2245 -0.5834
18382TIP3    H176637   2.129   4.084  12.871 -1.9243 -0.5635  1.6210
18382TIP3    H276638   2.182   3.960  12.803 -0.0056 -0.1540  2.3521
18383TIP3   OH276639   5.256   2.416   2.259 -0.2280 -0.0009  0.7680
18383TIP3    H176640   5.257   2.332   2.213 -1.0078  0.4072 -0.0106
18383TIP3    H276641   5.348   2.434   2.278  0.2013  0.2254 -1.3898
18384TIP3   OH276642   4.446   3.004   1.904  0.6162  0.1737  0.3275
18384TIP3    H176643   4.374   2.943   1.891  0.4244  0.1285  1.4990
18384TIP3    H276644   4.518   2.950   1.938  0.4284  0.5867  1.4225
18385TIP3   OH276645   0.299   6.507  10.880  1.0054  0.4182 -0.3139
18385TIP3    H176646   0.365   6.541  10.941  1.2667  1.7441 -1.3228
18385TIP3    H276647   0.265   6.585  10.837 -2.2636 -0.1075  1.2135
18386TIP3   OH276648   5.155   5.770  12.572  0.1799  0.3959 -0.3624
18386TIP3    H176649   5.150   5.828  12.648 -1.6061 -1.2892  0.8616
18386TIP3    H276650   5.171   5.683  12.610  1.0551 -0.1838 -2.0441
18387TIP3   OH276651   5.597   3.331  16.489 -0.0529  0.4045  0.0066
18387TIP3    H176652   5.600   3.388  16.412 -0.4749  1.2081  0.5740
18387TIP3    H276653   5.563   3.248  16.456 -1.4797  1.1450 -0.4378
18388TIP3   OH276654   2.440   4.345   0.354 -1.0711  0.2017  0.2166
18388TIP3    H176655   2.506   4.402   0.314  1.2904 -2.2391  0.5414
18388TIP3    H276656   2.414   4.391   0.434  0.5303  0.9999  0.2869
18389TIP3   OH276657   2.692   4.434  13.629 -0.5009 -0.3280 -0.2947
18389TIP3    H176658   2.616   4.394  13.587 -2.2037  0.1740  2.2096
18389TIP3    H276659   2.748   4.359  13.653 -2.0983 -0.9990  1.4135
18390TIP3   OH276660   2.154   0.969   0.723  0.1884  0.3026 -1.0767
18390TIP3    H176661   2.187   0.929   0.804 -0.2141 -0.5991 -1.3626
18390TIP3    H276662   2.152   1.063   0.743 -1.2361 -0.0229  0.4397
18391TIP3   OH276663   5.783   0.509   4.678  0.2247 -0.0020  0.3099
18391TIP3    H176664   5.867   0.524   4.721  0.1682  1.7428 -0.1806
18391TIP3    H276665   5.782   0.570   4.604 -0.7350 -1.2348 -0.7292
18392TIP3   OH276666   6.007   6.192  11.535  0.1950  0.9080  0.3045
18392TIP3    H176667   6.084   6.164  11.586 -0.9712 -0.3136  1.4309
18392TIP3    H276668   5.933   6.154  11.582 -0.8755 -0.8056 -2.7047
18393TIP3   OH276669   0.261   3.647  16.085 -0.2150 -0.4749 -0.0256
18393TIP3    H176670   0.319   3.721  16.068  0.8298 -1.5255 -1.1214
18393TIP3    H276671   0.176   3.675  16.049  0.1176  0.2540 -0.2586
18394TIP3   OH276672   1.900   2.940  11.030  0.4311 -0.0323  0.7147
18394TIP3    H176673   1.925   3.030  11.047  0.9816 -0.3925  1.8446
18394TIP3    H276674   1.856   2.943  10.945 -0.8957  1.5471  1.4286
18395TIP3   OH276675   6.015   3.949   5.439 -0.5267  0.1457  0.3009
18395TIP3    H176676   5.926   3.983   5.434 -1.3647 -1.8458  1.0446
18395TIP3    H276677   6.009   3.876   5.501  1.9327  0.9468  1.5424
18396TIP3   OH276678   6.009   5.865   0.309  0.0411 -0.3407 -0.1272
18396TIP3    H176679   5.967   5.795   0.359  0.1589  0.7032  1.4393
18396TIP3    H276680   6.088   5.885   0.358  0.0557  0.8294 -0.6248
18397TIP3   OH276681   2.119   5.473   4.475  1.0549  0.3447  1.0251
18397TIP3    H176682   2.151   5.383   4.465  0.3010  0.1694  0.0655
18397TIP3    H276683   2.123   5.490   4.569  1.7482 -0.4917  1.1504
18398TIP3   OH276684   4.115   1.841  11.599  0.1175 -0.3763  0.1383
18398TIP3    H176685   4.172   1.902  11.647 -0.7053  0.2397  0.3405
18398TIP3    H276686   4.074   1.789  11.667 -1.2892  0.7060  0.1427
18399TIP3   OH276687   3.883   2.077   1.082  0.5063 -0.0736 -0.2620
18399TIP3    H176688   3.886   2.092   1.177 -0.4837  0.1507 -0.2696
18399TIP3    H276689   3.803   2.027   1.068  1.4406 -1.4305 -0.8012
18400TIP3   OH276690   0.997   1.926  10.768 -0.3568 -0.2807 -0.9286
18400TIP3    H176691   0.992   1.835  10.737 -0.0220 -0.7012  0.2350
18400TIP3    H276692   1.023   1.976  10.690 -1.8153 -0.9862 -1.8983
18401TIP3   OH276693   3.152   2.744  14.326 -0.3845 -0.3691  0.7635
18401TIP3    H176694   3.079   2.711  14.273 -1.1702  2.8572 -0.2590
18401TIP3    H276695   3.175   2.670  14.382 -1.7761 -2.7828 -1.6704
18402TIP3   OH276696   4.881   1.963  14.228  0.5036  0.2627  0.6245
18402TIP3    H176697   4.967   1.923  14.222 -0.6108 -2.1009 -0.2771
18402TIP3    H276698   4.828   1.917  14.163 -1.5443  1.4109  1.4092
18403TIP3   OH276699   4.971   6.345  14.483  0.4088  0.5841  0.0255
18403TIP3    H176700   5.061   6.322  14.507  0.1931  0.9312  1.1848
18403TIP3    H276701   4.944   6.407  14.550 -0.1519  1.7004 -1.2114
18404TIP3   OH276702   4.447   2.772  15.547 -0.5995 -0.4887  0.3561
18404TIP3    H176703   4.443   2.864  15.574  0.8909 -0.7865  1.6807
18404TIP3    H276704   4.449   2.775  15.452  1.6231  0.9794  0.4070
18405TIP3   OH276705   4.445   0.813   2.894  0.1234 -0.2500  0.5569
18405TIP3    H176706   4.419   0.905   2.892 -1.1258 -0.6182 -1.6615
18405TIP3    H276707   4.540   0.815   2.879 -0.2584  0.5762 -1.9753
18406TIP3   OH276708   0.942   3.010   3.176 -0.0050  0.1983  0.1407
18406TIP3    H176709   0.907   2.941   3.231 -0.7249 -1.1728 -1.9783
18406TIP3    H276710   0.973   2.965   3.097  1.3319  2.0500 -0.4290
18407TIP3   OH276711   3.091   5.253  16.973  0.1693 -0.4207  0.2192
18407TIP3    H176712   3.104   5.345  16.994 -2.3423  0.0792 -0.1694
18407TIP3    H276713   3.037   5.253  16.894  0.6770 -2.2221 -0.1589
18408TIP3   OH276714   2.813   3.111  13.505  0.4117  0.1711 -0.0538
18408TIP3    H176715   2.888   3.162  13.538  0.1392 -0.0832  0.9900
18408TIP3    H276716   2.748   3.117  13.575 -0.6164  0.5138 -1.0231
18409TIP3   OH276717   5.412   4.278   0.310 -0.4494 -0.0317 -0.1799
18409TIP3    H176718   5.488   4.306   0.258 -1.3362 -0.3183 -1.6331
18409TIP3    H276719   5.390   4.355   0.362  0.0069  0.4853 -0.7361
18410TIP3   OH276720   0.060   0.189   1.816 -0.1558  0.5669  0.4339
18410TIP3    H176721   0.128   0.255   1.828  0.2850  0.3004 -0.5055
18410TIP3    H276722   0.021   0.210   1.731 -0.4165 -0.0113  0.4070
18411TIP3   OH276723   3.778   2.517  13.069 -0.4148 -0.4810  0.4386
18411TIP3    H176724   3.781   2.423  13.052  2.0298 -0.1578 -1.3537
18411TIP3    H276725   3.728   2.553  12.996 -0.0195 -0.2539  0.2763
18412TIP3   OH276726   0.310   3.259   4.969 -0.4036  0.1424  0.4716
18412TIP3    H176727   0.360   3.338   4.989 -1.1640  0.9623 -0.7715
18412TIP3    H276728   0.318   3.250   4.874  1.2865 -2.3791  0.8184
18413TIP3   OH276729   3.714   5.363  11.664  0.1594 -0.0324 -0.2737
18413TIP3    H176730   3.733   5.454  11.684  1.1262 -1.0228  3.6750
18413TIP3    H276731   3.626   5.365  11.626 -0.3565  2.4196  0.9358
18414TIP3   OH276732   4.671   3.745   1.167  0.0610  0.2683  0.0919
18414TIP3    H176733   4.695   3.683   1.099 -1.0744  0.8072 -0.8199
18414TIP3    H276734   4.718   3.826   1.143 -0.1748  0.3968  0.0611
18415TIP3   OH276735   1.691   5.936   2.552  0.1282  0.0891  0.0098
18415TIP3    H176736   1.770   5.892   2.583 -0.1202 -1.3369 -1.3312
18415TIP3    H276737   1.624   5.913   2.616  0.3108 -0.4194  0.0229
18416TIP3   OH276738   2.388   5.427  15.850  0.1684  0.3928  0.0752
18416TIP3    H176739   2.466   5.373  15.857  1.9954  3.1546  1.9044
18416TIP3    H276740   2.388   5.459  15.760  1.9920  1.5693  0.4805
18417TIP3   OH276741   2.139   0.729  12.288 -0.3983  0.1054 -0.5872
18417TIP3    H176742   2.191   0.651  12.307 -0.5510 -0.1584 -1.2688
18417TIP3    H276743   2.133   0.732  12.193 -1.1400  0.4597 -0.5355
18418TIP3   OH276744   3.647   4.186  11.445  0.0918  0.6278 -0.0524
18418TIP3    H176745   3.630   4.275  11.416 -1.9958  0.5871  0.9332
18418TIP3    H276746   3.638   4.133  11.366 -0.1676  1.1290 -0.3623
18419TIP3   OH276747   3.606   3.454   6.090 -0.5748 -0.0074 -0.4820
18419TIP3    H176748   3.656   3.462   6.171 -2.4225  1.4287  0.5534
18419TIP3    H276749   3.562   3.369   6.097  0.2656 -0.4550 -0.5722
18420TIP3   OH276750   4.931   0.272   3.696  0.0323 -0.1543  0.0725
18420TIP3    H176751   4.840   0.295   3.679  0.1246  0.9189  0.9330
18420TIP3    H276752   4.980   0.350   3.671  0.5538 -0.1198  1.1822
18421TIP3   OH276753   4.065   5.950  13.712  1.3981  0.7403  0.2797
18421TIP3    H176754   4.030   5.865  13.685  1.4315  1.0614 -0.8001
18421TIP3    H276755   4.158   5.935  13.726  1.0431  0.1233  2.1577
18422TIP3   OH276756   0.447   1.273   1.497  0.0191 -0.3058  0.8769
18422TIP3    H176757   0.536   1.240   1.509  0.0182 -0.5409  0.2251
18422TIP3    H276758   0.450   1.323   1.415 -0.4458 -0.3010  0.8593
18423TIP3   OH276759   1.010   0.639  13.760  0.3770  0.9047 -0.4642
18423TIP3    H176760   0.947   0.704  13.729  1.4647  0.4818 -3.6581
18423TIP3    H276761   0.956   0.570  13.798 -0.9061  2.1357  0.0206
18424TIP3   OH276762   0.835   3.783  14.686  0.0144  0.4742  0.3692
18424TIP3    H176763   0.802   3.819  14.604 -3.1503 -0.4208  1.2075
18424TIP3    H276764   0.784   3.704  14.701  1.8426 -0.4038  2.2574
18425TIP3   OH276765   0.564   2.642  15.321 -0.6648 -0.2752 -0.2011
18425TIP3    H176766   0.582   2.729  15.357  1.2684  0.0225 -1.8070
18425TIP3    H276767   0.570   2.654  15.226  0.7616 -2.3975 -0.4100
18426TIP3   OH276768   6.205   4.186   0.636 -0.1575 -0.2539  0.4284
18426TIP3    H176769   6.196   4.159   0.545  0.6463  0.9393 -0.0254
18426TIP3    H276770   6.140   4.255   0.647 -0.9978 -1.1445  1.0738
18427TIP3   OH276771   4.169   3.837  16.886  0.4709  0.0142  0.4332
18427TIP3    H176772   4.122   3.843  16.970 -0.3328  0.5038 -0.0443
18427TIP3    H276773   4.257   3.810  16.910  0.2968  0.3336  1.4622
18428TIP3   OH276774   5.380   6.516   4.528  0.0842  0.9892 -0.3239
18428TIP3    H176775   5.289   6.488   4.527  0.6094 -0.7512  0.0373
18428TIP3    H276776   5.376   6.610   4.511 -1.6891  0.7059 -1.6026
18429TIP3   OH276777   0.219   4.233  15.343  0.2575  0.6533 -0.0843
18429TIP3    H176778   0.296   4.252  15.291  0.9375 -0.8716  0.3168
18429TIP3    H276779   0.187   4.149  15.310 -0.7539  0.8702  0.2939
18430TIP3   OH276780   1.824   4.808   2.830 -0.3413 -0.2546  0.2151
18430TIP3    H176781   1.761   4.867   2.872  0.6746  0.0059  1.3979
18430TIP3    H276782   1.842   4.741   2.897  1.5016  0.3141  0.3224
18431TIP3   OH276783   2.018   0.302  12.742  0.4862  0.6206 -0.2466
18431TIP3    H176784   1.933   0.292  12.784  0.1748 -1.1062 -1.2220
18431TIP3    H276785   2.015   0.390  12.704 -1.0149  0.4453 -0.5871
18432TIP3   OH276786   2.493   5.171   5.737  0.4932  0.0683 -0.3901
18432TIP3    H176787   2.458   5.141   5.820  0.5384 -1.8017 -1.0088
18432TIP3    H276788   2.500   5.266   5.746 -3.5609  0.4027  0.1974
18433TIP3   OH276789   0.001   0.702   5.879  0.4540 -0.3567  0.3374
18433TIP3    H176790  -0.018   0.692   5.972  0.8120 -2.3375  0.2226
18433TIP3    H276791  -0.070   0.653   5.835  1.8938 -1.9231 -0.3079
18434TIP3   OH276792   1.363   1.870   5.431 -0.5953  0.2020 -0.3834
18434TIP3    H176793   1.437   1.897   5.486 -0.0388 -0.2938 -0.8838
18434TIP3    H276794   1.287   1.876   5.489  0.1638 -1.6257  0.8375
18435TIP3   OH276795   0.521   2.944  16.113 -0.0692  0.1624 -0.4074
18435TIP3    H176796   0.447   2.987  16.070 -0.8819 -0.8578 -0.0501
18435TIP3    H276797   0.535   2.994  16.193 -0.4603  0.2610 -0.4051
18436TIP3   OH276798   3.861   6.047   5.003  0.2038  0.0061  0.3125
18436TIP3    H176799   3.894   6.067   4.915 -0.3166  1.8744  0.5255
18436TIP3    H276800   3.899   6.115   5.058  1.5827 -1.9209  1.7791
18437TIP3   OH276801   5.073   6.376  11.429 -0.1250  0.1003 -0.3530
18437TIP3    H176802   5.117   6.371  11.345 -4.2650  1.0818 -2.6821
18437TIP3    H276803   5.038   6.465  11.434 -1.3175 -0.4252  1.6509
18438TIP3   OH276804   2.293   1.009   4.749 -0.4213  0.4690  0.1047
18438TIP3    H176805   2.294   1.096   4.710  2.6612  1.1037  1.4936
18438TIP3    H276806   2.228   0.961   4.698 -0.4126  2.8358 -2.2397
18439TIP3   OH276807   3.125   1.686  12.582  0.6385 -0.5830  0.0140
18439TIP3    H176808   3.169   1.689  12.667  0.1542  2.4759  0.2053
18439TIP3    H276809   3.038   1.652  12.602 -0.8059  3.6660  1.4433
18440TIP3   OH276810   3.745   6.092  15.323 -0.3722  0.1630  0.0811
18440TIP3    H176811   3.824   6.119  15.277  0.0963 -0.8420  0.2728
18440TIP3    H276812   3.723   6.166  15.379  1.4900 -0.2424  1.3912
18441TIP3   OH276813   4.873   6.291   2.248  0.5573  0.1681  0.2459
18441TIP3    H176814   4.946   6.353   2.254  1.7375 -1.1138 -0.5127
18441TIP3    H276815   4.898   6.220   2.307  0.7704 -1.0925 -1.3154
18442TIP3   OH276816   5.904   3.227  11.185  0.0703 -0.1575  0.2512
18442TIP3    H176817   5.965   3.157  11.164 -0.6377 -1.1149  1.3564
18442TIP3    H276818   5.922   3.248  11.276  0.2939  1.1287 -0.0753
18443TIP3   OH276819   1.210   4.056   2.433  0.2936  0.6521 -0.2003
18443TIP3    H176820   1.152   4.129   2.452  0.4686  0.9861 -0.9289
18443TIP3    H276821   1.276   4.092   2.374  1.4369  0.3679  0.8544
18444TIP3   OH276822   1.992   3.137   3.688 -0.2754  0.5483  0.2004
18444TIP3    H176823   2.028   3.178   3.767  0.1235  1.4927 -0.4586
18444TIP3    H276824   2.067   3.132   3.628 -0.5348 -0.3336 -0.0523
18445TIP3   OH276825   5.372   0.154   1.321  0.1243  0.5173  0.6335
18445TIP3    H176826   5.389   0.060   1.316 -0.3843  0.3962  1.1618
18445TIP3    H276827   5.414   0.190   1.243  0.6796 -0.0935  0.6491
18446TIP3   OH276828   4.716   3.212   3.500 -0.3195 -0.0362  0.3064
18446TIP3    H176829   4.681   3.170   3.579 -1.2505  0.9410  0.4262
18446TIP3    H276830   4.697   3.151   3.429  2.7852 -2.1091  1.1734
18447TIP3   OH276831   1.649   3.033   1.004  0.5030 -0.1623  0.4532
18447TIP3    H176832   1.623   2.941   1.002 -1.3397  0.3435 -2.2778
18447TIP3    H276833   1.568   3.081   0.987  1.7195  1.9092  0.2909
18448TIP3   OH276834   2.863   4.218  13.386 -0.1891  0.3150  0.4982
18448TIP3    H176835   2.958   4.208  13.382 -0.2013  0.6332 -1.5423
18448TIP3    H276836   2.837   4.182  13.471  1.7366  0.1164  1.0061
18449TIP3   OH276837   4.606   4.064   0.219  0.6258 -0.0025  0.1564
18449TIP3    H176838   4.637   4.071   0.128  2.5279 -0.4454  0.7369
18449TIP3    H276839   4.528   4.119   0.222  0.0089 -0.6871 -1.9725
18450TIP3   OH276840   2.313   0.486  13.792 -0.1346 -0.5084  0.1170
18450TIP3    H176841   2.378   0.424  13.760 -0.2454 -0.6059  0.0795
18450TIP3    H276842   2.232   0.462  13.746  0.0382  0.2660 -0.6084
18451TIP3   OH276843   2.174   0.008  14.061 -0.2125 -0.1977 -0.1067
18451TIP3    H176844   2.236   0.006  13.989 -0.6702 -1.6254 -0.4767
18451TIP3    H276845   2.109   0.075  14.036  0.8335  0.8835  0.0192
18452TIP3   OH276846   5.706   5.416   4.466  0.2801  0.3918  0.6133
18452TIP3    H176847   5.642   5.361   4.422  1.2920 -0.6269  0.3815
18452TIP3    H276848   5.771   5.437   4.399  0.8957  0.3073  1.1713
18453TIP3   OH276849   0.991   4.437  13.548 -0.4047 -0.4551 -0.0019
18453TIP3    H176850   0.992   4.364  13.611  0.6291 -0.1361  0.3565
18453TIP3    H276851   0.920   4.416  13.488  0.9384 -2.6380 -0.9058
18454TIP3   OH276852   2.516   2.699  13.992 -0.1979 -0.4530 -0.1394
18454TIP3    H176853   2.437   2.670  14.037 -0.5646 -0.4888 -0.7997
18454TIP3    H276854   2.564   2.618  13.973  0.2342 -0.3981  0.6808
18455TIP3   OH276855   4.990   5.996  13.096 -0.0199  0.4019  0.0218
18455TIP3    H176856   5.018   6.076  13.052 -1.9786  1.4617  0.6444
18455TIP3    H276857   5.043   5.994  13.176 -1.3683  2.1973  1.0117
18456TIP3   OH276858   2.187   2.676  11.242 -0.5518 -0.0877 -0.2889
18456TIP3    H176859   2.178   2.597  11.189  0.6334 -1.1121  1.0006
18456TIP3    H276860   2.103   2.684  11.287 -0.7162 -0.5495 -0.5079
18457TIP3   OH276861   5.893   1.596  14.986 -0.0540  0.9526  0.2442
18457TIP3    H176862   5.970   1.542  14.969  0.3894  1.5090  0.4605
18457TIP3    H276863   5.830   1.569  14.919 -0.7049 -1.4701  1.7515
18458TIP3   OH276864   5.200   5.001  14.797  0.4604 -0.0225  0.5463
18458TIP3    H176865   5.153   4.947  14.860  0.3008 -0.2015  0.2740
18458TIP3    H276866   5.261   4.941  14.755 -0.2861 -0.1824 -0.3366
18459TIP3   OH276867   3.265   2.825   0.407  0.5629  0.6808 -0.0880
18459TIP3    H176868   3.327   2.803   0.476  2.6567  1.8499 -1.5158
18459TIP3    H276869   3.182   2.789   0.437  2.0145 -1.3806  1.6541
18460TIP3   OH276870   1.215   2.066   5.693  0.0655  0.3597  0.1131
18460TIP3    H176871   1.296   2.103   5.729  0.3166  1.0003 -1.0866
18460TIP3    H276872   1.146   2.120   5.731  0.2753  0.5229  0.2651
18461TIP3   OH276873   2.555   5.892  12.034 -0.1046 -0.2899 -0.2119
18461TIP3    H176874   2.573   5.899  11.940 -0.6507  0.2967 -0.2714
18461TIP3    H276875   2.640   5.871  12.072 -0.0564 -1.4650 -0.9345
18462TIP3   OH276876   1.408   4.853  13.483 -0.4978  0.3334  0.0414
18462TIP3    H176877   1.324   4.897  13.472 -0.6586  0.1942  0.6951
18462TIP3    H276878   1.430   4.821  13.396 -1.4889 -0.2882  0.0166
18463TIP3   OH276879   2.781   4.103  11.210  0.3085 -0.1410 -0.6107
18463TIP3    H176880   2.785   4.063  11.123 -0.1642  0.8368 -1.0944
18463TIP3    H276881   2.835   4.182  11.203  0.3475 -0.1082  0.0125
18464TIP3   OH276882   2.790   2.448   6.424 -0.5368 -0.4387 -0.0424
18464TIP3    H176883   2.818   2.473   6.336 -1.3664  0.2616 -0.1199
18464TIP3    H276884   2.782   2.353   6.420 -0.7976 -0.3958 -0.8020
18465TIP3   OH276885   5.897   5.106  11.277  0.0620  0.1077 -0.4147
18465TIP3    H176886   5.909   5.092  11.371 -0.8053 -0.8092 -0.4290
18465TIP3    H276887   5.893   5.201  11.267  2.9495  0.3181  0.0989
18466TIP3   OH276888   4.545   4.854  16.843  0.1491 -0.3709  0.6295
18466TIP3    H176889   4.580   4.927  16.792  0.6648  0.6288  2.3598
18466TIP3    H276890   4.451   4.869  16.845  0.4078  1.3609  2.5408
18467TIP3   OH276891   1.169   5.415   4.169 -0.1505 -0.3785 -0.0441
18467TIP3    H176892   1.146   5.437   4.078  1.1437  2.8997  0.3467
18467TIP3    H276893   1.262   5.434   4.175  0.2998 -2.8957  1.3527
18468TIP3   OH276894   1.148   5.147   0.305  0.4000 -0.6643  0.0789
18468TIP3    H176895   1.221   5.097   0.270  0.7733  0.2762 -0.5145
18468TIP3    H276896   1.154   5.232   0.262 -1.2948 -0.7134 -0.3064
18469TIP3   OH276897   6.343   0.522   4.317  0.4725  0.0750 -0.4927
18469TIP3    H176898   6.254   0.487   4.306  0.3142  0.2075  0.2738
18469TIP3    H276899   6.329   0.605   4.363  0.9367  0.5189 -1.1489
18470TIP3   OH276900   1.709   1.451  16.166 -0.3764 -0.3787  0.0012
18470TIP3    H176901   1.804   1.438  16.178 -0.5243 -0.9396  0.5870
18470TIP3    H276902   1.697   1.454  16.071  0.2935  0.1549 -0.0661
18471TIP3   OH276903   5.109   4.020   1.200 -0.4652 -0.2612 -0.6472
18471TIP3    H176904   5.114   3.983   1.112 -3.0905 -2.0172 -0.1100
18471TIP3    H276905   5.027   4.070   1.200 -0.6873 -0.6009  0.8947
18472TIP3   OH276906   3.598   0.201   0.179 -0.3159  0.1698 -0.2117
18472TIP3    H176907   3.619   0.260   0.107  0.0523 -0.1001 -0.3261
18472TIP3    H276908   3.653   0.230   0.251 -0.2734  0.0889 -0.2107
18473TIP3   OH276909   4.728   4.010  12.174 -0.1830  0.7734  0.3770
18473TIP3    H176910   4.768   3.971  12.252 -1.0809  0.1723  0.5482
18473TIP3    H276911   4.634   3.995  12.185 -0.2041 -0.7784 -1.5931
18474TIP3   OH276912   1.390   6.733  14.372 -0.2510  0.5811 -0.3950
18474TIP3    H176913   1.310   6.779  14.399 -0.7723 -0.4648 -0.1411
18474TIP3    H276914   1.359   6.658  14.321  0.4926 -0.6624  0.9358
18475TIP3   OH276915   4.108   2.139  14.024 -0.0579 -0.1135 -0.2608
18475TIP3    H176916   4.181   2.185  14.066  0.4566  0.2259 -1.5317
18475TIP3    H276917   4.116   2.158  13.931 -0.5387 -1.7963 -0.6726
18476TIP3   OH276918   4.018   2.462  14.407 -0.0794 -0.2164  0.4196
18476TIP3    H176919   4.060   2.475  14.492 -0.6066  2.0153  0.3765
18476TIP3    H276920   4.082   2.493  14.344 -0.2447 -0.5047  0.1134
18477TIP3   OH276921   2.012   2.022   4.619  0.1322 -0.5712  0.3658
18477TIP3    H176922   1.924   2.055   4.637 -0.4269 -2.1563  0.6527
18477TIP3    H276923   2.059   2.034   4.701 -0.1653 -0.7727  0.5689
18478TIP3   OH276924   5.368   0.610  14.546 -0.0749  0.1558  0.2665
18478TIP3    H176925   5.400   0.699  14.559 -2.2296  0.9126  0.5730
18478TIP3    H276926   5.384   0.565  14.629  0.0752  0.5511  0.4477
18479TIP3   OH276927   5.640   1.414  11.243  0.4354 -0.1424  0.3786
18479TIP3    H176928   5.585   1.444  11.171  0.2900  1.0381  0.9704
18479TIP3    H276929   5.585   1.353  11.292 -0.7952  1.9108  1.6405
18480TIP3   OH276930   0.459   3.955  16.929  0.0070 -0.0723 -0.3841
18480TIP3    H176931   0.371   3.953  16.890 -0.2027  0.4879  0.0396
18480TIP3    H276932   0.488   4.046  16.918 -0.3340  0.2643  1.3347
18481TIP3   OH276933   4.411   0.782  11.656  0.1526 -0.2055  0.4861
18481TIP3    H176934   4.475   0.738  11.600  1.4076  0.8380  1.0961
18481TIP3    H276935   4.343   0.811  11.595  0.3690 -1.1015 -0.1995
18482TIP3   OH276936   0.392   2.521   4.746  0.7634 -0.5760 -0.4275
18482TIP3    H176937   0.339   2.478   4.814 -0.4329 -0.1887 -1.1042
18482TIP3    H276938   0.482   2.506   4.773  0.3628 -3.1600 -0.4286
18483TIP3   OH276939   6.396   1.629   5.923  0.2768 -0.0330 -0.1713
18483TIP3    H176940   6.352   1.666   5.847  0.3517  0.2785 -0.0650
18483TIP3    H276941   6.460   1.568   5.886 -2.2872 -2.7777 -0.2169
18484TIP3   OH276942   5.090   2.865   5.504  0.5080 -0.1786  0.0485
18484TIP3    H176943   5.182   2.850   5.525  0.6294  2.2821  1.4550
18484TIP3    H276944   5.089   2.944   5.450 -0.8026  0.1338  0.4939
18485TIP3   OH276945   2.380   0.014   5.721 -0.0718 -0.4017 -0.1776
18485TIP3    H176946   2.453  -0.005   5.662 -0.7318 -0.4518 -0.9846
18485TIP3    H276947   2.315   0.057   5.666  0.1477  1.4514  0.9784
18486TIP3   OH276948   5.032   3.439   2.894 -0.1927  0.2101 -0.5546
18486TIP3    H176949   5.035   3.392   2.811  0.7515  1.0496 -0.9992
18486TIP3    H276950   5.124   3.458   2.915 -0.3640 -0.7561  1.1117
18487TIP3   OH276951   0.577   5.373  16.712  0.1079 -0.1643  0.1683
18487TIP3    H176952   0.508   5.437  16.691  0.6213  0.6188  0.7988
18487TIP3    H276953   0.545   5.329  16.791  1.4223  1.9368  1.9320
18488TIP3   OH276954   4.588   3.422  13.830  0.1073  0.0896  0.1687
18488TIP3    H176955   4.574   3.458  13.918  0.5282  1.5532 -0.3429
18488TIP3    H276956   4.521   3.464  13.776 -0.2862 -0.9629 -0.1796
18489TIP3   OH276957   4.423   2.480   5.582  0.3608 -0.3003 -0.3698
18489TIP3    H176958   4.401   2.547   5.647 -0.0536 -0.0780 -0.7344
18489TIP3    H276959   4.475   2.526   5.516  0.1924 -0.3672 -0.5512
18490TIP3   OH276960   1.587   3.372   2.471 -0.0005  0.2264  0.1955
18490TIP3    H176961   1.598   3.286   2.429  0.5890  0.6651 -0.5476
18490TIP3    H276962   1.498   3.399   2.446 -0.1432 -0.1115  0.3322
18491TIP3   OH276963   4.346   2.289  14.960 -0.4620 -0.0044 -0.1029
18491TIP3    H176964   4.428   2.297  14.911 -0.4378 -1.6606 -0.3477
18491TIP3    H276965   4.362   2.339  15.040  0.8787 -0.5167 -0.0359
18492TIP3   OH276966   0.366   5.267  14.486  0.1586  0.1835 -0.1313
18492TIP3    H176967   0.344   5.324  14.412 -0.9683  0.8835  0.7466
18492TIP3    H276968   0.362   5.324  14.563  0.8125 -0.6642  0.5378
18493TIP3   OH276969   5.016   4.865  13.682 -0.5445 -0.5298  0.6100
18493TIP3    H176970   5.066   4.930  13.633 -1.9671 -0.2465 -0.5218
18493TIP3    H276971   5.072   4.841  13.755  0.7867  0.5591 -0.0325
18494TIP3   OH276972   5.849   5.889   4.660  0.0896 -0.8603 -0.1182
18494TIP3    H176973   5.815   5.805   4.627  0.1989 -0.7445 -0.5279
18494TIP3    H276974   5.781   5.922   4.718 -0.5672 -0.5481 -1.0671
18495TIP3   OH276975   0.057   1.223  15.900  0.1386 -0.4419 -0.3750
18495TIP3    H176976   0.098   1.247  15.983  1.6640 -0.8490 -0.9844
18495TIP3    H276977  -0.025   1.272  15.897  1.0350  1.1085  0.4518
18496TIP3   OH276978   1.372   6.012  14.757  0.8344 -0.1395 -0.4931
18496TIP3    H176979   1.377   6.107  14.765  0.6655 -0.0825 -1.0533
18496TIP3    H276980   1.448   5.979  14.806 -0.8788  0.1421  2.4905
18497TIP3   OH276981   0.387   6.073   3.305 -0.0513 -0.3831 -0.2227
18497TIP3    H176982   0.376   6.005   3.238  1.6713 -1.8150  0.9118
18497TIP3    H276983   0.472   6.113   3.286  0.0693 -0.2307  0.6170
18498TIP3   OH276984   6.168   1.937   3.639 -0.6190  0.5926  0.1076
18498TIP3    H176985   6.077   1.944   3.666 -0.8606  1.3321 -0.8946
18498TIP3    H276986   6.176   1.993   3.562  0.8518  1.1233  0.6126
18499TIP3   OH276987   0.733   4.177   2.963 -0.1626  0.0398 -0.1087
18499TIP3    H176988   0.747   4.263   3.003  1.4944 -0.0616 -0.4709
18499TIP3    H276989   0.811   4.161   2.910 -0.8148 -1.3399 -0.6819
18500TIP3   OH276990   1.314   6.633  14.718 -0.3042  0.5891 -0.6211
18500TIP3    H176991   1.398   6.587  14.717  0.5710  2.0682  1.1914
18500TIP3    H276992   1.286   6.629  14.809 -1.3752  1.5820 -0.9025
18501TIP3   OH276993   0.214   1.299   2.322  0.3072 -0.2141 -0.0154
18501TIP3    H176994   0.211   1.395   2.317  0.1864 -0.2872 -1.6767
18501TIP3    H276995   0.159   1.277   2.397  1.1186  1.0677  0.9581
18502TIP3   OH276996   6.546   4.715   2.888 -0.7064  0.0537 -0.1939
18502TIP3    H176997   6.536   4.747   2.978 -0.3748 -0.7434  0.1309
18502TIP3    H276998   6.573   4.623   2.898  0.4020  0.2728 -1.1040
18503TIP3   OH276999   5.789   2.026  17.286 -0.1197 -0.0162  0.4535
18503TIP3    H177000   5.799   1.940  17.244  0.0329  1.2165 -2.1768
18503TIP3    H277001   5.723   2.012  17.354 -0.9746 -1.9663 -0.7145
18504TIP3   OH277002   0.306   2.161   3.207 -0.4896  0.0277 -0.0685
18504TIP3    H177003   0.352   2.202   3.133 -0.0542 -1.1994 -0.4963
18504TIP3    H277004   0.216   2.150   3.175 -0.0359 -1.5420 -0.8602
18505TIP3   OH277005   3.116   3.937   3.128  0.5743  0.6945  0.1717
18505TIP3    H177006   3.122   4.020   3.081  2.7361  1.0197  0.9666
18505TIP3    H277007   3.192   3.886   3.099 -1.1852 -1.3909 -0.9685
18506TIP3   OH277008   0.372   0.115   1.828 -0.2607  0.4124  0.4649
18506TIP3    H177009   0.425   0.166   1.889  1.1502  0.7004 -0.9592
18506TIP3    H277010   0.362   0.172   1.752  1.3992 -1.4185 -1.1828
18507TIP3   OH277011   0.597   4.688  12.169  1.0596  0.0035  0.4137
18507TIP3    H177012   0.600   4.781  12.192 -1.5368  0.0470  0.7246
18507TIP3    H277013   0.689   4.660  12.173  1.6341  1.9663  2.7555
18508TIP3   OH277014   2.330   6.497  15.786  0.1540  0.1222  0.1226
18508TIP3    H177015   2.363   6.410  15.766  0.2641 -0.3142  2.0683
18508TIP3    H277016   2.405   6.544  15.822  0.2833  1.2830 -1.5866
18509TIP3   OH277017   3.129   6.692   2.832  0.2092  0.2687 -0.1255
18509TIP3    H177018   3.072   6.720   2.761  0.4415  0.1866 -0.3467
18509TIP3    H277019   3.118   6.597   2.836  1.3663  0.0829 -1.0805
18510TIP3   OH277020   0.631   3.946   1.999  0.7005  0.0854  0.6896
18510TIP3    H177021   0.619   3.908   2.087  0.5632  0.3882  0.8009
18510TIP3    H277022   0.686   3.883   1.953 -0.5659 -0.8943  0.4684
18511TIP3   OH277023   5.749   2.470   3.622 -0.5285  0.2346  0.3064
18511TIP3    H177024   5.820   2.433   3.569 -0.7170  0.7943 -0.3405
18511TIP3    H277025   5.793   2.535   3.677 -0.3499 -0.2650  0.7544
18512TIP3   OH277026   0.206   6.070  11.866  0.5729  0.2896  0.1830
18512TIP3    H177027   0.261   6.061  11.788  0.4272 -0.0057  0.1133
18512TIP3    H277028   0.231   5.995  11.921 -1.1299 -0.9464 -0.6902
18513TIP3   OH277029   4.326   1.918  15.767 -0.0727  0.4473  0.3713
18513TIP3    H177030   4.387   1.844  15.770 -0.1305  0.1933 -3.3411
18513TIP3    H277031   4.241   1.879  15.791  0.3859 -0.0843  1.1827
18514TIP3   OH277032   5.807   4.974  12.630  0.1149  0.3888 -0.0786
18514TIP3    H177033   5.762   4.955  12.712  1.9383 -0.8716  0.6827
18514TIP3    H277034   5.761   4.922  12.564  0.3690 -0.8157  0.6733
18515TIP3   OH277035   6.129   0.659   0.773 -0.4245 -0.7006 -0.6403
18515TIP3    H177036   6.108   0.642   0.865 -1.6276 -0.6069 -0.8815
18515TIP3    H277037   6.122   0.754   0.763 -2.3227 -0.8722 -1.2719
18516TIP3   OH277038   4.170   3.833  15.444  0.4164 -0.5404 -0.6410
18516TIP3    H177039   4.153   3.906  15.384 -1.1892  1.7891  2.4665
18516TIP3    H277040   4.183   3.875  15.529  2.5203 -3.7283  0.7137
18517TIP3   OH277041   4.078   4.290   2.202 -0.2521 -0.1125 -0.2138
18517TIP3    H177042   4.039   4.272   2.116  0.2528 -0.6066 -0.3408
18517TIP3    H277043   4.013   4.345   2.246 -1.1218 -0.9542 -0.4042
18518TIP3   OH277044   1.909   0.828   6.276 -0.1688  0.2016 -0.2424
18518TIP3    H177045   1.980   0.834   6.340 -0.6597  2.6034  0.1228
18518TIP3    H277046   1.891   0.734   6.269  2.8873 -0.4404 -0.1894
18519TIP3   OH277047   1.000   4.511   0.124 -0.2909  0.1371 -0.1334
18519TIP3    H177048   1.003   4.462   0.043  2.1211  0.4970 -0.2949
18519TIP3    H277049   0.999   4.603   0.097 -2.6594  0.2345  0.2043
18520TIP3   OH277050   4.805   2.494  12.433  0.4304 -0.0166  0.3221
18520TIP3    H177051   4.849   2.541  12.363  1.9990 -1.2109  0.4804
18520TIP3    H277052   4.820   2.548  12.511  0.9623 -0.0392  0.2354
18521TIP3   OH277053   2.715   2.666   0.673 -0.6756  0.7173  0.2617
18521TIP3    H177054   2.752   2.717   0.745  1.0109  0.3366 -0.3222
18521TIP3    H277055   2.720   2.725   0.598 -1.7514  0.8492  0.2868
18522TIP3   OH277056   5.284   1.050   1.168 -0.1722 -0.1179 -0.2049
18522TIP3    H177057   5.200   1.094   1.157 -0.8511 -2.0326 -3.3929
18522TIP3    H277058   5.268   0.984   1.236 -1.4952 -0.9606 -1.3107
18523TIP3   OH277059   3.118   2.277   3.610  0.2106 -0.1092 -0.7984
18523TIP3    H177060   3.194   2.223   3.590  0.5982 -0.1429  0.6764
18523TIP3    H277061   3.082   2.239   3.690  0.5181  1.8387  0.2994
18524TIP3   OH277062   1.387   1.215   1.679  0.1685  0.2748  0.3367
18524TIP3    H177063   1.298   1.250   1.680 -0.0104 -0.1785  0.3205
18524TIP3    H277064   1.388   1.151   1.750  0.4750  0.2595  0.3186
18525TIP3   OH277065   1.124   6.008  12.036 -0.0520 -0.5273 -0.3000
18525TIP3    H177066   1.195   6.042  12.092 -0.0272 -0.1935 -0.5295
18525TIP3    H277067   1.166   5.987  11.953 -0.3414  0.3379 -0.6747
18526TIP3   OH277068   0.867   0.408   0.607  0.2317  0.7725 -0.2680
18526TIP3    H177069   0.849   0.496   0.573  1.6806  0.7178 -1.2147
18526TIP3    H277070   0.827   0.349   0.543 -0.0419  0.7300 -0.0578
18527TIP3   OH277071   6.363   1.326   2.537 -0.0800  0.1636  0.2103
18527TIP3    H177072   6.290   1.280   2.580 -1.1350 -0.5456 -2.2325
18527TIP3    H277073   6.330   1.346   2.450  2.7561 -0.3476 -1.0255
18528TIP3   OH277074   0.829   3.240   0.005 -0.1697 -0.6010 -0.0572
18528TIP3    H177075   0.771   3.310  -0.025 -0.1218 -0.4642  0.1701
18528TIP3    H277076   0.877   3.278   0.078  0.1624 -0.7345 -0.2042
18529TIP3   OH277077   0.411   3.503   3.311 -0.5762 -0.9208  0.0017
18529TIP3    H177078   0.497   3.543   3.324 -1.0566  0.4343 -0.8564
18529TIP3    H277079   0.430   3.412   3.291  0.6163 -0.8429  0.7348
18530TIP3   OH277080   4.093   3.636   4.984  0.3287 -0.2268  0.9178
18530TIP3    H177081   4.074   3.608   4.894  0.1999 -0.0639  0.8942
18530TIP3    H277082   4.045   3.575   5.039 -0.3591  0.2476  0.8549
18531TIP3   OH277083   2.095   2.161   6.110  0.4355  0.1763  0.1568
18531TIP3    H177084   2.122   2.241   6.155 -0.0789  0.1698  0.4793
18531TIP3    H277085   2.150   2.093   6.149  1.1000  0.4169 -0.3441
18532TIP3   OH277086   4.917   5.737  12.308 -0.3199 -0.0335 -0.4351
18532TIP3    H177087   4.879   5.823  12.330  0.0439  0.2355 -0.8413
18532TIP3    H277088   5.011   5.753  12.306 -0.2111 -0.5902  0.0916
18533TIP3   OH277089   4.476   4.055   2.921  0.5479  0.2003 -0.2175
18533TIP3    H177090   4.412   3.984   2.910 -0.1620  0.8310 -0.1529
18533TIP3    H277091   4.451   4.098   3.003 -0.2857  1.8270 -1.3075
18534TIP3   OH277092   5.844   0.272   2.466 -0.0334  0.0460 -0.5494
18534TIP3    H177093   5.757   0.307   2.484 -0.4529  0.1271 -2.6015
18534TIP3    H277094   5.893   0.287   2.546 -2.0715 -0.5283  0.8399
18535TIP3   OH277095   4.165   6.340  10.986  0.3164  0.0833  0.1946
18535TIP3    H177096   4.251   6.315  10.953 -1.0311 -1.2276 -2.5238
18535TIP3    H277097   4.183   6.395  11.062  3.5224 -0.7084  0.0640
18536TIP3   OH277098   6.258   4.395   5.112  0.5859 -0.2890 -0.5136
18536TIP3    H177099   6.349   4.379   5.090  0.9127  1.5182 -0.5758
18536TIP3    H277100   6.261   4.435   5.199 -0.2188 -1.0198 -0.1395
18537TIP3   OH277101   4.035   2.698   0.474  0.1281  0.3231 -0.5909
18537TIP3    H177102   4.026   2.777   0.420 -0.5492  0.5972 -0.0850
18537TIP3    H277103   4.074   2.730   0.555 -3.9089  0.8695  1.2534
18538TIP3   OH277104   2.744   0.341  14.331 -0.7851 -0.4363  0.3814
18538TIP3    H177105   2.773   0.259  14.372  0.2917  0.8534  2.2389
18538TIP3    H277106   2.712   0.394  14.404 -0.6738  1.1423 -0.6984
18539TIP3   OH277107   4.738   1.330  13.382 -0.5526  0.0428  0.3000
18539TIP3    H177108   4.647   1.302  13.371 -0.6649  0.6575 -0.4031
18539TIP3    H277109   4.779   1.259  13.431 -1.4538 -0.1628  0.7675
18540TIP3   OH277110   5.659   2.486  16.059  0.0495 -0.0753 -0.5147
18540TIP3    H177111   5.675   2.576  16.033 -0.3092 -0.4746 -2.1770
18540TIP3    H277112   5.563   2.479  16.063  0.0480 -0.6658 -1.4557
18541TIP3   OH277113   6.532   3.882   5.264  0.1808 -0.2519 -0.0733
18541TIP3    H177114   6.454   3.899   5.316 -0.2428 -1.1757 -0.4042
18541TIP3    H277115   6.514   3.800   5.219  0.3989  0.6900 -1.9385
18542TIP3   OH277116   2.351   3.371   6.092  0.1297  0.2278 -0.2208
18542TIP3    H177117   2.380   3.440   6.032  1.3978  0.4222  0.6004
18542TIP3    H277118   2.406   3.295   6.070 -1.1797 -0.5080 -1.0404
18543TIP3   OH277119   1.698   4.021   3.049  0.0781 -0.6111  0.6018
18543TIP3    H177120   1.728   3.932   3.069  1.2913 -0.3706 -0.0876
18543TIP3    H277121   1.693   4.024   2.954  1.5169  0.5178  0.5432
18544TIP3   OH277122   3.906   1.827  16.347  0.5463 -0.0248 -0.8294
18544TIP3    H177123   3.997   1.856  16.343  0.4076  1.1168  2.7538
18544TIP3    H277124   3.855   1.900  16.313  0.7204  1.1115  1.2492
18545TIP3   OH277125   0.410   4.733   1.956 -0.6555  0.5598  0.8390
18545TIP3    H177126   0.385   4.653   1.910 -1.0742  0.8723  0.5215
18545TIP3    H277127   0.395   4.803   1.893  0.0484  0.8592  0.9926
18546TIP3   OH277128   2.341   4.649  11.979  0.0286 -0.3519 -0.0467
18546TIP3    H177129   2.429   4.685  11.972 -0.8642  2.0956  0.6569
18546TIP3    H277130   2.330   4.631  12.072 -0.3017 -0.4519 -0.1040
18547TIP3   OH277131   1.283   5.736   1.712  0.0356 -0.2769  0.3798
18547TIP3    H177132   1.365   5.774   1.683  1.6411 -0.7906  3.9988
18547TIP3    H277133   1.221   5.809   1.712  0.0114 -0.1977 -3.7959
18548TIP3   OH277134   4.021   4.436   1.676  0.0182  0.3382 -0.9010
18548TIP3    H177135   4.092   4.484   1.635  0.9367  0.2326  0.5280
18548TIP3    H277136   3.941   4.477   1.642  0.7718  1.3374 -1.4784
18549TIP3   OH277137   4.990   3.397   6.101 -0.2433  0.0232 -0.2363
18549TIP3    H177138   4.915   3.426   6.153 -0.6109  2.8073 -2.1960
18549TIP3    H277139   5.066   3.412   6.157 -0.7972  1.2099  0.2067
18550TIP3   OH277140   0.347   0.515   0.024  0.1748 -0.4245  0.2747
18550TIP3    H177141   0.286   0.537   0.094  1.3948  1.2152  0.8466
18550TIP3    H277142   0.415   0.583   0.028  0.9094 -0.9927 -1.7106
18551TIP3   OH277143   6.493   1.982   0.501  0.0238  0.4326 -0.4467
18551TIP3    H177144   6.409   2.007   0.461 -1.4779 -2.2468  0.8988
18551TIP3    H277145   6.473   1.977   0.595  2.0295  0.9139  0.0216
18552TIP3   OH277146   2.734   3.712  16.937  0.3212 -0.0349 -0.1627
18552TIP3    H177147   2.780   3.720  16.853  0.9556  0.0620  0.1920
18552TIP3    H277148   2.801   3.729  17.003 -0.2504  0.2057  0.3550
18553TIP3   OH277149   2.167   4.527  17.106  0.2243  0.0954  0.4195
18553TIP3    H177150   2.108   4.595  17.139 -1.3407 -1.2555  0.4831
18553TIP3    H277151   2.162   4.457  17.171 -0.7723 -1.4482 -1.2448
18554TIP3   OH277152   4.679   4.930  13.726 -0.6046 -0.0154 -0.0059
18554TIP3    H177153   4.693   5.023  13.739  1.3132 -0.0112 -1.8559
18554TIP3    H277154   4.723   4.888  13.800 -0.0125  0.4877 -0.0741
18555TIP3   OH277155   1.642   1.498  16.896 -0.3000 -0.2187  0.2030
18555TIP3    H177156   1.649   1.543  16.980  0.4572 -0.2018  0.1269
18555TIP3    H277157   1.614   1.566  16.835 -1.7564 -0.4258  0.6197
18556TIP3   OH277158   3.610   2.730  14.662  0.4373  0.4189  0.1354
18556TIP3    H177159   3.551   2.730  14.737 -0.8004  0.6832 -0.8229
18556TIP3    H277160   3.575   2.798  14.604  1.1743 -0.0194 -0.8414
18557TIP3   OH277161   0.532   2.294   1.651 -0.0938 -0.8710  0.1287
18557TIP3    H177162   0.554   2.371   1.703  2.3288  0.0416 -2.1715
18557TIP3    H277163   0.569   2.221   1.700  2.2483 -0.0115 -0.2836
18558TIP3   OH277164   3.846   4.061   1.059  0.3404  0.2976  0.6958
18558TIP3    H177165   3.893   4.144   1.045 -0.7294  1.3374  3.0298
18558TIP3    H277166   3.869   4.036   1.148 -0.4344 -1.2262  0.4758
18559TIP3   OH277167   3.139   5.655  13.996 -0.0290  0.3934 -0.5001
18559TIP3    H177168   3.080   5.650  14.071 -0.5916 -1.3702 -1.0268
18559TIP3    H277169   3.170   5.745  13.995 -0.4541  0.5756  1.5148
18560TIP3   OH277170   5.596   5.111  11.420  0.5114  0.2795 -0.0239
18560TIP3    H177171   5.632   5.193  11.455  2.0374  0.3913 -1.7807
18560TIP3    H277172   5.501   5.122  11.427  0.7002  2.0728  0.0466
18561TIP3   OH277173   2.005   6.191  15.562  0.1612  0.5776 -0.0478
18561TIP3    H177174   1.962   6.252  15.501  0.3607  0.8134  0.0470
18561TIP3    H277175   2.038   6.246  15.632  0.0424  0.3166  0.2129
18562TIP3   OH277176   1.895   0.648   0.973 -0.4887 -0.1340  0.0087
18562TIP3    H177177   1.837   0.574   0.951 -0.9189  0.3059 -0.3603
18562TIP3    H277178   1.982   0.609   0.981 -0.7878 -0.7555  0.2689
18563TIP3   OH277179   1.519   1.568  13.061  0.0994  0.7981 -1.0479
18563TIP3    H177180   1.446   1.629  13.060 -0.4340  0.2718  2.2925
18563TIP3    H277181   1.587   1.612  13.111 -0.3626 -1.3692  1.5930
18564TIP3   OH277182   4.540   0.290   4.812 -0.0367 -0.3196 -0.0350
18564TIP3    H177183   4.532   0.255   4.723  0.1380  0.3969 -0.3326
18564TIP3    H277184   4.463   0.255   4.858 -0.9120  0.4631 -0.8654
18565TIP3   OH277185   3.896   5.870  11.618  0.4246 -0.4534 -0.1912
18565TIP3    H177186   3.839   5.930  11.667  2.0958  2.0731 -1.2289
18565TIP3    H277187   3.951   5.830  11.685 -1.1929 -1.4527  0.5922
18566TIP3   OH277188   1.665   4.002   1.084 -0.2570  0.2429 -0.2057
18566TIP3    H177189   1.620   3.942   1.143  1.2166  0.1788  0.8813
18566TIP3    H277190   1.709   3.944   1.021 -0.6624  0.2670 -0.5152
18567TIP3   OH277191   4.808   3.222  16.540 -0.1308 -0.2836 -0.0861
18567TIP3    H177192   4.885   3.207  16.595  0.4782  0.9487 -0.5824
18567TIP3    H277193   4.821   3.163  16.465  0.7883  0.5726 -0.6079
18568TIP3   OH277194   1.961   5.563  15.372 -0.3034  0.0823  0.0411
18568TIP3    H177195   1.936   5.542  15.282  1.0103  0.6211 -0.4754
18568TIP3    H277196   1.879   5.586  15.416 -0.9995 -0.5430 -0.9185
18569TIP3   OH277197   1.606   4.820   0.379 -0.5382 -0.4856 -0.5612
18569TIP3    H177198   1.553   4.888   0.421 -1.0146 -1.9957  1.3830
18569TIP3    H277199   1.565   4.738   0.406  1.0619 -1.5950 -1.4162
18570TIP3   OH277200   1.911   2.840   0.607 -0.1949  0.3074  0.6784
18570TIP3    H177201   1.976   2.851   0.537 -2.3125  0.0944 -1.3951
18570TIP3    H277202   1.888   2.929   0.632 -0.1568  0.3919  0.4152
18571TIP3   OH277203   4.757   0.280   0.103 -0.3621  0.1455 -0.3763
18571TIP3    H177204   4.714   0.333   0.171 -0.8656  1.1726 -1.4685
18571TIP3    H277205   4.790   0.345   0.041 -2.5190 -0.8445 -2.6414
18572TIP3   OH277206   3.846   6.601   0.135 -0.8235  0.1968  0.7170
18572TIP3    H177207   3.939   6.591   0.156 -0.3308  0.1941 -1.3810
18572TIP3    H277208   3.802   6.530   0.182  0.4640 -0.9415  0.2018
18573TIP3   OH277209   2.091   5.885  14.573  0.5000  0.1212 -0.3482
18573TIP3    H177210   2.095   5.866  14.479  0.7852 -1.0093 -0.1100
18573TIP3    H277211   1.999   5.871  14.596  0.7853 -1.3465 -0.0950
18574TIP3   OH277212   5.067   0.188  15.148  0.6940  0.6789  0.8847
18574TIP3    H177213   5.023   0.265  15.113  0.9660  0.3453 -0.1924
18574TIP3    H277214   5.010   0.158  15.220 -0.1124  1.0671  0.4063
18575TIP3   OH277215   4.469   1.949  13.408  0.0264  0.1941 -0.4111
18575TIP3    H177216   4.405   2.000  13.459 -0.0321 -1.1674  0.9448
18575TIP3    H277217   4.552   1.995  13.420 -0.0633  0.1123  0.6458
18576TIP3   OH277218   2.302   4.782   0.652  0.2802 -0.1888  0.6073
18576TIP3    H177219   2.355   4.792   0.731  0.0480  1.2865  0.5931
18576TIP3    H277220   2.365   4.775   0.581  0.4823  1.4666  0.5997
18577TIP3   OH277221   1.109   0.079  15.277  0.2959 -0.1689  0.1333
18577TIP3    H177222   1.185   0.088  15.220 -0.7573 -3.2712 -1.9284
18577TIP3    H277223   1.034   0.081  15.217 -0.9416 -1.7705  1.5589
18578TIP3   OH277224   4.513   1.460   1.819  0.5768  0.1567 -0.0169
18578TIP3    H177225   4.552   1.387   1.867  0.5055  0.0555 -0.1100
18578TIP3    H277226   4.438   1.487   1.873  0.3928 -0.0714 -0.1563
18579TIP3   OH277227   3.613   6.317  14.898 -0.1000 -0.2189 -0.2667
18579TIP3    H177228   3.605   6.367  14.979 -4.3862  0.2963 -0.8980
18579TIP3    H277229   3.548   6.246  14.907  2.1904 -2.5863 -1.5846
18580TIP3   OH277230   1.508   1.024   2.621 -0.9586  0.3249 -0.1189
18580TIP3    H177231   1.566   1.051   2.550 -1.3272  0.4929 -0.3559
18580TIP3    H277232   1.559   1.039   2.701  0.1196 -1.4836 -0.4238
18581TIP3   OH277233   6.543   4.043  15.111 -0.2087  0.3455 -1.0258
18581TIP3    H177234   6.504   4.086  15.187 -0.8029  2.0538 -2.2539
18581TIP3    H277235   6.501   3.957  15.108 -0.2668  0.3039  0.4950
18582TIP3   OH277236   2.910   1.099  15.906  0.4631 -0.7834 -0.6981
18582TIP3    H177237   2.913   1.044  15.984  0.7551 -1.0910 -0.9229
18582TIP3    H277238   3.000   1.132  15.897 -0.2686  1.7371  0.8624
18583TIP3   OH277239   3.297   3.935   3.597 -0.2863  0.3365  0.6574
18583TIP3    H177240   3.223   3.876   3.609 -0.2842 -0.3101 -2.0829
18583TIP3    H277241   3.261   4.022   3.614 -0.7905 -0.2698  2.7678
18584TIP3   OH277242   3.855   3.877   2.322  0.4396  0.0813  0.0013
18584TIP3    H177243   3.925   3.892   2.385 -0.3936  0.0241  0.9592
18584TIP3    H277244   3.825   3.965   2.298  0.6169  0.0985 -0.1589
18585TIP3   OH277245   5.654   0.140   3.931 -0.2554 -0.2495 -0.1995
18585TIP3    H177246   5.674   0.049   3.953  1.5771 -0.2779 -1.8381
18585TIP3    H277247   5.676   0.189   4.011  0.9157 -0.9943 -0.0579
18586TIP3   OH277248   2.642   1.901   1.490  0.3113 -0.1100 -0.3822
18586TIP3    H177249   2.575   1.845   1.451 -1.6657 -0.6762  3.5991
18586TIP3    H277250   2.628   1.987   1.450 -0.9235 -0.8829 -1.6645
18587TIP3   OH277251   1.535   5.794   4.835 -0.4814 -0.1534 -0.2052
18587TIP3    H177252   1.521   5.727   4.769  2.0139 -1.0575  0.1155
18587TIP3    H277253   1.606   5.759   4.889 -0.8659  1.6316  1.5019
18588TIP3   OH277254   4.504   4.553  16.024 -0.4626  0.1779  0.1923
18588TIP3    H177255   4.507   4.466  16.063 -0.3642  0.0252 -0.1614
18588TIP3    H277256   4.414   4.562  15.992 -0.5985  0.3789  0.6227
18589TIP3   OH277257   1.877   6.178  15.043 -0.2999  0.5033 -0.2098
18589TIP3    H177258   1.894   6.271  15.058  1.5977  0.2179 -0.4293
18589TIP3    H277259   1.803   6.157  15.100 -0.1603  1.9528  0.5188
18590TIP3   OH277260   4.638   1.311   0.466 -0.3690 -0.0078 -0.3712
18590TIP3    H177261   4.586   1.234   0.485 -0.5853 -0.0450 -1.0912
18590TIP3    H277262   4.725   1.277   0.442 -0.3475 -0.0077 -0.2908
18591TIP3   OH277263   5.007   3.388  14.531 -0.2568 -0.4313 -0.1223
18591TIP3    H177264   4.967   3.476  14.528 -1.7604 -1.1375 -3.3197
18591TIP3    H277265   5.089   3.398  14.483 -0.9973 -0.9824 -1.5490
18592TIP3   OH277266   3.514   4.772  16.106 -0.2566  0.1838 -0.0914
18592TIP3    H177267   3.531   4.684  16.072  1.3189 -0.4749  2.2764
18592TIP3    H277268   3.532   4.830  16.032  2.3812 -1.2519 -0.6465
18593TIP3   OH277269   6.538   4.265  10.202  0.0462  0.2677 -0.0542
18593TIP3    H177270   6.472   4.215  10.250 -0.9475  0.6892 -0.9628
18593TIP3    H277271   6.620   4.217  10.216 -1.0121 -2.0318 -1.4984
18594TIP3   OH277272   5.652   5.543   5.872 -0.6455 -0.2765  0.3964
18594TIP3    H177273   5.683   5.629   5.900  1.8485 -0.9075 -0.2959
18594TIP3    H277274   5.647   5.492   5.952  0.0608 -0.1199  0.5489
18595TIP3   OH277275   3.455   2.249  13.172  0.6654 -0.2057  0.0149
18595TIP3    H177276   3.394   2.182  13.141 -1.0377  0.7778  1.1657
18595TIP3    H277277   3.484   2.219  13.258 -1.8013  1.5457  1.5122
18596TIP3   OH277278   3.048   1.482  16.888 -0.3175 -0.2026  0.0434
18596TIP3    H177279   3.121   1.468  16.827 -1.2013  1.8320 -1.5616
18596TIP3    H277280   2.994   1.548  16.845 -0.1989  2.4235  3.7353
18597TIP3   OH277281   3.156   4.517   3.125  0.5111 -0.8858 -0.9593
18597TIP3    H177282   3.245   4.502   3.158  0.2526 -1.1335 -0.3587
18597TIP3    H277283   3.102   4.455   3.174 -0.6024  2.0554  1.6859
18598TIP3   OH277284   1.223   2.400  14.682  0.8721  0.2231  0.2477
18598TIP3    H177285   1.314   2.372  14.696  0.6518 -1.0673 -0.8911
18598TIP3    H277286   1.224   2.447  14.599  0.4690  0.1116  0.1783
18599TIP3   OH277287   0.305   2.504   3.614  0.0797 -0.3265  0.2283
18599TIP3    H177288   0.243   2.577   3.611  0.3971 -0.1074 -1.1164
18599TIP3    H277289   0.304   2.476   3.706  0.4002  1.7563  0.9083
18600TIP3   OH277290   6.066   2.061  17.029 -0.4430  0.1495 -0.7452
18600TIP3    H177291   5.994   2.081  16.971  0.1551  1.1957 -1.1367
18600TIP3    H277292   6.106   1.982  16.992 -0.8651  0.0600 -1.0076
18601TIP3   OH277293   2.157   0.825  15.049 -0.3291 -0.3439 -0.3706
18601TIP3    H177294   2.102   0.750  15.027  0.1865 -0.3290 -1.7230
18601TIP3    H277295   2.164   0.822  15.145  1.0816 -3.0018 -0.5118
18602TIP3   OH277296   0.755   1.826  15.337 -0.2613 -0.7200 -0.2631
18602TIP3    H177297   0.806   1.860  15.411 -1.6394 -1.7685  1.2119
18602TIP3    H277298   0.808   1.845  15.260  1.0918  0.6399  0.9743
18603TIP3   OH277299   5.104   4.090  11.334 -0.0686 -0.1130 -0.1062
18603TIP3    H177300   5.117   4.158  11.268 -2.4889  1.0043  0.5200
18603TIP3    H277301   5.167   4.111  11.402 -1.1200  1.8398  0.3062
18604TIP3   OH277302   1.755   2.555   3.877 -0.1280 -0.0896  0.5129
18604TIP3    H177303   1.748   2.531   3.969  0.3244  0.6437  0.7446
18604TIP3    H277304   1.845   2.585   3.867  0.5825 -2.4945 -0.7341
18605TIP3   OH277305   6.554   3.033  16.429  0.1841 -0.1415 -0.6298
18605TIP3    H177306   6.487   2.983  16.382 -0.8650  1.3688 -0.7951
18605TIP3    H277307   6.632   2.978  16.427 -0.7801 -1.5011 -1.3115
18606TIP3   OH277308   2.262   6.644  11.467  0.1463  0.5155  0.0132
18606TIP3    H177309   2.332   6.643  11.402  0.0423 -0.9774 -0.0992
18606TIP3    H277310   2.185   6.674  11.419  0.2061 -0.0033 -0.4184
18607TIP3   OH277311   4.919   3.447   5.509  0.4906  0.9017 -0.6244
18607TIP3    H177312   4.856   3.403   5.566 -2.2404  3.4359 -1.5814
18607TIP3    H277313   4.993   3.385   5.503 -1.0351 -1.3092  2.0476
18608TIP3   OH277314   6.116   2.684   4.522  0.3060  0.1056  0.1103
18608TIP3    H177315   6.128   2.777   4.541 -1.3899  0.3957 -0.1255
18608TIP3    H277316   6.201   2.644   4.542  0.4895  1.3931  2.0788
18609TIP3   OH277317   2.417   4.023  14.855  0.0455 -0.0613  0.5902
18609TIP3    H177318   2.399   4.109  14.893 -0.0154 -0.5765  1.7411
18609TIP3    H277319   2.512   4.017  14.852  0.0808 -0.7061  2.2871
18610TIP3   OH277320   3.440   6.151   3.059  0.1448 -0.2637  0.0210
18610TIP3    H177321   3.515   6.199   3.026 -0.5181  0.6683 -0.1681
18610TIP3    H277322   3.400   6.111   2.981  0.9571 -1.5268  0.2330
18611TIP3   OH277323   2.936   2.883   3.675 -0.0122 -0.2719 -0.1101
18611TIP3    H177324   2.980   2.815   3.725  0.6341 -0.3897 -0.8243
18611TIP3    H277325   2.941   2.853   3.584  1.2298  1.2300 -0.5604
18612TIP3   OH277326   4.605   0.712   4.576 -0.3606  0.6720 -0.0949
18612TIP3    H177327   4.661   0.641   4.608  1.8690  1.7870 -1.3968
18612TIP3    H277328   4.574   0.682   4.491 -0.1082  0.8828 -0.2634
18613TIP3   OH277329   2.267   1.848  15.503  0.2305  0.2791  0.2269
18613TIP3    H177330   2.307   1.935  15.504  1.1901 -0.1556  0.5678
18613TIP3    H277331   2.340   1.789  15.487 -0.4120 -0.4674  0.0379
18614TIP3   OH277332   5.659   1.128  14.034 -0.1809 -0.0054 -0.2872
18614TIP3    H177333   5.696   1.075  14.106  0.0620  1.6923  0.8634
18614TIP3    H277334   5.580   1.080  14.008 -0.3309 -0.6024  1.1888
18615TIP3   OH277335   0.214   4.575  16.738 -0.1266  0.1902 -0.2632
18615TIP3    H177336   0.197   4.483  16.755  0.4552  0.2595  0.7528
18615TIP3    H277337   0.289   4.596  16.794 -0.3209  1.2972 -0.4108
18616TIP3   OH277338   0.714   5.107  14.811  0.0565  0.0078 -0.2160
18616TIP3    H177339   0.723   5.201  14.799 -0.6836 -0.2189 -2.7367
18616TIP3    H277340   0.764   5.068  14.739 -1.4730 -1.4971 -0.5070
18617TIP3   OH277341   6.443   3.696   3.480  0.4932  0.1170  0.2215
18617TIP3    H177342   6.455   3.615   3.530  1.5597  0.8625  1.1999
18617TIP3    H277343   6.530   3.715   3.444  0.1254  0.5310 -0.4659
18618TIP3   OH277344   6.186   6.504  12.136 -0.8226  0.1481  0.4648
18618TIP3    H177345   6.248   6.544  12.075 -1.0217  1.6012  1.1831
18618TIP3    H277346   6.168   6.418  12.099  0.1567  0.4499 -0.7616
18619TIP3   OH277347   4.482   1.452  16.136  0.3438 -0.1711 -0.4619
18619TIP3    H177348   4.504   1.412  16.051  0.4112 -0.7212 -0.1878
18619TIP3    H277349   4.437   1.382  16.184 -0.7408  0.4938 -0.4806
18620TIP3   OH277350   0.693   3.800  15.271 -0.1509 -0.0628 -0.2567
18620TIP3    H177351   0.668   3.717  15.230 -0.8393  0.2396 -0.4455
18620TIP3    H277352   0.747   3.774  15.346  1.0283 -0.6250 -1.2684
18621TIP3   OH277353   0.996   4.406  12.440 -0.7534 -0.1023 -0.3311
18621TIP3    H177354   1.078   4.387  12.395 -1.3708 -4.3440  0.1429
18621TIP3    H277355   1.023   4.455  12.518  1.4789 -2.4389  0.4146
18622TIP3   OH277356   1.349   2.174  11.565 -0.2790 -0.1075 -0.2188
18622TIP3    H177357   1.311   2.257  11.534  1.1434  0.6464  0.0474
18622TIP3    H277358   1.411   2.149  11.497 -2.4554 -2.2514 -1.5083
18623TIP3   OH277359   4.550   0.328  14.135  0.2815  0.5401  0.6322
18623TIP3    H177360   4.573   0.396  14.071 -2.0885  1.3981  0.6766
18623TIP3    H277361   4.635   0.293  14.163  1.4598  2.0933 -0.8689
18624TIP3   OH277362   3.046   2.274   1.695  0.6988 -0.1320 -0.4640
18624TIP3    H177363   3.054   2.202   1.633  1.9781 -0.0159 -0.4612
18624TIP3    H277364   3.076   2.351   1.647 -1.0556  0.4858 -0.5981
18625TIP3   OH277365   5.099   0.129   0.834  0.0002  0.1634  0.1668
18625TIP3    H177366   5.083   0.064   0.902  0.2930  0.4413  0.5069
18625TIP3    H277367   5.019   0.181   0.829  0.2630  0.6432  0.8567
18626TIP3   OH277368   6.071   4.240  15.836 -0.6585 -0.4525 -0.7569
18626TIP3    H177369   6.120   4.322  15.835 -0.3510 -0.5884  0.7328
18626TIP3    H277370   6.037   4.230  15.747  1.2612  0.1113 -1.5712
18627TIP3   OH277371   4.882   3.682  15.971  1.0380 -0.6268  0.8352
18627TIP3    H177372   4.898   3.707  15.880 -0.7677  1.2394  1.0009
18627TIP3    H277373   4.886   3.764  16.020 -1.2362 -1.1290  1.9537
18628TIP3   OH277374   5.619   0.425   2.492  0.6900  0.1121  0.2729
18628TIP3    H177375   5.630   0.520   2.494 -0.2146  0.2199  0.1316
18628TIP3    H277376   5.609   0.400   2.584 -1.1038  0.4032  0.1805
18629TIP3   OH277377   4.524   5.385  13.903 -0.3320 -0.3584 -0.3129
18629TIP3    H177378   4.482   5.367  13.987 -0.7271 -0.8612 -0.6160
18629TIP3    H277379   4.515   5.304  13.854  0.9092 -0.4395 -0.4194
18630TIP3   OH277380   6.430   5.120  11.122 -0.0170 -0.7156  0.1021
18630TIP3    H177381   6.337   5.130  11.104 -0.0156 -0.3027  0.3159
18630TIP3    H277382   6.462   5.064  11.052 -0.0097  0.8915 -1.2102
18631TIP3   OH277383   0.947   0.683  14.608 -0.2537  0.0837 -0.5143
18631TIP3    H177384   0.926   0.595  14.576  1.6280 -1.5235  2.4527
18631TIP3    H277385   0.992   0.725  14.535 -0.1441 -1.8146 -1.5689
18632TIP3   OH277386   1.868   1.255  16.969  0.1060 -0.3569  0.2396
18632TIP3    H177387   1.800   1.269  17.035  2.1294  0.3694  2.2877
18632TIP3    H277388   1.835   1.185  16.914 -2.0354 -0.3918  1.5123
18633TIP3   OH277389   4.872   2.699  12.250 -0.0310 -0.5606 -0.1329
18633TIP3    H177390   4.794   2.753  12.236 -0.0953 -1.0874 -1.8232
18633TIP3    H277391   4.946   2.759  12.237 -0.1193 -0.6624 -1.1510
18634TIP3   OH277392   0.167   1.818   4.958 -0.1535  0.5570  0.0098
18634TIP3    H177393   0.124   1.902   4.944  0.3382  0.9383  0.7407
18634TIP3    H277394   0.246   1.822   4.904 -0.5442  0.2381 -0.5881
18635TIP3   OH277395   1.664   4.256  16.694 -0.0583  0.6047  0.7985
18635TIP3    H177396   1.618   4.296  16.767 -0.1476 -0.6330  1.4341
18635TIP3    H277397   1.614   4.176  16.675  0.7800  0.1855  0.3105
18636TIP3   OH277398   5.328   5.813   0.445 -0.4583 -0.0765  0.2885
18636TIP3    H177399   5.415   5.842   0.419 -0.9876 -0.3312 -1.9030
18636TIP3    H277400   5.312   5.736   0.391 -1.9747 -0.1304  0.7962
18637TIP3   OH277401   1.560   5.765  15.245  0.3261  0.2095  0.6140
18637TIP3    H177402   1.473   5.727  15.233  0.0737  1.0832 -0.4434
18637TIP3    H277403   1.617   5.712  15.189  0.4096 -0.1371  1.0281
18638TIP3   OH277404   1.825   5.721   2.666  0.2170 -0.1258  0.2445
18638TIP3    H177405   1.858   5.634   2.642  0.7818  0.5517 -1.5444
18638TIP3    H277406   1.748   5.703   2.720 -0.6191 -1.7814 -1.4243
18639TIP3   OH277407   4.462   6.049   5.158 -0.1223  0.0413 -0.0027
18639TIP3    H177408   4.433   6.100   5.083  0.5694 -1.6808 -1.4882
18639TIP3    H277409   4.526   6.105   5.202 -0.5537  1.0851 -0.6797
18640TIP3   OH277410   4.733   0.701  15.141 -0.6637  0.4319  0.0030
18640TIP3    H177411   4.821   0.664  15.127 -1.7887 -2.2679 -0.1942
18640TIP3    H277412   4.726   0.771  15.076 -0.3084 -2.2411 -3.0044
18641TIP3   OH277413   5.350   5.150  10.730  0.2393 -0.1514 -0.0453
18641TIP3    H177414   5.362   5.196  10.646  0.7633  0.2160  0.2304
18641TIP3    H277415   5.345   5.058  10.706  1.9884 -0.1857 -0.3244
18642TIP3   OH277416   5.086   5.331  17.186 -0.3121  0.0494  0.2586
18642TIP3    H177417   5.047   5.249  17.155  0.8990  0.0034 -1.2090
18642TIP3    H277418   5.167   5.303  17.229 -0.4172  0.3930  0.6758
18643TIP3   OH277419   0.890   1.149   1.133  0.6929 -0.5358 -0.8752
18643TIP3    H177420   0.936   1.207   1.194  1.3544 -2.1439  0.1875
18643TIP3    H277421   0.810   1.197   1.110  1.3337  0.8935 -0.2271
18644TIP3   OH277422   5.030   3.357  14.940 -0.1276 -0.4134  1.0324
18644TIP3    H177423   5.037   3.425  14.873 -2.1689  0.2353  1.4593
18644TIP3    H277424   4.940   3.363  14.972  0.6958 -1.0104  3.5449
18645TIP3   OH277425   3.670   4.991   3.294 -0.2166  0.0083 -0.0129
18645TIP3    H177426   3.670   4.934   3.370  0.0498 -0.6671 -0.5088
18645TIP3    H277427   3.763   5.002   3.273 -0.3531 -1.8513 -1.7314
18646TIP3   OH277428   5.428   5.884   1.381 -0.0226  0.4285  0.2859
18646TIP3    H177429   5.339   5.918   1.377  0.1591  0.9726  0.7462
18646TIP3    H277430   5.477   5.936   1.318 -0.0646  0.0287 -0.0754
18647TIP3   OH277431   5.086   1.568   3.494 -0.3324  0.4500  0.0724
18647TIP3    H177432   5.026   1.506   3.453  0.3618 -0.0058 -0.2585
18647TIP3    H277433   5.065   1.652   3.454 -0.3224  0.1794 -0.4992
18648TIP3   OH277434   5.634   5.334  12.856  0.9092  0.1402 -0.5601
18648TIP3    H177435   5.630   5.334  12.951  2.0772  1.2324 -0.4926
18648TIP3    H277436   5.720   5.298  12.835  1.6037  2.0606 -1.1248
18649TIP3   OH277437   4.612   3.922  13.163 -0.4784  0.1305  0.6542
18649TIP3    H177438   4.574   3.988  13.221  0.7205 -0.1828  1.8008
18649TIP3    H277439   4.705   3.922  13.183 -0.2290 -0.8515 -0.4073
18650TIP3   OH277440   0.018   1.575  13.509  0.0970 -0.3076 -0.8229
18650TIP3    H177441   0.050   1.629  13.581  0.4269 -3.0723  1.1904
18650TIP3    H277442  -0.075   1.563  13.528  0.2762 -1.3911 -0.6426
18651TIP3   OH277443   4.961   1.638  17.204 -0.0604 -0.6033 -0.1223
18651TIP3    H177444   4.928   1.557  17.242 -0.2532  0.4535  2.0650
18651TIP3    H277445   4.886   1.676  17.158 -0.6570 -0.4561  0.9536
18652TIP3   OH277446   0.388   2.779   5.124 -0.6297 -0.0326  0.4355
18652TIP3    H177447   0.303   2.819   5.105  0.1389  0.4082 -2.3804
18652TIP3    H277448   0.437   2.789   5.043  1.3431 -2.2804  1.2976
18653TIP3   OH277449   6.743   4.299  15.668  0.2759  0.9146 -0.3385
18653TIP3    H177450   6.773   4.329  15.753 -0.1268 -4.3655  1.8571
18653TIP3    H277451   6.647   4.308  15.672  0.3144  1.5993 -0.7022
18654TIP3   OH277452   5.754   2.508   5.915  0.2200 -0.0632  0.0884
18654TIP3    H177453   5.739   2.600   5.938 -1.8648 -0.2536 -0.3653
18654TIP3    H277454   5.717   2.459   5.989 -0.5195 -0.5523 -0.5965
18655TIP3   OH277455   6.146   2.078   5.002 -0.3026  0.1778 -0.1598
18655TIP3    H177456   6.208   2.006   5.009  0.2271  0.7389  1.1159
18655TIP3    H277457   6.193   2.144   4.950  1.1336  1.5413  2.7149
18656TIP3   OH277458   0.476   3.983   3.775 -0.3995 -0.0659 -0.4939
18656TIP3    H177459   0.499   4.024   3.859  0.3475 -1.1248 -0.1857
18656TIP3    H277460   0.560   3.969   3.731 -0.6613 -1.2523 -0.6102
18657TIP3   OH277461   1.776   2.695   5.327 -0.0867  0.0550  0.2051
18657TIP3    H177462   1.695   2.660   5.290  0.1319  0.4562 -0.6665
18657TIP3    H277463   1.846   2.648   5.282  0.1826  0.5414  0.1017
18658TIP3   OH277464   5.578   5.779   4.277 -0.4409  0.0878  0.2244
18658TIP3    H177465   5.545   5.855   4.229 -0.3514 -0.9025 -1.4483
18658TIP3    H277466   5.673   5.784   4.268 -0.5275 -1.5694 -2.0770
18659TIP3   OH277467   2.823   0.113  14.938  0.2561  0.1014  0.0974
18659TIP3    H177468   2.820   0.171  14.861 -1.1511  1.5468  1.2186
18659TIP3    H277469   2.739   0.067  14.937  0.2352  0.1222  0.7857
18660TIP3   OH277470   1.151   4.659  14.606  0.2668  0.5750 -0.6615
18660TIP3    H177471   1.081   4.594  14.598 -1.1633  2.0765 -0.7309
18660TIP3    H277472   1.144   4.691  14.696  3.5950 -2.1973  0.7081
18661TIP3   OH277473   3.974   2.230  11.127  0.7287 -0.1889 -0.4280
18661TIP3    H177474   3.940   2.192  11.208  0.4865 -0.8827 -0.8501
18661TIP3    H277475   3.929   2.314  11.117 -0.8347 -1.0873 -0.9669
18662TIP3   OH277476   4.630   4.932   4.809 -0.3991 -0.0364 -0.0061
18662TIP3    H177477   4.684   5.004   4.776 -0.5953 -0.1652 -0.6116
18662TIP3    H277478   4.544   4.972   4.822 -0.7155 -0.3422 -1.0951
18663TIP3   OH277479   5.861   4.676  11.897  0.0779  0.3499 -0.5533
18663TIP3    H177480   5.920   4.638  11.832 -0.9050  0.9795 -1.8317
18663TIP3    H277481   5.785   4.705  11.847 -2.2537 -2.2395  1.2678
18664TIP3   OH277482   3.856   5.208  16.718  0.3503  0.0308  0.5978
18664TIP3    H177483   3.860   5.221  16.624  0.8340 -0.6861  0.5209
18664TIP3    H277484   3.762   5.195  16.736  0.2281  0.4146  0.2573
18665TIP3   OH277485   4.370   2.380   0.890 -0.4885  0.1855  0.3272
18665TIP3    H177486   4.293   2.400   0.836  0.2734 -1.6821 -1.5128
18665TIP3    H277487   4.376   2.454   0.951 -4.1262  0.0415  0.9848
18666TIP3   OH277488   0.877   6.712  14.136 -0.0958  0.6627 -0.0829
18666TIP3    H177489   0.849   6.668  14.055 -2.1112  0.9933  0.4063
18666TIP3    H277490   0.902   6.800  14.108 -0.3093  0.6152 -0.4245
18667TIP3   OH277491   3.098   3.448   1.191  0.3662 -0.2991 -0.0809
18667TIP3    H177492   3.088   3.473   1.283 -0.5347 -1.2815  0.0994
18667TIP3    H277493   3.111   3.531   1.145 -2.5844  0.5362  0.5079
18668TIP3   OH277494   2.195   2.426   3.957  0.8115  0.0637 -0.0794
18668TIP3    H177495   2.202   2.446   4.050  3.7989 -0.0156 -0.2384
18668TIP3    H277496   2.151   2.502   3.919 -0.0551  0.2791  1.3344
18669TIP3   OH277497   3.678   3.439   4.808 -0.2943  0.6089 -0.4041
18669TIP3    H177498   3.720   3.499   4.869  2.2399 -1.5209  0.0324
18669TIP3    H277499   3.600   3.408   4.854  1.2239 -0.4622  1.5605
18670TIP3   OH277500   1.835   2.634   1.432 -0.4789  0.1079  0.1515
18670TIP3    H177501   1.910   2.575   1.446  0.7356  1.6359  0.2221
18670TIP3    H277502   1.812   2.623   1.340 -0.9775 -1.2951  0.4326
18671TIP3   OH277503   6.144   4.891   3.291 -0.1387 -0.4172 -0.0311
18671TIP3    H177504   6.172   4.976   3.257  0.4095 -0.0525  1.3097
18671TIP3    H277505   6.201   4.828   3.247  0.4421  0.0403  0.0533
18672TIP3   OH277506   3.313   5.438  16.729  0.0876  0.3863 -0.0361
18672TIP3    H177507   3.263   5.410  16.651  0.4198  0.9242 -0.4456
18672TIP3    H277508   3.342   5.526  16.708 -1.1997  1.1655  1.3740
18673TIP3   OH277509   6.510   3.073   0.962 -0.5646 -0.7670  0.4409
18673TIP3    H177510   6.453   2.996   0.958 -1.0623 -0.3350 -1.6130
18673TIP3    H277511   6.593   3.039   0.994 -0.8251 -2.1495 -0.2954
18674TIP3   OH277512   5.153   6.762  11.603  0.1034  0.0429  0.2582
18674TIP3    H177513   5.198   6.765  11.687  0.5513 -2.3045  0.1374
18674TIP3    H277514   5.099   6.682  11.607 -0.6515  0.4415 -1.2827
18675TIP3   OH277515   3.925   2.871   2.781 -0.0237  0.4337 -0.3455
18675TIP3    H177516   3.994   2.897   2.841 -1.0545  1.6355  0.3236
18675TIP3    H277517   3.969   2.863   2.696  0.9092  1.3216  0.0509
18676TIP3   OH277518   2.105   3.109   1.705 -0.1269 -0.0429  0.3488
18676TIP3    H177519   2.186   3.141   1.665  0.4453 -1.4381  0.3643
18676TIP3    H277520   2.036   3.140   1.647  0.5933 -0.8742 -0.9805
18677TIP3   OH277521   0.987   0.641   2.846 -0.7346 -0.1517 -0.0969
18677TIP3    H177522   0.992   0.667   2.938 -3.2215  3.2960 -0.8230
18677TIP3    H277523   0.915   0.577   2.843 -1.3310  0.4876  0.2414
18678TIP3   OH277524   1.107   4.822  11.051  0.0439  0.2052 -0.3149
18678TIP3    H177525   1.078   4.892  10.993 -1.2032  0.8676  1.0734
18678TIP3    H277526   1.055   4.746  11.024 -1.1782  0.7419  0.5075
18679TIP3   OH277527   3.208   4.712  14.736  0.1102  0.0013 -0.8868
18679TIP3    H177528   3.246   4.626  14.756 -0.8075  0.3800  2.9796
18679TIP3    H277529   3.278   4.760  14.692  0.7967 -2.5421 -2.6380
18680TIP3   OH277530   0.222   3.431  16.237  0.6437 -0.4768 -1.0594
18680TIP3    H177531   0.314   3.407  16.223  1.6665  2.9655 -0.4784
18680TIP3    H277532   0.212   3.515  16.193 -1.5816  0.4060  1.0509
18681TIP3   OH277533   3.351   3.763  12.453 -0.1985  0.8750  0.2328
18681TIP3    H177534   3.362   3.830  12.522 -0.0420  2.0758 -0.9298
18681TIP3    H277535   3.259   3.769  12.428  0.3066  2.2720 -1.4448
18682TIP3   OH277536   3.906   3.644   3.201  0.0882  0.2813  0.5957
18682TIP3    H177537   3.907   3.626   3.295  1.2110 -0.1304  0.5125
18682TIP3    H277538   3.820   3.615   3.172 -0.1485  0.1207  1.4414
18683TIP3   OH277539   4.876   4.510   6.164  0.3208  0.1136 -0.1842
18683TIP3    H177540   4.785   4.495   6.142 -0.4224  0.5515  2.4107
18683TIP3    H277541   4.916   4.423   6.168 -0.5087 -0.2264  0.7756
18684TIP3   OH277542   0.621   2.563   4.167 -0.0587 -0.5653  0.0131
18684TIP3    H177543   0.697   2.621   4.164  0.6178 -1.1741  3.3018
18684TIP3    H277544   0.657   2.475   4.158 -0.5247 -0.7613  0.0259
18685TIP3   OH277545   6.513   4.745   4.185  0.1117  0.5036  0.9908
18685TIP3    H177546   6.452   4.816   4.170 -0.5970  0.4006  3.3133
18685TIP3    H277547   6.585   4.784   4.235  1.1834  0.2501 -0.3092
18686TIP3   OH277548   3.453   5.426   2.910  0.2306 -0.3344 -0.3014
18686TIP3    H177549   3.496   5.342   2.920 -0.0246 -0.4323 -0.0082
18686TIP3    H277550   3.360   5.405   2.902 -0.0034 -0.0023  1.2618
18687TIP3   OH277551   6.226   0.435   5.546 -0.1849 -0.4241 -0.4882
18687TIP3    H177552   6.195   0.480   5.467  0.5241 -0.1511 -0.6135
18687TIP3    H277553   6.312   0.401   5.522 -0.6556 -1.7486 -0.3582
18688TIP3   OH277554   0.340   1.670  15.117  0.4207 -0.0919  0.0024
18688TIP3    H177555   0.401   1.664  15.190  0.3711 -1.1576 -0.0359
18688TIP3    H277556   0.364   1.751  15.072  3.6767 -1.8941 -1.6726
18689TIP3   OH277557   4.064   6.430   3.938  0.2311  0.0056 -0.0942
18689TIP3    H177558   3.981   6.402   3.899  0.5680  1.3707 -1.8447
18689TIP3    H277559   4.123   6.355   3.927  0.1030  0.1117 -1.5759
18690TIP3   OH277560   1.474   6.277  13.054  0.5472 -0.2208  0.1005
18690TIP3    H177561   1.470   6.228  12.971  0.0089 -0.5948  0.3467
18690TIP3    H277562   1.393   6.254  13.100  1.9745 -1.9752  1.8187
18691TIP3   OH277563   0.955   6.606   4.015 -0.1110 -0.2754  0.3415
18691TIP3    H177564   0.979   6.518   4.044  0.5583 -0.3417 -0.4113
18691TIP3    H277565   0.931   6.595   3.923 -2.0612 -0.0349  0.8096
18692TIP3   OH277566   2.028   0.635   0.159 -1.2050 -0.0994 -0.0722
18692TIP3    H177567   2.090   0.699   0.196 -1.5324  0.2886 -0.1851
18692TIP3    H277568   2.035   0.559   0.216 -0.3524 -0.2009 -0.2964
18693TIP3   OH277569   1.766   4.373   4.580  0.1575  0.0500  0.3672
18693TIP3    H177570   1.849   4.407   4.547  1.0933 -0.9014  1.6932
18693TIP3    H277571   1.748   4.298   4.525 -0.0674  0.5370 -0.2288
18694TIP3   OH277572   1.091   3.488  16.136  0.1323  0.4648 -0.8910
18694TIP3    H177573   1.007   3.533  16.128 -0.4208  0.0243  1.9911
18694TIP3    H277574   1.143   3.544  16.194  0.1710 -1.5104  1.0578
18695TIP3   OH277575   3.711   5.072  15.109  0.3189 -0.4238  0.0906
18695TIP3    H177576   3.754   5.083  15.194 -1.7782  0.4024  1.0806
18695TIP3    H277577   3.648   5.001  15.123  1.0918 -1.4045 -1.2445
18696TIP3   OH277578   1.621   4.602   1.436  0.4042 -0.9383  0.1713
18696TIP3    H177579   1.593   4.631   1.523  4.2118  0.0174  1.1357
18696TIP3    H277580   1.568   4.654   1.376  0.6114  1.3576  1.9126
18697TIP3   OH277581   0.036   2.581   5.267 -0.3384 -0.1893 -0.7902
18697TIP3    H177582  -0.014   2.595   5.348  0.3003  2.4413 -0.7968
18697TIP3    H277583   0.112   2.529   5.295 -0.4305  0.1946  0.2006
18698TIP3   OH277584   0.492   4.453  16.434 -0.6334  0.1037 -0.3130
18698TIP3    H177585   0.509   4.531  16.486 -0.4427 -0.8602  1.0878
18698TIP3    H277586   0.416   4.475  16.381 -1.8287  0.5475  1.5549
18699TIP3   OH277587   5.200   6.086  12.805 -0.1458  0.0484 -0.2472
18699TIP3    H177588   5.259   6.070  12.879  0.6203 -1.5486 -1.1887
18699TIP3    H277589   5.139   6.012  12.807  0.7194 -0.7297 -2.0172
18700TIP3   OH277590   5.756   5.115   2.055 -0.0179  0.2600  0.0107
18700TIP3    H177591   5.851   5.126   2.042 -0.3488  1.3139 -1.6744
18700TIP3    H277592   5.720   5.201   2.035 -1.6700 -1.0345 -2.8434
18701TIP3   OH277593   4.706   0.917   4.713 -0.1125  0.0253 -1.1921
18701TIP3    H177594   4.777   0.951   4.658 -0.5487  0.3552 -1.5563
18701TIP3    H277595   4.673   0.841   4.665  0.6232 -0.7200 -0.5544
18702TIP3   OH277596   1.108   5.821   2.495 -0.0456 -0.0645 -0.3150
18702TIP3    H177597   1.050   5.850   2.425 -1.3566 -0.6821  0.4981
18702TIP3    H277598   1.196   5.848   2.467 -0.7012  0.7044 -1.6409
18703TIP3   OH277599   2.790   2.826  12.383 -0.1615 -0.3868 -0.0312
18703TIP3    H177600   2.803   2.907  12.432 -3.9857 -0.9288  2.1012
18703TIP3    H277601   2.794   2.852  12.291  1.5721  1.6512  0.5884
18704TIP3   OH277602   4.305   1.553  16.626  0.9839  0.0224 -0.5064
18704TIP3    H177603   4.304   1.517  16.715 -0.2992 -0.7337 -0.8153
18704TIP3    H277604   4.366   1.626  16.630  0.1064  0.6717  1.2685
18705TIP3   OH277605   5.084   6.799   3.637  0.0824 -0.0157 -0.1244
18705TIP3    H177606   5.107   6.781   3.546 -0.3454  1.5854 -0.5648
18705TIP3    H277607   5.043   6.886   3.635 -0.3098 -0.1422  1.5313
18706TIP3   OH277608   2.916   1.515   5.358  0.2589  0.6853  0.0057
18706TIP3    H177609   2.823   1.498   5.341  0.1165  0.1595  1.2729
18706TIP3    H277610   2.947   1.558   5.278 -1.7875  3.7360  0.7713
18707TIP3   OH277611   5.507   2.784  16.648  0.1250  0.2401 -0.2387
18707TIP3    H177612   5.555   2.786  16.566 -0.9473  0.3001 -0.8761
18707TIP3    H277613   5.500   2.691  16.669  0.1408  0.2070 -0.3789
18708TIP3   OH277614   1.126   3.562   6.274  0.0393  0.7852 -0.0955
18708TIP3    H177615   1.048   3.515   6.303 -1.0520  2.7681  0.2618
18708TIP3    H277616   1.100   3.601   6.190  0.7180  1.2739 -0.0806
18709TIP3   OH277617   0.395   5.154  16.804 -0.6482 -0.5108  0.1270
18709TIP3    H177618   0.311   5.199  16.800 -0.5509 -0.1998  1.2849
18709TIP3    H277619   0.377   5.074  16.855 -0.6886 -1.4761 -1.3883
18710TIP3   OH277620   5.580   4.001   2.093  0.6131  0.4299 -0.7177
18710TIP3    H177621   5.494   4.041   2.102  0.8815  0.7805  0.3289
18710TIP3    H277622   5.620   4.008   2.180  0.2252 -3.1338 -0.1867
18711TIP3   OH277623   2.393   4.930  14.760  0.7315  0.0137  0.3135
18711TIP3    H177624   2.429   4.878  14.687 -0.0931 -1.1552  0.7256
18711TIP3    H277625   2.419   5.020  14.740 -1.0940 -0.0210 -2.3988
18712TIP3   OH277626   1.037   2.131  11.702  0.1449  0.2865  0.3731
18712TIP3    H177627   0.949   2.121  11.666 -0.0315 -2.1056  1.3565
18712TIP3    H277628   1.055   2.046  11.743  2.8997  0.7549  0.1958
18713TIP3   OH277629   4.378   2.482   2.385  0.0383  0.3008  0.5653
18713TIP3    H177630   4.289   2.517   2.381 -0.6114 -1.3432  0.1067
18713TIP3    H277631   4.395   2.450   2.297  0.6327 -0.4741  0.9569
18714TIP3   OH277632   6.734   0.195   0.018  0.0620  0.0696 -0.4926
18714TIP3    H177633   6.647   0.165  -0.003  0.1195 -0.3869 -0.0887
18714TIP3    H277634   6.765   0.239  -0.061 -0.1454 -0.6371 -0.9630
18715TIP3   OH277635   6.681   3.081  11.491 -0.4010 -0.3819 -0.5090
18715TIP3    H177636   6.772   3.059  11.515 -0.1620  0.9276 -0.1417
18715TIP3    H277637   6.628   3.030  11.552  0.1450  0.2733  0.5441
18716TIP3   OH277638   5.291   1.725   2.912  0.6104 -0.6160 -0.3563
18716TIP3    H177639   5.214   1.696   2.961  0.2860  0.2150 -0.3579
18716TIP3    H277640   5.285   1.681   2.828  0.8610 -1.6063  0.1412
18717TIP3   OH277641   5.956   0.204  13.384  0.4094  0.3817 -0.5650
18717TIP3    H177642   6.010   0.125  13.386 -0.7281 -0.3968  0.6657
18717TIP3    H277643   5.984   0.254  13.460 -0.8811 -0.2558  0.3676
18718TIP3   OH277644   6.248   4.935  10.984  0.0483 -0.6079  0.2080
18718TIP3    H177645   6.200   4.888  10.916  1.1573 -0.2246 -0.8748
18718TIP3    H277646   6.333   4.954  10.944  1.3870 -1.9429  2.3455
18719TIP3   OH277647   5.895   2.870   5.554  0.2037 -0.5453  0.5673
18719TIP3    H177648   5.914   2.809   5.625 -1.2474 -0.5431  0.9608
18719TIP3    H277649   5.942   2.950   5.578  3.4041 -1.9579 -0.7189
18720TIP3   OH277650   3.359   3.864   3.020  0.3056 -0.0311 -0.2675
18720TIP3    H177651   3.396   3.859   2.932 -4.0575 -0.6516 -2.1552
18720TIP3    H277652   3.381   3.779   3.060  2.4125  0.3076 -0.6324
18721TIP3   OH277653   1.919   2.501  10.876  0.3026 -0.4694  0.0243
18721TIP3    H177654   1.924   2.472  10.785  0.0187 -1.8398  0.4378
18721TIP3    H277655   1.836   2.547  10.882 -0.2705 -1.4883 -0.0909
18722TIP3   OH277656   3.057   2.304  13.997 -0.4109  0.3482  0.6071
18722TIP3    H177657   3.108   2.318  13.918 -1.2335  0.7420  0.1331
18722TIP3    H277658   3.111   2.340  14.067  0.3023  0.0316  0.2238
18723TIP3   OH277659   3.499   0.194   1.976  0.4850  0.2939 -0.4000
18723TIP3    H177660   3.524   0.232   1.892 -0.9019  1.2065 -0.4256
18723TIP3    H277661   3.405   0.178   1.968  0.0970  1.5079  1.3810
18724TIP3   OH277662   1.740   3.025  11.970 -0.6727 -0.5077 -0.1687
18724TIP3    H177663   1.762   3.116  11.990  1.8810 -0.7878 -1.3817
18724TIP3    H277664   1.710   3.027  11.879 -0.5158 -0.8717 -0.2312
18725TIP3   OH277665   4.450   1.704  11.757  0.4951 -0.0042 -0.1739
18725TIP3    H177666   4.456   1.630  11.696  0.3263  0.9486 -1.3681
18725TIP3    H277667   4.381   1.679  11.818  0.5338 -0.9037 -0.4951
18726TIP3   OH277668   0.008   5.933  16.361 -0.1180  0.7031 -0.0746
18726TIP3    H177669   0.051   5.926  16.275  1.7330  0.1046  0.8777
18726TIP3    H277670   0.034   6.019  16.394 -0.9650  1.0005 -0.1663
18727TIP3   OH277671   0.645   2.666   3.446 -0.5363  0.4141 -0.6105
18727TIP3    H177672   0.635   2.612   3.368 -1.6210 -0.1112 -0.1259
18727TIP3    H277673   0.653   2.603   3.518  2.8564  0.8689 -0.5372
18728TIP3   OH277674   5.210   6.355  11.165 -1.0205 -0.0946  0.1489
18728TIP3    H177675   5.286   6.332  11.111 -0.1792  0.6102  1.0061
18728TIP3    H277676   5.229   6.444  11.196 -1.5907 -0.4183  1.4315
18729TIP3   OH277677   2.372   1.781   3.929 -0.1178  0.5642  0.0193
18729TIP3    H177678   2.381   1.856   3.870 -0.4397  0.9460  0.4465
18729TIP3    H277679   2.356   1.821   4.015 -2.8997 -0.0122 -0.1907
18730TIP3   OH277680   0.035   4.580  13.408 -0.0334  0.4456  0.4177
18730TIP3    H177681  -0.031   4.580  13.477 -0.9411  2.2401 -0.4184
18730TIP3    H277682   0.028   4.494  13.367 -1.8597  0.6079  0.3431
18731TIP3   OH277683   4.565   6.099   0.558  0.1310 -0.3666  0.4093
18731TIP3    H177684   4.500   6.146   0.610  2.1148  0.8578  1.8522
18731TIP3    H277685   4.555   6.134   0.469 -2.2628 -1.3934  0.2267
18732TIP3   OH277686   0.179   4.827   1.187  0.7896  0.0325 -0.6066
18732TIP3    H177687   0.212   4.910   1.153  0.0780  0.3935 -0.4222
18732TIP3    H277688   0.255   4.787   1.230  0.8155  1.1931  0.4599
18733TIP3   OH277689   0.786   5.021   4.510 -0.2792  0.2021 -0.4853
18733TIP3    H177690   0.845   5.013   4.434  2.2418  0.1544  1.4107
18733TIP3    H277691   0.814   4.951   4.569 -2.1846  0.2849  0.5507
18734TIP3   OH277692   4.518   2.535   1.077 -0.4267 -0.0546 -0.7537
18734TIP3    H177693   4.565   2.452   1.065 -0.9490 -0.4684  0.0047
18734TIP3    H277694   4.556   2.574   1.156 -0.1044  0.4813 -1.1740
18735TIP3   OH277695   5.193   5.997   4.546  0.5744 -0.2331  0.0815
18735TIP3    H177696   5.197   5.945   4.466  1.3540  2.1026 -1.4557
18735TIP3    H277697   5.121   6.058   4.532 -1.6131 -2.0737  2.6672
18736TIP3   OH277698   6.326   5.399   0.704 -0.0060 -0.4430  0.2852
18736TIP3    H177699   6.275   5.358   0.774 -1.5994  0.4204 -0.3456
18736TIP3    H277700   6.262   5.419   0.636  0.7615  2.7704  0.4303
18737TIP3   OH277701   0.604   1.744   3.579 -0.0347  0.4694  0.3362
18737TIP3    H177702   0.517   1.716   3.607 -0.2333  1.6487  0.9418
18737TIP3    H277703   0.595   1.762   3.486  0.0923 -1.4123 -0.0541
18738TIP3   OH277704   5.719   6.267  11.168 -0.0520  0.5572  0.5459
18738TIP3    H177705   5.731   6.172  11.169  1.0090  0.6811  0.3280
18738TIP3    H277706   5.789   6.300  11.224 -0.1846  1.2435  0.3070
18739TIP3   OH277707   4.471   1.895   1.572  0.1302 -0.5726  0.6896
18739TIP3    H177708   4.486   1.977   1.618  0.4093 -1.0252  1.4221
18739TIP3    H277709   4.391   1.859   1.611 -0.2236 -0.4514  0.0841
18740TIP3   OH277710   2.757   1.597   4.205 -0.0932 -0.0758 -0.0772
18740TIP3    H177711   2.740   1.687   4.179 -0.3857 -0.1032  0.0188
18740TIP3    H277712   2.734   1.545   4.128 -0.4308 -0.1108  0.0446
18741TIP3   OH277713   5.593   0.607  12.258 -0.1900  0.1474  0.0877
18741TIP3    H177714   5.520   0.547  12.269 -0.4424  0.6110  0.9435
18741TIP3    H277715   5.583   0.641  12.169  1.6421 -3.2995 -1.5343
18742TIP3   OH277716   1.049   0.401   3.187  0.3718 -0.0653 -0.3439
18742TIP3    H177717   1.027   0.345   3.112 -2.1515 -0.0640  0.3479
18742TIP3    H277718   1.019   0.489   3.161  0.9200  0.2342  0.0325
18743TIP3   OH277719   1.312   0.882   0.373 -0.1170  0.2076 -0.2259
18743TIP3    H177720   1.250   0.836   0.316 -0.9232  0.7042  0.2348
18743TIP3    H277721   1.316   0.830   0.453 -0.3637  0.4645 -0.0434
18744TIP3   OH277722   6.290   0.045   3.026 -0.3227 -0.2720 -0.1127
18744TIP3    H177723   6.326   0.113   3.083 -1.7030  1.1038 -0.8541
18744TIP3    H277724   6.303  -0.037   3.075  1.8209  0.4350  0.5617
18745TIP3   OH277725   6.252   5.634  14.178 -0.4255  0.6303 -0.1766
18745TIP3    H177726   6.207   5.719  14.182  0.1982  0.9211  0.8755
18745TIP3    H277727   6.271   5.612  14.269  0.3889 -0.1184 -0.5121
18746TIP3   OH277728   3.963   3.082  13.404 -0.4637 -0.1671 -0.2704
18746TIP3    H177729   3.875   3.059  13.434 -0.4767 -0.9291 -0.8901
18746TIP3    H277730   3.961   3.067  13.310 -0.0338  0.9860 -0.4707
18747TIP3   OH277731   5.944   2.127  16.429  0.2886  0.0432 -0.3116
18747TIP3    H177732   5.892   2.206  16.414 -0.6638 -0.5693 -0.2591
18747TIP3    H277733   5.889   2.072  16.484  0.9554 -0.6561 -0.3349
18748TIP3   OH277734   2.591   5.807   1.560  0.3014 -0.0058  0.3021
18748TIP3    H177735   2.495   5.810   1.566  0.4227  0.8843  2.4516
18748TIP3    H277736   2.617   5.898   1.546  0.8113 -0.3366 -0.9219
18749TIP3   OH277737   1.793   2.724  13.613  0.4300  0.2252 -0.1478
18749TIP3    H177738   1.873   2.740  13.562  0.4761  1.2914  0.2636
18749TIP3    H277739   1.773   2.808  13.654 -0.2475 -0.3409  0.6908
18750TIP3   OH277740   6.666   6.078  17.040 -0.2335 -0.3144  0.1122
18750TIP3    H177741   6.579   6.090  17.078  0.3036  0.9418  0.9668
18750TIP3    H277742   6.655   6.006  16.978 -1.5171 -1.2483  1.3863
18751TIP3   OH277743   3.675   2.906  12.750 -1.2510  0.3024 -0.4040
18751TIP3    H177744   3.696   2.996  12.774 -1.4104  0.3884 -0.5945
18751TIP3    H277745   3.604   2.913  12.687 -0.9646  0.0635 -0.7556
18752TIP3   OH277746   3.960   5.009  16.909  0.1808 -0.3291 -0.1272
18752TIP3    H177747   3.885   5.042  16.860  0.4608  1.0851  0.3689
18752TIP3    H277748   3.922   4.954  16.977 -0.3451 -0.4694 -0.5329
18753TIP3   OH277749   0.377   0.556   5.333  0.0969  0.0126 -0.0290
18753TIP3    H177750   0.376   0.519   5.421  2.7619 -0.4471 -0.1714
18753TIP3    H277751   0.408   0.485   5.277  0.6838  1.0212 -0.9996
18754TIP3   OH277752   6.604   1.362   0.420  0.3514 -0.0714 -0.4020
18754TIP3    H177753   6.639   1.405   0.342 -0.7883 -0.2687 -1.0286
18754TIP3    H277754   6.677   1.310   0.454  1.1836  0.9033 -0.6959
18755TIP3   OH277755   3.512   1.799  14.344 -0.1896  0.0007 -0.2578
18755TIP3    H177756   3.569   1.870  14.316  1.8853 -1.9413 -1.0872
18755TIP3    H277757   3.518   1.799  14.440 -0.0678  0.8029 -0.2628
18756TIP3   OH277758   0.476   3.627  14.104 -0.6477  0.0583  0.4940
18756TIP3    H177759   0.548   3.667  14.153 -2.0446  0.4098  2.3111
18756TIP3    H277760   0.501   3.535  14.097  1.1319  0.6360 -1.0353
18757TIP3   OH277761   5.526   2.966  13.537  0.0327 -0.0074 -0.4150
18757TIP3    H177762   5.566   2.907  13.601 -1.8836  0.0336  0.8618
18757TIP3    H277763   5.479   2.908  13.477  1.6194 -0.0280 -1.6581
18758TIP3   OH277764   2.814   1.724  13.809  0.3719  0.2200 -0.0923
18758TIP3    H177765   2.874   1.789  13.772 -1.3252  0.8921 -1.7173
18758TIP3    H277766   2.750   1.708  13.740 -0.8320 -1.1246  1.3076
18759TIP3   OH277767   4.418   5.963   1.563 -0.2334 -0.3657  0.1851
18759TIP3    H177768   4.335   6.012   1.557 -0.3303 -0.6194 -0.5256
18759TIP3    H277769   4.434   5.956   1.657  1.3894  3.7358  0.3204
18760TIP3   OH277770   5.216   0.585   0.783  0.3273 -0.5511  0.1661
18760TIP3    H177771   5.255   0.669   0.805 -0.1516 -0.5305  0.9502
18760TIP3    H277772   5.126   0.590   0.816  0.1806 -1.2348 -0.1002
18761TIP3   OH277773   4.280   3.301  14.856  0.5448 -0.3258 -0.4337
18761TIP3    H177774   4.240   3.299  14.769  1.4110  0.8884 -0.8626
18761TIP3    H277775   4.365   3.342  14.843  1.9049 -2.6963  0.5050
18762TIP3   OH277776   3.580   0.627   6.604 -0.0260  0.4463 -0.0287
18762TIP3    H177777   3.592   0.537   6.634  0.0852  0.2039 -0.7896
18762TIP3    H277778   3.493   0.651   6.637 -0.4930 -0.2985 -0.6720
18763TIP3   OH277779   1.280   5.005  17.013  0.2762 -0.8708  0.2967
18763TIP3    H177780   1.265   4.922  17.059  1.0928 -0.6553  0.9767
18763TIP3    H277781   1.258   5.072  17.078  0.0339 -0.5613 -0.1094
18764TIP3   OH277782   3.845   3.752  13.846  0.1867  0.5338 -0.0467
18764TIP3    H177783   3.847   3.833  13.898 -0.2550  0.8244 -0.4711
18764TIP3    H277784   3.881   3.685  13.903  1.2876  1.1929  0.0385
18765TIP3   OH277785   0.821   1.864  14.964  0.7369 -0.1854 -0.0213
18765TIP3    H177786   0.802   1.946  14.919  0.2772 -0.4552 -0.3188
18765TIP3    H277787   0.869   1.812  14.899 -1.2055 -1.1497 -0.7132
18766TIP3   OH277788   1.573   0.599  15.039  0.1449  0.2364  0.7483
18766TIP3    H177789   1.522   0.609  14.959  1.7705  0.8220 -0.2333
18766TIP3    H277790   1.521   0.539  15.094 -1.6195  0.9129 -0.1721
18767TIP3   OH277791   6.630   0.040  12.569  0.3483 -0.0183  0.4290
18767TIP3    H177792   6.671   0.061  12.485 -0.7319  1.0492  0.1558
18767TIP3    H277793   6.621   0.124  12.613 -2.2284 -0.1028  0.1584
18768TIP3   OH277794   5.659   2.215   2.934 -0.1531  0.2877 -0.0863
18768TIP3    H177795   5.563   2.219   2.936 -0.1442  0.2270  0.4635
18768TIP3    H277796   5.681   2.214   2.841 -0.6306  1.7358 -0.2183
18769TIP3   OH277797   1.593   1.296  15.967  0.4269  0.2655  0.0136
18769TIP3    H177798   1.684   1.276  15.991  0.6159  0.4804 -0.5146
18769TIP3    H277799   1.579   1.249  15.885  0.4644  1.2516 -0.5601
18770TIP3   OH277800   3.177   5.417  16.258 -0.4014  0.1422  0.0850
18770TIP3    H177801   3.096   5.368  16.244 -0.2592  0.0763 -0.5228
18770TIP3    H277802   3.245   5.361  16.221 -0.2343  0.7868 -0.5932
18771TIP3   OH277803   3.887   4.523   2.356 -0.6417 -0.6321 -0.4995
18771TIP3    H177804   3.979   4.544   2.341 -0.9141  1.5524  0.7138
18771TIP3    H277805   3.881   4.507   2.450 -2.1359  2.7284  0.0392
18772TIP3   OH277806   1.641   0.370   3.094 -0.1073 -0.2429  0.1050
18772TIP3    H177807   1.547   0.381   3.106 -0.4165 -1.6372 -1.0563
18772TIP3    H277808   1.651   0.330   3.008  1.5647  0.1212  0.1021
18773TIP3   OH277809   3.965   4.295   0.991  0.5502 -0.2109 -0.7151
18773TIP3    H177810   3.999   4.290   0.901  0.4137  2.8102 -0.9779
18773TIP3    H277811   3.924   4.381   0.996 -0.9669 -1.0397  1.7471
18774TIP3   OH277812   6.572   5.869   3.923 -0.1619  0.4206  0.2397
18774TIP3    H177813   6.479   5.882   3.941 -0.0152  1.7249  0.0819
18774TIP3    H277814   6.579   5.776   3.901 -1.4903  0.4013 -0.1607
18775TIP3   OH277815   4.693   1.529   0.781  0.6250 -0.4991  0.0741
18775TIP3    H177816   4.604   1.543   0.749  0.6737  0.7179  0.4370
18775TIP3    H277817   4.689   1.554   0.874  1.2724 -0.7108  0.1603
18776TIP3   OH277818   6.020   3.861   5.739 -0.1579 -0.1525 -0.1915
18776TIP3    H177819   5.975   3.814   5.810 -0.8821  1.1963  0.2711
18776TIP3    H277820   5.977   3.946   5.736  0.2241 -0.0030 -1.9266
18777TIP3   OH277821   2.860   6.144  12.940  0.0882  0.6202  0.4362
18777TIP3    H177822   2.847   6.057  12.977  1.0365 -0.3600 -1.4978
18777TIP3    H277823   2.858   6.131  12.846  0.2256  2.7094  0.1146
18778TIP3   OH277824   3.398   5.466  12.665 -0.7371  0.1445  0.0202
18778TIP3    H177825   3.375   5.558  12.678 -0.9167  0.1566 -0.3825
18778TIP3    H277826   3.484   5.468  12.623 -0.7182  0.1269  0.0569
18779TIP3   OH277827   1.732   0.429  16.427  0.4191 -0.6900  0.0731
18779TIP3    H177828   1.667   0.393  16.487  1.2167 -2.2720  0.0225
18779TIP3    H277829   1.805   0.455  16.483  1.3665 -2.6238 -0.2375
18780TIP3   OH277830   5.485   0.578  13.273  0.0743 -0.6805  0.5186
18780TIP3    H177831   5.401   0.548  13.240 -0.4884 -0.7731  2.0209
18780TIP3    H277832   5.469   0.667  13.303  0.6016 -0.5599  0.4532
18781TIP3   OH277833   6.548   3.185  13.470  0.8190  0.3438  0.3565
18781TIP3    H177834   6.570   3.197  13.378  0.9719 -0.3896  0.2900
18781TIP3    H277835   6.506   3.267  13.497  1.1063  0.6930 -0.2651
18782TIP3   OH277836   1.384   2.980  15.776  0.5851 -0.6557 -0.3267
18782TIP3    H177837   1.307   3.010  15.825  1.5229 -0.1365  0.8560
18782TIP3    H277838   1.457   2.994  15.836  1.4951 -2.0211 -1.0890
18783TIP3   OH277839   6.719   6.730   6.449  0.5168  0.1711  0.7807
18783TIP3    H177840   6.765   6.808   6.480  1.1565  0.8487 -1.7278
18783TIP3    H277841   6.627   6.745   6.471  0.2192  2.9173 -2.0320
18784TIP3   OH277842   4.307   2.199  12.035  0.2198  0.0820 -0.2234
18784TIP3    H177843   4.340   2.110  12.035 -0.3569 -0.1328  0.1656
18784TIP3    H277844   4.344   2.239  12.113  1.2226  0.4636 -0.8898
18785TIP3   OH277845   3.411   2.562   5.166 -0.5405  0.4321 -0.1236
18785TIP3    H177846   3.435   2.484   5.217 -2.8447 -0.4136 -0.2709
18785TIP3    H277847   3.450   2.635   5.215  2.9191 -0.8695 -0.7839
18786TIP3   OH277848   3.919   4.413  14.158  0.0116  0.2347 -0.4913
18786TIP3    H177849   3.830   4.381  14.143 -0.5330  1.3368  0.3567
18786TIP3    H277850   3.971   4.368  14.092 -1.2506 -0.0547 -1.3169
18787TIP3   OH277851   5.627   1.922   0.985  0.0444 -0.9243 -0.3202
18787TIP3    H177852   5.712   1.908   1.028  0.8474 -0.3762 -1.6992
18787TIP3    H277853   5.601   1.835   0.956  1.2292 -0.7775 -1.8843
18788TIP3   OH277854   1.435   3.713   4.012 -0.3091  0.4062 -0.1451
18788TIP3    H177855   1.340   3.725   4.006 -0.2134  0.5594 -1.6095
18788TIP3    H277856   1.470   3.801   4.020 -0.3209  0.3114  0.9949
18789TIP3   OH277857   1.851   6.284   1.361  0.2645 -0.1298 -0.1353
18789TIP3    H177858   1.831   6.211   1.302  0.7641 -0.8332  0.5482
18789TIP3    H277859   1.898   6.243   1.434 -0.1565  0.7562  0.6479
18790TIP3   OH277860   1.457   6.577  15.645  0.2701 -0.5544 -0.2545
18790TIP3    H177861   1.405   6.570  15.725  0.8983  0.4656  0.2584
18790TIP3    H277862   1.395   6.610  15.580 -0.3792 -1.9037 -0.3409
18791TIP3   OH277863   0.966   4.938   4.328 -0.3536  0.4244  0.1869
18791TIP3    H177864   1.008   4.858   4.360  1.9751  1.7613  0.5971
18791TIP3    H277865   0.963   4.926   4.233 -2.4953 -1.2936  0.4459
18792TIP3   OH277866   4.118   2.845   4.175 -0.0285  0.3702  0.3196
18792TIP3    H177867   4.101   2.765   4.224  0.9221 -0.5348 -0.7915
18792TIP3    H277868   4.195   2.824   4.122  0.5762  2.2201  0.4543
18793TIP3   OH277869   4.129   3.802  12.907 -0.1529 -1.1683 -0.1624
18793TIP3    H177870   4.138   3.741  12.980  2.1514 -1.0124 -0.3073
18793TIP3    H277871   4.169   3.757  12.833  0.0267 -0.1622 -0.6781
18794TIP3   OH277872   4.198   0.160  16.163  0.4751  0.2863 -0.6448
18794TIP3    H177873   4.159   0.247  16.154  0.3727  0.3215  0.1105
18794TIP3    H277874   4.129   0.100  16.134 -0.4161  0.3055  1.3558
18795TIP3   OH277875   0.757   0.211   5.692 -0.3980  0.1093 -0.0145
18795TIP3    H177876   0.691   0.271   5.659 -0.3689  0.8667  1.2895
18795TIP3    H277877   0.710   0.128   5.703 -1.1290  0.6200  0.8229
18796TIP3   OH277878   2.154   3.276  12.273  0.5835 -0.1142  0.0282
18796TIP3    H177879   2.205   3.195  12.283  0.1033 -0.4499 -0.2178
18796TIP3    H277880   2.136   3.281  12.179 -0.7173 -0.5461  0.2375
18797TIP3   OH277881   0.411   5.454   1.706  0.1784 -0.1763  0.0470
18797TIP3    H177882   0.466   5.418   1.637 -2.0333 -0.8864 -1.3888
18797TIP3    H277883   0.359   5.522   1.664 -2.3226 -1.6807  0.5821
18798TIP3   OH277884   3.339   6.159  13.960 -0.5440  0.0323 -0.1801
18798TIP3    H177885   3.275   6.199  13.902 -1.4313 -0.9835  0.0650
18798TIP3    H277886   3.381   6.232  14.005 -0.1810  0.8000 -1.7510
18799TIP3   OH277887   3.839   2.232   3.743  0.0139  0.3457 -0.4585
18799TIP3    H177888   3.751   2.225   3.779  0.3373  1.6918  0.6592
18799TIP3    H277889   3.896   2.229   3.820  0.8094  1.6133 -0.9799
18800TIP3   OH277890   4.868   1.771   5.623  0.9207  0.2871  0.2659
18800TIP3    H177891   4.806   1.821   5.676 -0.6283 -1.2254 -0.0543
18800TIP3    H277892   4.830   1.771   5.535  0.5636 -1.9268  0.3879
18801TIP3   OH277893   5.017   6.499   1.954 -0.3615  0.0617 -0.7041
18801TIP3    H177894   4.931   6.482   1.993  0.4379 -0.8604  0.7229
18801TIP3    H277895   5.040   6.587   1.983 -0.4926  0.0071 -0.4323
18802TIP3   OH277896   4.165   3.340  14.610 -0.5389 -0.5660  0.4012
18802TIP3    H177897   4.140   3.432  14.609 -1.4653 -0.7989  1.7028
18802TIP3    H277898   4.141   3.308  14.523 -1.9947 -0.0375  0.5938
18803TIP3   OH277899   1.209   6.733   1.069 -0.3948  0.1348  0.6308
18803TIP3    H177900   1.127   6.784   1.069 -1.0513 -0.8854 -0.5451
18803TIP3    H277901   1.276   6.795   1.099 -1.1539  1.7252 -0.8977
18804TIP3   OH277902   4.435   1.556  13.943  0.2687  0.3057  0.0752
18804TIP3    H177903   4.427   1.603  13.861  1.4709  0.2114 -0.1120
18804TIP3    H277904   4.506   1.601  13.990  0.4098 -0.3785  0.5326
18805TIP3   OH277905   3.217   4.427   0.832 -0.4558  0.5645 -0.1091
18805TIP3    H177906   3.224   4.515   0.794 -0.8201  1.0059  0.8211
18805TIP3    H277907   3.155   4.381   0.775 -1.1441  1.2758  0.0595
18806TIP3   OH277908   0.220   2.028   3.565  0.3214  0.3303 -0.4498
18806TIP3    H177909   0.202   1.935   3.549  1.3321 -0.6312  3.4679
18806TIP3    H277910   0.143   2.059   3.614  0.1048  1.5220 -1.5212
18807TIP3   OH277911   4.146   4.901   3.545  0.0207 -0.4794  0.3713
18807TIP3    H177912   4.222   4.904   3.487 -0.5605 -0.9734 -0.4293
18807TIP3    H277913   4.179   4.930   3.630  0.5447  1.8213 -0.5753
18808TIP3   OH277914   0.661   5.182  15.565  0.1367  0.5521  0.0960
18808TIP3    H177915   0.716   5.188  15.487  0.7556  0.2950  0.5160
18808TIP3    H277916   0.572   5.170  15.530  0.3751  0.6897 -0.5697
18809TIP3   OH277917   3.923   5.983  15.884  0.1035 -0.0990  0.7568
18809TIP3    H177918   3.915   5.955  15.793  1.0322 -1.1333  0.9842
18809TIP3    H277919   3.839   5.959  15.924 -0.2950  0.3382  0.1860
18810TIP3   OH277920   5.924   3.345   3.993 -0.4488  0.1146  0.2452
18810TIP3    H177921   5.908   3.413   4.058 -2.3280  1.1843 -1.2925
18810TIP3    H277922   5.840   3.333   3.948 -0.0517 -2.9428  0.1885
18811TIP3   OH277923   2.319   0.957  15.531  0.6470 -0.2531 -0.0072
18811TIP3    H177924   2.360   0.951  15.617  1.1587 -0.6060 -0.2701
18811TIP3    H277925   2.271   1.039  15.532 -1.7982 -1.6536  1.6841
18812TIP3   OH277926   3.732   6.652   1.344 -0.2658 -0.4685 -0.4686
18812TIP3    H177927   3.659   6.599   1.311  0.5083 -0.3722 -2.4230
18812TIP3    H277928   3.807   6.622   1.293  0.8293  0.2215  0.7384
18813TIP3   OH277929   3.736   4.327  13.006 -0.4006  0.2196  0.0425
18813TIP3    H177930   3.827   4.355  12.998 -0.2909 -0.3538 -0.7588
18813TIP3    H277931   3.739   4.233  12.991 -0.8255 -0.1795  2.2540
18814TIP3   OH277932   5.710   6.526   0.607 -0.7565  0.1845  0.0642
18814TIP3    H177933   5.648   6.550   0.539  0.0359  0.6392 -0.5059
18814TIP3    H277934   5.661   6.468   0.666 -1.7474  0.6564 -0.3015
18815TIP3   OH277935   2.914   4.850  12.582  0.0094  1.0777 -0.6747
18815TIP3    H177936   2.990   4.846  12.640 -0.1024  1.1284 -0.5238
18815TIP3    H277937   2.840   4.827  12.638  0.0867 -0.3884 -1.1519
18816TIP3   OH277938   1.715   6.014   3.401 -0.6904  0.6854 -0.1703
18816TIP3    H177939   1.795   6.032   3.451  1.0620 -3.7086 -1.1551
18816TIP3    H277940   1.746   5.997   3.312 -2.7628 -0.4727 -0.6958
18817TIP3   OH277941   4.500   5.936  15.408 -0.1227  0.1450 -0.1248
18817TIP3    H177942   4.428   5.875  15.427 -1.1856  0.9713 -1.4185
18817TIP3    H277943   4.566   5.882  15.365 -0.6338 -0.2965 -0.3623
18818TIP3   OH277944   6.235   3.631   3.928  0.3334 -1.1073  0.5055
18818TIP3    H177945   6.244   3.703   3.990  1.5920  0.1967 -1.1359
18818TIP3    H277946   6.208   3.556   3.981  4.0389 -0.7481  3.0894
18819TIP3   OH277947   6.163   4.484  16.670  0.0098  0.8855  0.3666
18819TIP3    H177948   6.115   4.540  16.731  0.0294  0.5725  0.6658
18819TIP3    H277949   6.141   4.520  16.583 -0.1534  1.2209  0.5440
18820TIP3   OH277950   2.107   4.826   4.746  0.1199  0.8560 -0.1031
18820TIP3    H177951   2.194   4.827   4.706  0.4179 -0.6718  0.5041
18820TIP3    H277952   2.123   4.820   4.840 -0.6331 -3.0494 -0.1470
18821TIP3   OH277953   0.838   1.078   4.937  0.1536  0.0429 -0.5056
18821TIP3    H177954   0.865   0.986   4.931  1.3614  0.3111  0.6954
18821TIP3    H277955   0.766   1.078   5.000  1.4034  0.1612  0.9582
18822TIP3   OH277956   6.502   1.730   1.083 -0.1443  0.1152 -0.2191
18822TIP3    H177957   6.548   1.655   1.047  0.1358 -0.6349  1.6660
18822TIP3    H277958   6.418   1.732   1.037  0.3547 -0.6048 -1.1571
18823TIP3   OH277959   2.305   4.358   5.235  0.2556  0.1873 -0.0422
18823TIP3    H177960   2.319   4.263   5.239  0.5045  0.2187 -0.1315
18823TIP3    H277961   2.356   4.386   5.158 -0.2652  0.3150 -0.3435
18824TIP3   OH277962   4.684   1.116  14.278  0.1021  0.2048  0.1226
18824TIP3    H177963   4.603   1.065  14.279  0.2772 -0.0620  1.0968
18824TIP3    H277964   4.654   1.207  14.267 -0.1850 -0.1154 -1.9950
18825TIP3   OH277965   4.093   1.272  14.984  0.2485 -0.4641 -0.0259
18825TIP3    H177966   4.051   1.186  14.972  1.7781 -1.4278  1.3018
18825TIP3    H277967   4.129   1.293  14.898 -1.9182 -0.1691 -0.8838
18826TIP3   OH277968   0.543   0.716   0.052  0.4611  0.1752 -0.1906
18826TIP3    H177969   0.563   0.805   0.080  1.2049 -0.2086  0.5303
18826TIP3    H277970   0.627   0.681   0.021  0.0103 -0.0083 -1.2249
18827TIP3   OH277971   2.285   6.804  13.812 -0.4530 -0.1310  0.2874
18827TIP3    H177972   2.312   6.883  13.766  1.0303 -0.6432  0.2628
18827TIP3    H277973   2.260   6.743  13.743 -0.9532  0.0805  0.2807
18828TIP3   OH277974   5.307   0.914   3.794  0.1672  0.1826  0.2564
18828TIP3    H177975   5.376   0.977   3.819 -0.4746  0.2463  1.9399
18828TIP3    H277976   5.352   0.830   3.790  0.0682 -0.0157  2.8359
18829TIP3   OH277977   5.381   4.351   1.543  0.1851 -0.6280  0.5122
18829TIP3    H177978   5.408   4.399   1.465  3.4381 -2.0522  0.6844
18829TIP3    H277979   5.327   4.279   1.511  1.2854 -1.0474 -0.4219
18830TIP3   OH277980   0.163   3.199  16.362  0.8488 -0.0817 -0.1736
18830TIP3    H177981   0.155   3.282  16.316  2.3739  0.2217  0.0932
18830TIP3    H277982   0.103   3.207  16.436  0.1481  0.3319 -0.7700
18831TIP3   OH277983   6.258   3.778  16.278  0.4926 -0.0739  0.2811
18831TIP3    H177984   6.249   3.826  16.196 -1.6785 -1.8410 -0.5750
18831TIP3    H277985   6.313   3.702  16.256 -1.1946 -1.2706  0.1026
18832TIP3   OH277986   0.560   3.543  16.677  0.0043 -0.5702 -0.3935
18832TIP3    H177987   0.569   3.474  16.742  1.1299 -1.3722 -1.3925
18832TIP3    H277988   0.546   3.623  16.729 -0.1891 -1.3611  0.7904
18833TIP3   OH277989   4.386   3.428  11.218  0.4643  0.7218 -0.1224
18833TIP3    H177990   4.307   3.482  11.205 -0.1824 -0.4461 -1.1807
18833TIP3    H277991   4.425   3.462  11.298 -1.5841  0.7917  0.8907
18834TIP3   OH277992   6.491   1.392   4.208 -0.1642 -0.0827 -0.2590
18834TIP3    H177993   6.461   1.380   4.298  0.1590  1.1927  0.0315
18834TIP3    H277994   6.586   1.388   4.214 -0.1283  0.3886 -0.4765
18835TIP3   OH277995   4.556   5.356   5.044  0.1861  0.6126 -0.1152
18835TIP3    H177996   4.546   5.275   5.094  0.1337 -0.0820 -1.2303
18835TIP3    H277997   4.466   5.387   5.032  0.1309  0.3108 -0.5160
18836TIP3   OH277998   4.833   6.796   1.413  0.2315 -0.9550  0.3928
18836TIP3    H177999   4.801   6.746   1.487 -0.8429 -1.4239 -0.3729
18836TIP3    H278000   4.900   6.854   1.450 -1.0551 -0.3960  1.9268
18837TIP3   OH278001   3.972   3.885   6.413 -0.4510 -0.2032 -0.7006
18837TIP3    H178002   4.022   3.805   6.422 -0.7629 -0.3012  0.1413
18837TIP3    H278003   3.884   3.856   6.391 -0.3271 -0.0529 -1.4228
18838TIP3   OH278004   0.811   2.142   2.214  0.1619 -0.3078  0.1283
18838TIP3    H178005   0.731   2.108   2.253  0.9793  1.4423  3.4700
18838TIP3    H278006   0.867   2.065   2.203  0.1853 -0.7698  3.1612
18839TIP3   OH278007   5.393   6.819   3.986 -0.7375 -0.2854 -0.0223
18839TIP3    H178008   5.374   6.816   3.892  2.4346 -1.7844 -0.6805
18839TIP3    H278009   5.391   6.912   4.007 -1.7049  0.0596 -1.4923
18840TIP3   OH278010   4.195   4.478  13.732  0.5784 -0.3194  0.5312
18840TIP3    H178011   4.263   4.537  13.765  0.6634  1.0562 -1.9881
18840TIP3    H278012   4.240   4.393  13.724  1.8569  0.4474 -0.5682
18841TIP3   OH278013   4.065   6.339   6.174  0.4146 -0.2504  0.5304
18841TIP3    H178014   4.085   6.292   6.255  0.9515  0.5112  0.8546
18841TIP3    H278015   3.979   6.379   6.190  0.7273  0.2879  0.9200
18842TIP3   OH278016   4.716   4.015   0.480 -0.2649  0.4591 -0.0086
18842TIP3    H178017   4.707   3.998   0.386  1.9279 -1.8312  0.1434
18842TIP3    H278018   4.802   4.057   0.488  0.8644 -2.0064  1.2439
18843TIP3   OH278019   4.427   6.597   1.629  0.3317 -0.5714  0.0190
18843TIP3    H178020   4.456   6.537   1.560 -2.8189 -1.0412 -0.9964
18843TIP3    H278021   4.339   6.624   1.602  0.6709  2.5125  1.7858
18844TIP3   OH278022   0.096   1.775   0.257  0.6931 -0.1471 -0.2869
18844TIP3    H178023   0.125   1.741   0.173 -0.3208 -3.2755  0.5695
18844TIP3    H278024   0.038   1.849   0.235 -0.2168 -1.4448 -2.3703
18845TIP3   OH278025   5.099   2.411  13.442  0.2628  0.0745  0.6445
18845TIP3    H178026   5.091   2.359  13.361 -0.1757  0.9309  0.1277
18845TIP3    H278027   5.012   2.404  13.483 -0.8667  3.0735 -1.0887
18846TIP3   OH278028   2.515   4.910   4.226  0.1602 -0.6318  0.1117
18846TIP3    H178029   2.534   4.952   4.310 -2.4172  0.7753  0.0711
18846TIP3    H278030   2.463   4.833   4.249 -0.5743 -0.2287 -0.1537
18847TIP3   OH278031   2.246   5.683   0.065  0.8611 -0.2916 -0.0204
18847TIP3    H178032   2.282   5.599   0.036  3.1122  1.0467 -1.1585
18847TIP3    H278033   2.181   5.705  -0.001  1.2750 -0.4626 -0.4871
18848TIP3   OH278034   4.342   2.566   1.411  0.0651 -0.4074  0.1402
18848TIP3    H178035   4.420   2.523   1.446 -0.3571 -1.7493 -0.5535
18848TIP3    H278036   4.279   2.562   1.483  0.4274  0.1572  0.4971
18849TIP3   OH278037   1.780   6.212   0.434  0.1222  0.3552  0.5853
18849TIP3    H178038   1.765   6.191   0.342  0.5951  0.6832  0.4321
18849TIP3    H278039   1.731   6.145   0.482  1.4689 -0.9980  0.1178
18850TIP3   OH278040   2.344   1.636  16.709  0.2490  0.0098 -0.3590
18850TIP3    H178041   2.276   1.591  16.759  1.1814 -0.8708  0.1322
18850TIP3    H278042   2.309   1.724  16.695  0.2629  0.5446  2.5043
18851TIP3   OH278043   1.968   4.970   1.672  0.1869 -0.1234 -0.2439
18851TIP3    H178044   1.977   5.043   1.611 -0.8747 -0.5363 -0.9084
18851TIP3    H278045   1.925   4.901   1.621  1.7493 -1.4462  0.1924
18852TIP3   OH278046   2.426   0.730   5.182 -0.8502  0.3019  0.1152
18852TIP3    H178047   2.355   0.780   5.222 -0.8818 -0.3587  0.8853
18852TIP3    H278048   2.500   0.743   5.241 -0.2650  1.1391 -0.7813
18853TIP3   OH278049   0.244   6.046  17.240 -0.0754 -0.3465  0.2579
18853TIP3    H178050   0.301   6.109  17.197 -0.4943  0.0454  0.2711
18853TIP3    H278051   0.239   5.973  17.179 -0.3329  0.0313 -0.1743
18854TIP3   OH278052   6.683   3.234   3.721  0.7985  0.2106  0.1569
18854TIP3    H178053   6.640   3.312   3.755  2.3905  1.2966 -0.3135
18854TIP3    H278054   6.669   3.238   3.626  0.9530 -0.0384  0.1211
18855TIP3   OH278055   0.133   0.549   0.298  0.2521 -0.1001  0.3853
18855TIP3    H178056   0.067   0.607   0.335 -1.3790  0.4463 -3.1469
18855TIP3    H278057   0.101   0.461   0.316 -0.2113  0.1436  0.7506
18856TIP3   OH278058   3.204   6.080  11.999  0.5687 -0.1935 -0.0621
18856TIP3    H178059   3.220   6.066  12.093  0.5740 -0.5683 -0.1168
18856TIP3    H278060   3.287   6.058  11.957  0.0186 -1.8789 -0.3261
18857TIP3   OH278061   4.348   4.759  12.628 -0.2015  0.4572  0.0198
18857TIP3    H178062   4.385   4.811  12.699  1.5323  0.1462 -0.6433
18857TIP3    H278063   4.286   4.818  12.585  1.9203  2.0639 -0.8791
18858TIP3   OH278064   0.381   0.408  17.069 -0.0086 -0.8199  0.2456
18858TIP3    H178065   0.377   0.427  17.163 -0.4837  2.6033 -0.4185
18858TIP3    H278066   0.384   0.494  17.027 -2.1870 -2.2608 -2.9991
18859TIP3   OH278067   5.972   6.819   3.785 -0.0620  0.2287 -0.0998
18859TIP3    H178068   5.907   6.752   3.806  1.3183 -0.7140  1.2530
18859TIP3    H278069   5.960   6.836   3.692 -1.9307 -0.2715  0.0313
18860TIP3   OH278070   5.947   1.105   5.600  0.5473 -0.4530  0.0358
18860TIP3    H178071   5.978   1.178   5.654  0.5993  0.0770 -0.6953
18860TIP3    H278072   5.874   1.068   5.649  1.8280 -1.2313  1.4167
18861TIP3   OH278073   5.122   0.576  15.295 -0.1603 -0.0282  0.6427
18861TIP3    H178074   5.080   0.508  15.347 -0.4198  0.4484  1.0651
18861TIP3    H278075   5.066   0.653  15.307  0.8930  0.6483  1.3098
18862TIP3   OH278076   3.320   0.155   3.517  0.4357 -0.1631  1.2211
18862TIP3    H178077   3.270   0.080   3.485  0.1250 -0.4253  2.3025
18862TIP3    H278078   3.346   0.202   3.438  1.5685 -2.0108  0.4658
18863TIP3   OH278079   2.398   6.340   1.111 -0.6701  0.6960  0.0305
18863TIP3    H178080   2.484   6.300   1.103 -0.1049  0.4682  5.2808
18863TIP3    H278081   2.337   6.273   1.081  0.7853 -0.5716 -0.1376
18864TIP3   OH278082   5.993   2.344  15.131  0.3185  0.0416  0.9655
18864TIP3    H178083   5.946   2.336  15.048 -1.8020 -0.2253  2.1705
18864TIP3    H278084   6.018   2.254  15.152 -2.5088 -0.4467  2.4935
18865TIP3   OH278085   4.133   5.172  14.557 -0.0362 -0.4464  0.0580
18865TIP3    H178086   4.169   5.258  14.538 -0.4433 -0.1501  0.6379
18865TIP3    H278087   4.185   5.112  14.503 -0.2379  0.2404 -0.9058
18866TIP3   OH278088   4.299   5.648  11.788  0.3545  0.3883  0.1795
18866TIP3    H178089   4.342   5.563  11.788  0.5799  0.4766  1.8484
18866TIP3    H278090   4.319   5.686  11.703  0.7848 -0.9610 -0.3247
18867TIP3   OH278091   5.900   4.117   4.800 -0.5571 -0.3011  0.1965
18867TIP3    H178092   5.965   4.181   4.828 -1.2407  0.4745  0.0405
18867TIP3    H278093   5.870   4.076   4.881 -0.8000  0.2451  0.3816
18868TIP3   OH278094   0.020   6.360   1.627 -0.7415  0.1415 -0.5434
18868TIP3    H178095   0.106   6.376   1.588 -0.4445  0.8282  0.3668
18868TIP3    H278096   0.006   6.266   1.617 -0.5024  0.2451 -1.9419
18869TIP3   OH278097   4.181   5.291  15.702 -0.2467 -0.0574 -0.4418
18869TIP3    H178098   4.137   5.347  15.637  0.9192  1.8307  0.3407
18869TIP3    H278099   4.268   5.330  15.711 -0.9962  0.9382  3.6454
18870TIP3   OH278100   3.174   2.556  13.062 -0.1604  0.5919  0.1436
18870TIP3    H178101   3.157   2.643  13.025 -1.1577  0.6732  0.7605
18870TIP3    H278102   3.263   2.534  13.033  0.0325  1.7402 -0.1635
18871TIP3   OH278103   3.858   6.097   1.292  0.2483  0.0857  0.1346
18871TIP3    H178104   3.822   6.044   1.221  1.6501 -0.5566 -0.1289
18871TIP3    H278105   3.921   6.155   1.248  0.8433 -0.0552  0.7885
18872TIP3   OH278106   0.166   1.038  16.244 -0.0466 -0.0092  0.4273
18872TIP3    H178107   0.071   1.050  16.242 -0.1104 -0.6106 -2.3476
18872TIP3    H278108   0.202   1.124  16.225 -0.0948 -0.1185 -0.1828
18873TIP3   OH278109   3.803   5.541  13.252 -0.2747  0.4721  0.0139
18873TIP3    H178110   3.859   5.494  13.314  0.7195  2.2206  0.4826
18873TIP3    H278111   3.797   5.629  13.287 -1.8857  0.7944 -0.9983
18874TIP3   OH278112   0.523   2.798  15.569 -0.3442 -0.0325  0.0201
18874TIP3    H178113   0.498   2.765  15.655  0.3788  0.6723  0.5115
18874TIP3    H278114   0.478   2.883  15.561 -1.2501 -0.5759 -0.7400
18875TIP3   OH278115   4.991   6.409  15.602 -0.5339  0.4362 -0.3549
18875TIP3    H178116   5.045   6.334  15.578 -0.1367  0.4150  0.6177
18875TIP3    H278117   4.901   6.376  15.597 -0.5910  0.8610 -3.4300
18876TIP3   OH278118   0.338   5.658   4.804 -0.0617 -0.6210  0.1283
18876TIP3    H178119   0.404   5.705   4.754  0.1347 -2.3243 -1.2580
18876TIP3    H278120   0.308   5.721   4.869  1.7704  0.6849 -0.2566
18877TIP3   OH278121   6.130   0.655  15.628  0.2307 -0.4165  0.0849
18877TIP3    H178122   6.098   0.730  15.678 -0.4527 -0.4095 -0.3605
18877TIP3    H278123   6.225   0.666  15.628  0.1209  0.6388 -0.2571
18878TIP3   OH278124   3.827   2.830   0.775  0.0554 -0.6910  0.3325
18878TIP3    H178125   3.801   2.755   0.721 -0.2017 -1.0563  0.9617
18878TIP3    H278126   3.754   2.844   0.835  0.2368 -0.1343  0.4316
18879TIP3   OH278127   6.722   6.244   0.221 -0.4245 -0.4254  0.2522
18879TIP3    H178128   6.810   6.249   0.259 -1.4969  1.1587  2.6223
18879TIP3    H278129   6.727   6.173   0.158  1.7211 -2.4669  2.6372
18880TIP3   OH278130   2.205   3.181   4.970 -0.0122 -0.1097 -0.2920
18880TIP3    H178131   2.211   3.254   5.032  0.2851  0.1076 -0.5770
18880TIP3    H278132   2.116   3.185   4.936 -0.8491 -1.4615  1.6367
18881TIP3   OH278133   1.459   0.871   0.082 -0.4271  0.1900 -0.1359
18881TIP3    H178134   1.432   0.864  -0.009 -1.8087  2.7156  0.0441
18881TIP3    H278135   1.377   0.874   0.132  0.3060 -0.5526  1.1421
18882TIP3   OH278136   5.497   5.267   0.723 -0.0311  0.4250 -0.1652
18882TIP3    H178137   5.503   5.213   0.645 -1.9321  2.2921 -1.6410
18882TIP3    H278138   5.561   5.338   0.709 -0.6999  1.0176 -0.2303
18883TIP3   OH278139   6.582   3.764   1.080 -0.1549  0.3036 -0.2476
18883TIP3    H178140   6.569   3.671   1.064  1.4411  0.4751 -2.7979
18883TIP3    H278141   6.657   3.768   1.139  2.5514  0.0313 -3.5115
18884TIP3   OH278142   6.430   5.835   1.990 -0.1771 -0.2034 -0.4537
18884TIP3    H178143   6.353   5.778   1.988  0.5613 -1.2019 -2.0269
18884TIP3    H278144   6.428   5.881   1.906  0.1088  0.9111  0.1440
18885TIP3   OH278145   1.226   4.634  10.783 -0.1578 -0.1078  0.1202
18885TIP3    H178146   1.183   4.549  10.781 -0.2092 -0.0805  0.0848
18885TIP3    H278147   1.163   4.695  10.744  0.2335 -0.2070 -0.6748
18886TIP3   OH278148   5.858   2.129  15.329 -0.3094  0.0964  1.0440
18886TIP3    H178149   5.915   2.136  15.406 -2.9315 -0.8905  3.1810
18886TIP3    H278150   5.871   2.040  15.298  0.0495  0.1869  0.9397
18887TIP3   OH278151   5.900   1.047  11.715  0.0415  0.2107 -0.1280
18887TIP3    H178152   5.896   1.116  11.649  0.4436 -0.5960 -1.0143
18887TIP3    H278153   5.981   1.065  11.764 -0.4430  1.0142  0.3773
18888TIP3   OH278154   5.265   6.597  13.219  0.4234  0.0349  0.4046
18888TIP3    H178155   5.291   6.594  13.311 -0.6652 -0.0986  0.7103
18888TIP3    H278156   5.329   6.657  13.179 -1.1940  2.9584  1.9703
18889TIP3   OH278157   4.192   3.360   2.826  0.0266 -1.0236  0.2717
18889TIP3    H178158   4.277   3.370   2.783 -1.3002  0.8928 -2.0993
18889TIP3    H278159   4.199   3.412   2.906  1.0331 -0.6643 -0.0445
18890TIP3   OH278160   0.543   4.644  14.400  0.4268  0.2856  0.3327
18890TIP3    H178161   0.490   4.634  14.320  0.5989  0.5541  0.1866
18890TIP3    H278162   0.487   4.608  14.469 -0.0178  0.7216  0.2049
18891TIP3   OH278163   2.247   3.253  15.214  0.0657 -0.7452  0.7657
18891TIP3    H178164   2.238   3.214  15.300 -1.4309 -1.4007  0.3283
18891TIP3    H278165   2.277   3.342  15.230 -0.7116 -0.6985  1.9914
18892TIP3   OH278166   0.882   1.418  16.992 -0.2262 -0.4717  0.5165
18892TIP3    H178167   0.851   1.458  17.073 -1.6787 -2.2880  0.8739
18892TIP3    H278168   0.867   1.324  17.004  0.5790 -0.8641 -1.4127
18893TIP3   OH278169   3.165   4.339   5.934 -0.4105  0.2234 -0.0171
18893TIP3    H178170   3.162   4.257   5.984 -0.5995 -0.4910 -1.1783
18893TIP3    H278171   3.230   4.323   5.866  0.5617  1.5353  0.5953
18894TIP3   OH278172   3.324   0.101  14.207  0.0168  0.2926  0.3356
18894TIP3    H178173   3.264   0.162  14.163 -0.1227  0.7744  1.1873
18894TIP3    H278174   3.410   0.143  14.199  0.1574 -0.1299 -0.3972
18895TIP3   OH278175   5.098   1.251  12.226 -0.2727  0.0415  0.3686
18895TIP3    H178176   5.015   1.293  12.247  0.0713  1.1409 -0.4032
18895TIP3    H278177   5.153   1.323  12.193  0.1950 -1.1023 -1.3884
18896TIP3   OH278178   4.129   4.633   0.323  0.1143  0.1417  0.0478
18896TIP3    H178179   4.147   4.703   0.261 -2.0697  0.5829 -0.1017
18896TIP3    H278180   4.050   4.591   0.291  0.0961 -0.9131  1.4126
18897TIP3   OH278181   4.536   2.037  16.109  0.6252 -0.1400 -0.1964
18897TIP3    H178182   4.459   2.041  16.165  0.7069 -1.6865  0.0360
18897TIP3    H278183   4.507   2.076  16.026 -0.4709 -0.9169 -0.1794
18898TIP3   OH278184   2.183   4.920  16.926 -0.1123 -0.7433 -0.2109
18898TIP3    H178185   2.166   4.896  16.835  0.7384  0.2668 -0.6552
18898TIP3    H278186   2.233   4.846  16.961  1.4783 -0.1712 -1.2191
18899TIP3   OH278187   1.788   4.196   2.829 -1.0263  0.6325 -0.1242
18899TIP3    H178188   1.828   4.114   2.799 -2.7352 -0.1859 -0.2593
18899TIP3    H278189   1.848   4.264   2.799  0.5597 -0.5721  0.2079
18900TIP3   OH278190   2.023   1.487  15.130 -0.5220 -0.1302  0.6961
18900TIP3    H178191   1.928   1.494  15.140 -0.2642  1.1715  2.5090
18900TIP3    H278192   2.051   1.436  15.207  0.4599  1.3047  1.3052
18901TIP3   OH278193   3.657   5.720   4.945 -0.6369  0.2364  0.1522
18901TIP3    H178194   3.626   5.764   4.866 -1.0494 -1.0730 -0.4270
18901TIP3    H278195   3.667   5.790   5.009 -1.6110  1.1208 -0.6481
18902TIP3   OH278196   2.467   1.518  13.725  0.3069 -0.1418 -0.2746
18902TIP3    H178197   2.451   1.492  13.815  0.4430  0.0300 -0.2008
18902TIP3    H278198   2.475   1.436  13.677  0.8548 -0.2311 -0.0210
18903TIP3   OH278199   2.160   3.018   6.232 -0.3060 -0.1238 -0.9401
18903TIP3    H178200   2.090   3.082   6.218 -0.3925  0.1629  0.7179
18903TIP3    H278201   2.218   3.059   6.296  0.8860 -0.7431 -1.6143
18904TIP3   OH278202   2.463   5.975  11.450  0.4990 -0.2569 -0.1868
18904TIP3    H178203   2.520   5.939  11.382  3.0132 -1.3632  2.4181
18904TIP3    H278204   2.405   5.902  11.475  0.3832 -0.2039 -0.2989
18905TIP3   OH278205   5.604   1.886   5.808  0.2234 -0.6114  0.8885
18905TIP3    H178206   5.530   1.825   5.801  1.3306 -1.7629 -1.0184
18905TIP3    H278207   5.602   1.936   5.726 -0.4486  1.7230  2.2690
18906TIP3   OH278208   6.712   6.577   3.967  0.3019  0.3808 -0.2026
18906TIP3    H178209   6.641   6.524   3.928 -0.9543  2.7596 -1.2426
18906TIP3    H278210   6.685   6.589   4.058  0.5383 -0.6495  0.0131
18907TIP3   OH278211   5.106   3.281  10.810 -0.4398 -0.5268 -0.2413
18907TIP3    H178212   5.169   3.327  10.755  1.7351 -1.6393  1.2069
18907TIP3    H278213   5.021   3.310  10.779  0.7919  1.6178 -1.7789
18908TIP3   OH278214   2.011   6.356   4.792  0.0080  0.1719  0.1986
18908TIP3    H178215   2.056   6.439   4.778  0.6057 -0.1113  0.4287
18908TIP3    H278216   1.956   6.345   4.714  1.8226 -0.4290 -1.0425
18909TIP3   OH278217   1.875   6.518   5.814  0.0285 -0.3946 -0.2312
18909TIP3    H178218   1.814   6.568   5.868  2.1481  3.6756 -1.3723
18909TIP3    H278219   1.961   6.533   5.854  1.1224 -0.5159 -2.4363
18910TIP3   OH278220   5.390   5.205  13.067  0.8057 -0.7545  0.4198
18910TIP3    H178221   5.346   5.120  13.062  2.6514 -1.7917  1.3318
18910TIP3    H278222   5.338   5.262  13.011 -2.0332 -1.7654  1.9577
18911TIP3   OH278223   0.062   2.128  11.669  0.3060 -0.3597 -0.2674
18911TIP3    H178224   0.059   2.168  11.756  1.8514  1.6132 -1.0797
18911TIP3    H278225   0.113   2.048  11.682 -2.0206 -1.6834  1.1946
18912TIP3   OH278226   4.436   6.681  16.813  0.2784  0.3256  0.0215
18912TIP3    H178227   4.364   6.685  16.750  0.3244 -1.6134 -0.1893
18912TIP3    H278228   4.507   6.729  16.772 -0.1430  0.2492 -0.8046
18913TIP3   OH278229   0.522   2.937  14.719  0.5738  0.0755  0.3803
18913TIP3    H178230   0.485   2.941  14.630  0.7917 -2.3206  0.1659
18913TIP3    H278231   0.499   3.022  14.757 -0.3301  0.7884 -1.6495
18914TIP3   OH278232   0.388   2.879   5.562 -0.1738 -0.7066 -0.0693
18914TIP3    H178233   0.307   2.912   5.601  0.2424 -1.2245  1.2530
18914TIP3    H278234   0.377   2.784   5.559  1.1315 -0.9437  1.8673
18915TIP3   OH278235   0.162   2.787  15.442  0.1669  0.3501 -0.5070
18915TIP3    H178236   0.176   2.813  15.351 -1.2862  0.8042 -0.6151
18915TIP3    H278237   0.177   2.866  15.493 -0.8705  0.5768 -0.5335
18916TIP3   OH278238   6.747   4.993   4.990  0.5303  0.1865 -0.2928
18916TIP3    H178239   6.696   5.074   4.995 -0.0688 -0.2742  1.9372
18916TIP3    H278240   6.687   4.926   5.023  2.0178 -0.6319  0.8158
18917TIP3   OH278241   1.475   0.212   4.927  0.3160 -0.3550 -0.1108
18917TIP3    H178242   1.388   0.192   4.891 -0.3332  0.5441  0.9486
18917TIP3    H278243   1.458   0.238   5.017  1.7546 -0.6955  0.2639
18918TIP3   OH278244   1.099   1.225  17.253 -0.0080 -0.2732 -0.8252
18918TIP3    H178245   1.173   1.281  17.280  1.3284 -1.4765 -1.8719
18918TIP3    H278246   1.026   1.286  17.242  1.1887  1.1623 -1.0866
18919TIP3   OH278247   1.312   4.647  14.928 -0.1138 -0.2822 -0.0166
18919TIP3    H178248   1.283   4.563  14.893  0.8767 -0.9142  0.6484
18919TIP3    H278249   1.408   4.645  14.919  0.0569  0.0806  1.4944
18920TIP3   OH278250   6.765   5.269  16.271 -0.6136 -0.1051 -0.2157
18920TIP3    H178251   6.754   5.361  16.296 -0.2864  0.1893 -1.1158
18920TIP3    H278252   6.829   5.235  16.333 -0.2695  0.4510 -0.2558
18921TIP3   OH278253   2.537   2.554  13.186  0.2411 -0.5366 -0.4269
18921TIP3    H178254   2.577   2.641  13.181 -0.0701 -0.4425 -1.4460
18921TIP3    H278255   2.597   2.503  13.241 -0.8075  0.9571  2.1830
18922TIP3   OH278256   1.882   5.444   5.977  0.8985 -0.4083 -0.7146
18922TIP3    H178257   1.796   5.403   5.965  1.8229 -2.4488 -0.5049
18922TIP3    H278258   1.870   5.533   5.944 -1.3087 -0.6406 -0.6403
18923TIP3   OH278259   5.730   3.930  14.100 -0.6534 -0.2767  0.3427
18923TIP3    H178260   5.666   3.885  14.155  0.5173 -0.4671  1.5763
18923TIP3    H278261   5.690   4.015  14.081 -2.9460 -1.8242 -2.1254
18924TIP3   OH278262   4.752   1.242   0.719  0.2212 -0.1676 -0.0488
18924TIP3    H178263   4.774   1.331   0.747 -0.7126 -0.1572  0.7143
18924TIP3    H278264   4.701   1.254   0.639  0.7640 -0.0620 -0.3812
18925TIP3   OH278265   3.821   3.198  13.683 -0.1811  0.0498  0.0490
18925TIP3    H178266   3.832   3.284  13.723  0.9268  0.4456 -1.0484
18925TIP3    H278267   3.871   3.138  13.739  0.1156  0.3410  0.0965
18926TIP3   OH278268   2.247   3.370   4.787  0.1102  0.2155 -0.2511
18926TIP3    H178269   2.167   3.424   4.781  0.0743  0.0727 -1.1875
18926TIP3    H278270   2.223   3.299   4.846 -0.5175  0.0777 -0.6615
18927TIP3   OH278271   4.406   3.270   1.795 -0.4175  0.9395  0.1973
18927TIP3    H178272   4.393   3.188   1.842  0.9951  0.6157  0.0243
18927TIP3    H278273   4.446   3.245   1.712 -1.2174  1.6815 -0.4217
18928TIP3   OH278274   1.330   0.540  14.901 -0.1199  0.1150 -0.3464
18928TIP3    H178275   1.321   0.474  14.970 -0.1268  0.3866 -0.0910
18928TIP3    H278276   1.273   0.509  14.831  2.4991 -2.0691 -1.6669
18929TIP3   OH278277   3.666   2.076  15.939  0.1045  0.9008  0.4545
18929TIP3    H178278   3.751   2.082  15.896 -0.6352  1.7848 -0.8955
18929TIP3    H278279   3.643   2.167  15.959 -0.5547  0.6641  0.7765
18930TIP3   OH278280   5.284   6.438  15.418 -0.2746 -0.4159  0.1162
18930TIP3    H178281   5.350   6.373  15.441  0.2937  0.2059  0.2598
18930TIP3    H278282   5.334   6.511  15.382 -0.6926  0.9263  2.1511
18931TIP3   OH278283   1.024   3.108   1.501 -0.1459  0.0712 -0.5518
18931TIP3    H178284   1.005   3.098   1.408  1.3364  0.3826 -0.8898
18931TIP3    H278285   0.990   3.028   1.541 -1.3169  0.2005 -1.2640
18932TIP3   OH278286   6.187   3.326   3.482 -0.7050 -0.0964 -0.1567
18932TIP3    H178287   6.207   3.246   3.530 -2.3761 -0.4848 -0.0498
18932TIP3    H278288   6.096   3.314   3.454 -0.5597  1.2229 -1.2203
18933TIP3   OH278289   0.770   2.562  12.654 -0.4105 -0.2524  0.0369
18933TIP3    H178290   0.782   2.481  12.605  2.4728  1.1762 -1.7211
18933TIP3    H278291   0.814   2.629  12.602  0.8001  1.7308  3.4380
18934TIP3   OH278292   5.770   0.976   5.374  0.2520  0.3337  0.2479
18934TIP3    H178293   5.828   1.022   5.436  0.9185 -0.0799 -0.0574
18934TIP3    H278294   5.778   0.884   5.399  1.5089  0.0139 -1.2415
18935TIP3   OH278295   2.151   6.038   6.016 -0.0027 -0.4776 -0.1799
18935TIP3    H178296   2.069   6.020   6.062 -0.8995  0.4752 -1.3654
18935TIP3    H278297   2.217   5.986   6.063 -1.2434 -1.1143  0.8957
18936TIP3   OH278298   4.033   4.296  13.934 -0.6559 -0.5558  0.5618
18936TIP3    H178299   4.075   4.360  13.878 -1.7008 -0.1289  0.2471
18936TIP3    H278300   3.982   4.241  13.874  1.0164 -2.3119  0.7096
18937TIP3   OH278301   4.941   1.391   4.936 -0.1100 -0.0929  0.4638
18937TIP3    H178302   4.943   1.308   4.984 -1.9044 -0.2330  0.3314
18937TIP3    H278303   4.958   1.366   4.845  2.0614  0.0342  0.7908
18938TIP3   OH278304   3.778   0.350  14.114 -0.4923 -0.4483  0.3635
18938TIP3    H178305   3.772   0.432  14.163 -0.8480 -0.5605  0.5044
18938TIP3    H278306   3.711   0.294  14.152 -2.1937  0.1758 -1.6417
18939TIP3   OH278307   0.879   0.875   5.610 -0.2355 -0.2696  0.0150
18939TIP3    H178308   0.787   0.868   5.635 -0.4806  1.7817 -0.2030
18939TIP3    H278309   0.924   0.810   5.665 -1.5091  0.3038  1.7747
18940TIP3   OH278310   6.437   2.389   5.417  0.1342 -0.2319  0.2008
18940TIP3    H178311   6.426   2.483   5.431  0.7358 -0.0206 -0.6877
18940TIP3    H278312   6.473   2.357   5.499  1.1010  0.5307  0.0812
18941TIP3   OH278313   3.399   2.683  14.851 -0.2003 -0.5686  0.0519
18941TIP3    H178314   3.324   2.626  14.834 -1.2128  0.9111 -0.5009
18941TIP3    H278315   3.462   2.627  14.897 -1.2961 -2.0450 -0.2313
18942TIP3   OH278316   4.599   4.360   1.710  0.0462 -0.8414 -0.5883
18942TIP3    H178317   4.568   4.307   1.784 -0.9760 -0.5907 -0.8258
18942TIP3    H278318   4.549   4.328   1.636 -0.8065  0.6535 -0.6838
18943TIP3   OH278319   2.015   5.738   0.277  0.1913 -0.1945 -0.2079
18943TIP3    H178320   2.020   5.830   0.300  0.1931 -0.0744 -0.6795
18943TIP3    H278321   2.051   5.733   0.189 -0.3673 -0.5555 -0.4221
18944TIP3   OH278322   4.733   4.730  16.991  0.1705 -0.2718  0.1655
18944TIP3    H178323   4.645   4.754  16.963  0.8657  0.4179 -1.5181
18944TIP3    H278324   4.778   4.706  16.910  1.8986  0.6188  0.8395
18945TIP3   OH278325   5.699   2.592  14.548  0.6140 -0.3105  0.3137
18945TIP3    H178326   5.706   2.659  14.480 -2.5591  1.1970  1.3806
18945TIP3    H278327   5.746   2.628  14.623  0.8129 -0.2586  0.1627
18946TIP3   OH278328   2.942   4.902   5.424 -0.1354  0.2927  0.1220
18946TIP3    H178329   2.903   4.828   5.377  1.4494 -0.4556 -0.0377
18946TIP3    H278330   2.879   4.973   5.413 -0.7454 -0.4580 -1.3987
18947TIP3   OH278331   5.470   4.933   4.216 -0.0240 -0.6105  0.2474
18947TIP3    H178332   5.454   4.895   4.303 -1.7613 -3.4425 -1.2032
18947TIP3    H278333   5.387   4.973   4.192  0.1346 -0.7374 -0.5198
18948TIP3   OH278334   5.440   2.339  15.294 -0.7453 -0.5530  0.1271
18948TIP3    H178335   5.453   2.414  15.237 -1.2306  0.1446  0.9252
18948TIP3    H278336   5.352   2.307  15.272 -0.6663 -0.6935  0.0151
18949TIP3   OH278337   0.002   6.178  15.495 -0.2451  0.0981 -0.0915
18949TIP3    H178338   0.023   6.085  15.496  1.3461  0.3993 -1.9376
18949TIP3    H278339   0.052   6.215  15.568 -0.3696 -0.3975  0.2457
18950TIP3   OH278340   2.405   3.378   5.768  0.2930 -0.4661  0.2732
18950TIP3    H178341   2.481   3.334   5.730  0.5822 -0.0919  0.4123
18950TIP3    H278342   2.443   3.445   5.825 -0.1386 -0.7434  0.8894
18951TIP3   OH278343   6.296   5.786  16.787 -0.5911 -0.1303 -0.1283
18951TIP3    H178344   6.284   5.725  16.714 -1.2578  0.3529 -0.4127
18951TIP3    H278345   6.217   5.840  16.788 -1.0891 -0.8622  1.6423
18952TIP3   OH278346   1.917   4.434   4.139  0.5840  0.2362  0.1621
18952TIP3    H178347   1.878   4.429   4.227 -0.2969 -0.6525 -0.2654
18952TIP3    H278348   1.950   4.523   4.133 -0.1311  0.5804  1.0842
18953TIP3   OH278349   6.441   0.828  15.280  0.1138  0.0173 -0.1389
18953TIP3    H178350   6.389   0.751  15.258  1.8944 -0.5463 -2.6637
18953TIP3    H278351   6.528   0.792  15.301  0.5891  1.2285 -0.0145
18954TIP3   OH278352   3.110   0.825   5.818 -0.7125  0.1051 -0.4458
18954TIP3    H178353   3.123   0.852   5.727 -0.0488 -0.5359 -0.5407
18954TIP3    H278354   3.049   0.890   5.854 -1.5001 -0.0288 -1.5297
18955TIP3   OH278355   1.052   4.312   2.818  0.9221 -0.5972 -0.4761
18955TIP3    H178356   1.105   4.237   2.842  0.3216 -0.1825  2.3102
18955TIP3    H278357   1.113   4.385   2.812  0.9915 -0.5416  0.7054
18956TIP3   OH278358   0.234   0.341  12.150  0.0437 -0.4409 -0.0066
18956TIP3    H178359   0.228   0.336  12.055  2.2509  0.5570 -0.2347
18956TIP3    H278360   0.191   0.423  12.173 -1.5654 -1.2692 -0.0094
18957TIP3   OH278361   3.362   6.058   2.596  0.1046 -0.4524 -0.2715
18957TIP3    H178362   3.372   5.999   2.671  0.4137 -0.7817 -0.5678
18957TIP3    H278363   3.451   6.068   2.562 -0.2893 -1.7524 -1.6983
18958TIP3   OH278364   2.466   4.142  16.129  0.3218 -0.3583 -0.1350
18958TIP3    H178365   2.491   4.093  16.207  2.2193  1.0218  0.1533
18958TIP3    H278366   2.386   4.099  16.098 -1.9924  0.7182  4.0832
18959TIP3   OH278367   6.613   5.077   5.610 -0.2678  0.2137  0.4039
18959TIP3    H178368   6.549   5.147   5.620 -1.0263 -0.3505 -0.5160
18959TIP3    H278369   6.647   5.087   5.522  0.3306  0.0158  0.6060
18960TIP3   OH278370   5.292   2.463  11.022 -0.0444  0.3341  0.5867
18960TIP3    H178371   5.328   2.543  10.983 -0.3580  1.2138  2.0398
18960TIP3    H278372   5.237   2.425  10.953 -0.1539  1.5472 -0.0094
18961TIP3   OH278373   0.554   0.389  11.641 -0.0159  0.4867  0.4646
18961TIP3    H178374   0.466   0.420  11.661  0.8954  2.8443  0.9879
18961TIP3    H278375   0.553   0.370  11.547 -1.3559 -0.5065  0.6714
18962TIP3   OH278376   6.223   2.654   3.868  0.4819 -0.1795  0.7535
18962TIP3    H178377   6.169   2.703   3.930  0.5385 -0.3152  0.9100
18962TIP3    H278378   6.170   2.577   3.845 -0.4961  1.0006 -1.0964
18963TIP3   OH278379   4.104   3.946  16.093 -0.1463 -0.2840 -0.3341
18963TIP3    H178380   4.121   4.009  16.023  0.2183  0.4995  0.4469
18963TIP3    H278381   4.010   3.953  16.109  0.2028  1.5998  1.1626
18964TIP3   OH278382   0.671   0.318  15.295  0.1886  0.4000 -0.0301
18964TIP3    H178383   0.678   0.334  15.200 -1.6770  0.6917 -0.1235
18964TIP3    H278384   0.658   0.223  15.302 -0.9497  0.5465 -0.1377
18965TIP3   OH278385   0.073   2.413  16.190 -0.3610 -0.4120  0.0599
18965TIP3    H178386   0.002   2.349  16.186  0.9681 -1.9620  0.6736
18965TIP3    H278387   0.062   2.456  16.275 -1.7434  0.7609 -0.7066
18966TIP3   OH278388   4.422   3.713  10.772 -0.1611  0.1005 -0.3727
18966TIP3    H178389   4.408   3.619  10.786 -0.3845  0.4433  1.8027
18966TIP3    H278390   4.517   3.723  10.778 -0.1367  0.0056 -0.6074
18967TIP3   OH278391   5.847   4.780  14.229  0.1646  0.6611 -0.5932
18967TIP3    H178392   5.769   4.835  14.241 -0.4605 -0.3830  0.2819
18967TIP3    H278393   5.906   4.807  14.300 -0.2703 -0.0066  0.0263
18968TIP3   OH278394   0.073   1.295   5.058  0.6755 -0.1041 -0.1692
18968TIP3    H178395   0.119   1.353   5.119  1.6966 -1.3129  0.2359
18968TIP3    H278396  -0.019   1.297   5.087  0.9071  0.4353  0.5314
18969TIP3   OH278397   6.791   2.483   2.217 -0.1230  1.1393  0.3010
18969TIP3    H178398   6.804   2.525   2.301 -1.5792  0.0215  1.1187
18969TIP3    H278399   6.772   2.555   2.157  0.8142  1.9303  0.9374
18970TIP3   OH278400   6.211   6.454   4.190  0.1562 -0.4184  0.4105
18970TIP3    H178401   6.152   6.459   4.265 -1.0774  0.6683 -0.6029
18970TIP3    H278402   6.193   6.369   4.151  0.4377 -0.7730  1.0526
18971TIP3   OH278403   2.916   6.320  13.644 -0.6494  0.5507 -0.5617
18971TIP3    H178404   2.862   6.293  13.570  0.2974  1.0352 -1.4400
18971TIP3    H278405   2.985   6.253  13.649 -0.6595  0.5693 -0.1826
18972TIP3   OH278406   6.570   2.973  15.976  0.1599 -0.0417  0.9751
18972TIP3    H178407   6.546   2.889  15.938 -1.5277  0.3296  1.1727
18972TIP3    H278408   6.523   2.976  16.059 -0.0889  1.2574  0.7930
18973TIP3   OH278409   6.318   5.912  16.214 -0.2843 -0.3349 -0.0647
18973TIP3    H178410   6.399   5.958  16.237 -0.9823  1.6961 -1.5394
18973TIP3    H278411   6.336   5.874  16.128 -0.8470  0.0846 -0.3742
18974TIP3   OH278412   1.736   0.260   6.465  0.4411  0.1085  0.4303
18974TIP3    H178413   1.703   0.350   6.469  0.1294  0.0385 -0.4494
18974TIP3    H278414   1.699   0.218   6.543 -0.7085  0.3170  0.0157
18975TIP3   OH278415   3.003   6.389   5.686  0.8426 -0.5170 -0.2443
18975TIP3    H178416   3.084   6.429   5.719  1.1570 -1.0412 -0.3785
18975TIP3    H278417   2.935   6.455   5.703  1.2322 -0.2265  0.2072
18976TIP3   OH278418   5.863   0.257  14.805  0.5109 -0.2630  0.4864
18976TIP3    H178419   5.913   0.177  14.818  2.3678  0.7290 -0.2896
18976TIP3    H278420   5.928   0.320  14.772 -0.9989  1.4161  0.6660
18977TIP3   OH278421   6.105   4.753  14.717 -0.1782  0.1173 -0.6810
18977TIP3    H178422   6.032   4.710  14.673  1.2468 -1.4035 -1.6545
18977TIP3    H278423   6.138   4.688  14.779  0.3539  0.7807 -0.2495
18978TIP3   OH278424   3.384   2.067   0.762 -0.1725  0.2341 -0.2573
18978TIP3    H178425   3.378   1.999   0.696  2.1646  0.0543 -0.3295
18978TIP3    H278426   3.339   2.031   0.838  2.3730 -2.0735  0.2155
18979TIP3   OH278427   5.353   5.596   0.705  0.0702  0.7479 -0.0957
18979TIP3    H178428   5.354   5.683   0.667  2.8216  1.3182  1.1632
18979TIP3    H278429   5.432   5.553   0.671 -0.2639 -0.5895  0.7554
18980TIP3   OH278430   2.839   2.972  17.238  0.0243 -0.4474 -0.1169
18980TIP3    H178431   2.752   2.969  17.198 -1.1343  2.1114  2.0857
18980TIP3    H278432   2.874   2.884  17.224 -2.2252 -1.0348 -2.4907
18981TIP3   OH278433   3.050   4.772  11.594 -0.0811 -0.1335 -0.0748
18981TIP3    H178434   3.002   4.838  11.545  1.0320  1.6942  1.2340
18981TIP3    H278435   3.110   4.734  11.529  1.6790  2.5539 -0.0969
18982TIP3   OH278436   6.631   0.980   2.030 -0.4041  0.6318  0.6111
18982TIP3    H178437   6.712   0.992   2.080  0.9041 -1.3515 -0.8874
18982TIP3    H278438   6.613   1.066   1.993  1.2696  1.0275  0.6444
18983TIP3   OH278439   4.916   6.481  14.725  0.0961 -0.5122  0.2546
18983TIP3    H178440   4.851   6.537  14.684 -0.5168 -1.1975  0.2766
18983TIP3    H278441   4.907   6.496  14.819  0.0275 -0.5415  0.2532
18984TIP3   OH278442   1.432   2.073  11.835  0.3407 -0.1613  0.5209
18984TIP3    H178443   1.394   2.096  11.751 -0.0310  2.1561  1.2740
18984TIP3    H278444   1.426   1.978  11.840 -1.7342 -0.1304 -1.0607
18985TIP3   OH278445   1.809   1.547  14.743  0.6330 -0.0860  0.2183
18985TIP3    H178446   1.770   1.582  14.822  0.8088  0.5621  0.0198
18985TIP3    H278447   1.898   1.583  14.741  0.0424  1.3828 -1.2003
18986TIP3   OH278448   4.443   3.055   4.949  0.5263 -0.0409  0.3687
18986TIP3    H178449   4.373   3.105   4.906 -2.0218 -1.4713  2.6803
18986TIP3    H278450   4.524   3.099   4.923 -1.3259  2.5629 -1.1928
18987TIP3   OH278451   6.002   3.084  10.951  0.5031  0.0757  0.1590
18987TIP3    H178452   5.959   3.122  10.875  0.1064 -0.5088  0.0870
18987TIP3    H278453   6.094   3.081  10.928  0.6164  1.4486  0.3587
18988TIP3   OH278454   5.119   3.131   4.640  0.0412 -0.9243 -0.5005
18988TIP3    H178455   5.041   3.186   4.636 -0.3764 -1.3365  1.4489
18988TIP3    H278456   5.161   3.143   4.555 -2.2285 -0.8313 -1.6481
18989TIP3   OH278457   2.238   1.828   5.090 -0.1832  0.3285 -0.4206
18989TIP3    H178458   2.169   1.779   5.045 -1.0204  1.1377 -0.0549
18989TIP3    H278459   2.311   1.829   5.029 -0.9547  0.5541 -1.3505
18990TIP3   OH278460   2.687   6.353  15.354  0.2870 -0.0734 -0.3147
18990TIP3    H178461   2.625   6.407  15.305 -1.0575 -0.2873  1.1032
18990TIP3    H278462   2.646   6.266  15.356  1.2290 -0.5165 -0.4389
18991TIP3   OH278463   4.035   3.798   1.260 -0.0652  0.0992 -0.2034
18991TIP3    H178464   4.086   3.743   1.319 -1.3270 -1.2733 -0.3592
18991TIP3    H278465   3.951   3.811   1.305  0.1936  1.8779 -0.1871
18992TIP3   OH278466   0.551   2.402  12.398 -0.4191 -0.0611  0.1733
18992TIP3    H178467   0.521   2.311  12.397 -0.8299  0.0622 -1.9044
18992TIP3    H278468   0.492   2.446  12.460 -1.5569 -0.8106 -0.3506
18993TIP3   OH278469   5.673   2.711  12.602 -0.2774  0.2930  0.1682
18993TIP3    H178470   5.591   2.721  12.553  0.0719  0.4998 -0.3765
18993TIP3    H278471   5.703   2.623  12.580 -2.1802 -1.1823  3.1657
18994TIP3   OH278472   2.705   1.868  15.428 -0.2627 -0.4134 -0.5413
18994TIP3    H178473   2.689   1.943  15.485 -0.0351 -1.6150  1.1327
18994TIP3    H278474   2.620   1.850  15.388 -0.3471  0.6431 -0.8655
18995TIP3   OH278475   3.331   6.060  12.241 -0.5743  0.5267  0.4262
18995TIP3    H178476   3.330   6.016  12.326 -1.8394  1.4588  0.8992
18995TIP3    H278477   3.421   6.092  12.233  0.0662 -1.1745  0.5620
18996TIP3   OH278478   2.438   3.567  16.586 -0.3941 -0.5222  0.5334
18996TIP3    H178479   2.471   3.616  16.510 -1.0529  2.0700  1.8611
18996TIP3    H278480   2.343   3.565  16.573 -0.7038  1.6723  2.2612
18997TIP3   OH278481   0.423   2.657  12.983  0.5001 -0.2193  0.0209
18997TIP3    H178482   0.348   2.710  13.010  0.8795 -0.0334  0.7456
18997TIP3    H278483   0.472   2.714  12.923 -0.5822 -0.7933 -1.4401
18998TIP3   OH278484   0.692   2.883  13.628  0.2391 -0.3285  0.0078
18998TIP3    H178485   0.695   2.797  13.586  2.2526 -1.3085  2.0823
18998TIP3    H278486   0.603   2.889  13.663 -0.8181 -0.3339 -2.6176
18999TIP3   OH278487   4.447   2.737  15.252 -0.1105  0.4565 -0.3437
18999TIP3    H178488   4.453   2.795  15.176 -1.5486  1.3512  0.1940
18999TIP3    H278489   4.357   2.705  15.250 -0.2506  0.7143  1.1240
19000TIP3   OH278490   3.231   0.228   5.576 -0.6488 -0.3478  0.2004
19000TIP3    H178491   3.313   0.268   5.604 -1.3879  1.1961  0.2051
19000TIP3    H278492   3.241   0.135   5.596  1.4380 -0.3251 -0.6217
19001TIP3   OH278493   3.088   4.069   2.690  0.6021 -0.6340  0.1651
19001TIP3    H178494   3.150   4.011   2.647 -1.1835 -2.1218 -0.4824
19001TIP3    H278495   3.003   4.028   2.676 -0.4732  1.0307  1.5587
19002TIP3   OH278496   2.941   2.530  13.513  0.0645 -0.0054 -0.3202
19002TIP3    H178497   2.993   2.569  13.443  0.9343  1.2119  0.9557
19002TIP3    H278498   2.981   2.563  13.594 -0.2293 -2.2529  0.7827
19003TIP3   OH278499   3.827   2.303  10.878  0.0638 -0.4425  0.0295
19003TIP3    H178500   3.771   2.374  10.847  1.0634 -0.2551 -1.3932
19003TIP3    H278501   3.911   2.345  10.896  0.8463 -1.3644 -1.4088
19004TIP3   OH278502   5.339   3.987   3.679  0.2388 -0.2417 -0.2104
19004TIP3    H178503   5.341   3.897   3.713  0.4331 -0.4042 -0.6488
19004TIP3    H278504   5.431   4.015   3.681  0.0628  0.2656  0.7697
19005TIP3   OH278505   1.558   6.694  12.204 -0.6772  0.1299  0.1479
19005TIP3    H178506   1.606   6.755  12.149  2.6747 -2.7636 -0.2825
19005TIP3    H278507   1.496   6.651  12.144 -0.7937  0.7991 -0.2101
19006TIP3   OH278508   0.574   3.552  11.004 -0.0075  0.0580 -0.2336
19006TIP3    H178509   0.514   3.571  10.932  0.2714 -0.4434 -0.6003
19006TIP3    H278510   0.608   3.465  10.985 -0.6532 -0.4738  0.9974
19007TIP3   OH278511   3.234   2.488  14.476  0.0467 -0.0769 -0.4163
19007TIP3    H178512   3.257   2.462  14.565 -1.9229 -2.1190 -0.4584
19007TIP3    H278513   3.315   2.526  14.440  1.0926 -0.0007  1.9270
19008TIP3   OH278514   3.908   1.217  11.445  0.0488  0.2580 -0.3918
19008TIP3    H178515   3.963   1.224  11.367  0.6721 -1.5246 -0.1394
19008TIP3    H278516   3.840   1.283  11.432 -0.1549 -0.3497 -2.7031
19009TIP3   OH278517   3.836   4.082   3.525  0.0252  0.6618  0.0778
19009TIP3    H178518   3.897   4.050   3.459 -2.3010  0.2958 -1.9769
19009TIP3    H278519   3.851   4.026   3.601  1.3772 -0.2191 -0.8278
19010TIP3   OH278520   1.957   2.070  16.794  0.1821  0.2925 -0.3506
19010TIP3    H178521   1.972   2.096  16.885  0.2908  1.8669 -0.8036
19010TIP3    H278522   1.890   2.002  16.800  1.0768 -0.4939  0.9952
19011TIP3   OH278523   6.571   4.379   5.132 -0.0120  0.7094 -0.2785
19011TIP3    H178524   6.629   4.439   5.178  3.0878 -2.0190 -0.4484
19011TIP3    H278525   6.559   4.305   5.192 -0.3829 -0.4095 -1.6879
19012TIP3   OH278526   6.749   1.615  10.955 -0.3407 -1.1635  0.0807
19012TIP3    H178527   6.788   1.659  10.880  1.2834 -1.9947  0.4210
19012TIP3    H278528   6.813   1.625  11.026 -0.9509 -2.0993  0.7857
19013TIP3   OH278529   3.169   6.150  16.409  0.5468  0.4673 -0.5274
19013TIP3    H178530   3.075   6.135  16.395  0.2750  3.3801 -2.2698
19013TIP3    H278531   3.175   6.185  16.497  0.3599 -2.3291  0.6547
19014TIP3   OH278532   1.616   0.330   3.748 -0.1206 -0.2004  0.1068
19014TIP3    H178533   1.569   0.265   3.799  0.9043 -0.0928  1.2110
19014TIP3    H278534   1.573   0.329   3.662 -1.2845 -1.0139  0.6844
19015TIP3   OH278535   1.301   0.510   5.796  0.1481 -0.1807  0.2806
19015TIP3    H178536   1.335   0.427   5.764  0.3999 -0.1601  0.4938
19015TIP3    H278537   1.232   0.485   5.858 -1.1469 -0.2131 -1.1363
19016TIP3   OH278538   1.522   5.415   3.156  0.3167  0.0181  0.8317
19016TIP3    H178539   1.514   5.494   3.103  0.2431  1.7222  3.3341
19016TIP3    H278540   1.603   5.373   3.124 -1.0060 -0.3347 -2.2889
19017TIP3   OH278541   5.466   5.620   2.511  0.2300 -0.2924 -0.0822
19017TIP3    H178542   5.394   5.680   2.534  0.0337 -0.3348 -0.5605
19017TIP3    H278543   5.540   5.650   2.562  0.1075  0.3117 -0.2559
19018TIP3   OH278544   6.115   0.490   4.651 -0.0551  0.6381 -0.3356
19018TIP3    H178545   6.088   0.491   4.559 -0.1726 -1.2574 -0.3579
19018TIP3    H278546   6.144   0.399   4.666  0.0099  0.9402  1.4787
19019TIP3   OH278547   1.276   1.627   3.485  0.0833  0.2355  0.0115
19019TIP3    H178548   1.346   1.563   3.467  0.2559  0.4767 -0.1717
19019TIP3    H278549   1.217   1.619   3.411  0.8989  1.3714 -0.7743
19020TIP3   OH278550   3.096   2.920   2.252 -0.1837 -0.5449 -0.1199
19020TIP3    H178551   3.034   2.856   2.217  1.5355 -2.5654  0.4062
19020TIP3    H278552   3.182   2.885   2.228  0.8379  0.8715  1.3797
19021TIP3   OH278553   0.833   6.030   4.606  0.2251  0.5031 -0.1898
19021TIP3    H178554   0.742   6.043   4.633 -0.2759 -2.4949 -0.2299
19021TIP3    H278555   0.836   6.066   4.517 -0.7233  1.2346  0.0574
19022TIP3   OH278556   0.011   0.836   3.152 -0.1779 -0.3638  0.0149
19022TIP3    H178557  -0.033   0.770   3.206 -0.8512 -0.4996 -0.6875
19022TIP3    H278558   0.002   0.917   3.203  1.1811 -0.9161  1.1615
19023TIP3   OH278559   0.291   1.297   0.577 -0.1924 -0.1070  0.1527
19023TIP3    H178560   0.278   1.274   0.485  0.6868  0.6709 -0.1760
19023TIP3    H278561   0.296   1.393   0.578 -0.7020 -0.0784  1.0791
19024TIP3   OH278562   2.086   5.051   1.028  0.3339  0.1522 -0.0876
19024TIP3    H178563   2.181   5.061   1.028  0.2214  1.4404 -1.0231
19024TIP3    H278564   2.056   5.116   1.092  0.0896 -0.3585  0.3165
19025TIP3   OH278565   6.347   1.290  17.162 -0.0460  0.7458 -0.1243
19025TIP3    H178566   6.309   1.263  17.245 -0.2551  0.0745 -0.4306
19025TIP3    H278567   6.409   1.220  17.141  0.3669  1.1611 -0.2889
19026TIP3   OH278568   1.238   4.498   6.707  0.0227 -0.1339  0.3137
19026TIP3    H178569   1.237   4.500   6.803  0.5934 -1.6167  0.3602
19026TIP3    H278570   1.331   4.506   6.684 -0.1922  1.1386 -0.1521
19027TIP3   OH278571   2.244   0.789   2.229 -0.3394  0.4362 -0.0016
19027TIP3    H178572   2.273   0.788   2.138 -1.4609  0.5539 -0.3607
19027TIP3    H278573   2.206   0.702   2.242  0.7601  0.0385  0.6710
19028TIP3   OH278574   4.731   1.805  13.752  0.7495 -0.2867  0.9400
19028TIP3    H178575   4.744   1.865  13.826  0.4875  1.1887 -0.1867
19028TIP3    H278576   4.820   1.784  13.722  0.8214  2.0785 -0.6400
19029TIP3   OH278577   4.524   1.554  13.042  0.2346  0.1056  0.0235
19029TIP3    H178578   4.552   1.512  13.123 -0.7672 -0.2795  0.1818
19029TIP3    H278579   4.476   1.631  13.071 -1.1886 -0.6893 -0.1468
19030TIP3   OH278580   3.932   5.915  13.305 -0.2659 -0.0788  0.0460
19030TIP3    H178581   4.019   5.876  13.308  0.0668  0.6923  0.4399
19030TIP3    H278582   3.906   5.910  13.213 -0.1203 -0.9893  0.0482
19031TIP3   OH278583   2.609   0.268   3.676 -0.1756 -0.0508 -0.0792
19031TIP3    H178584   2.677   0.329   3.648 -1.5847  1.6899  0.1519
19031TIP3    H278585   2.622   0.190   3.622  0.7564  1.0275 -1.4494
19032TIP3   OH278586   2.068   5.171   5.733  0.8042 -0.5586 -0.0402
19032TIP3    H178587   2.065   5.127   5.648 -1.2856 -0.8561  0.1512
19032TIP3    H278588   2.096   5.260   5.713 -0.6371 -0.3379 -1.2076
19033TIP3   OH278589   2.293   5.284   1.891 -0.1433  0.1247  0.4056
19033TIP3    H178590   2.223   5.339   1.925 -1.4870 -1.0222 -0.4405
19033TIP3    H278591   2.282   5.286   1.796  0.3343 -0.8976  0.3217
19034TIP3   OH278592   0.041   2.260   1.035 -0.5341 -0.4881  0.3390
19034TIP3    H178593   0.034   2.355   1.049  0.5482 -0.4308  0.5994
19034TIP3    H278594  -0.035   2.223   1.079 -1.7570  0.3770 -1.0278
19035TIP3   OH278595   1.978   3.251   0.428  0.4816  0.1487  0.1955
19035TIP3    H178596   2.055   3.195   0.418  0.2076 -0.3286  0.7362
19035TIP3    H278597   1.922   3.230   0.353  0.6329  0.1082  0.0955
19036TIP3   OH278598   2.640   4.823   0.219 -0.0090  0.2699  0.3566
19036TIP3    H178599   2.581   4.860   0.284  0.9099  0.0993  1.2827
19036TIP3    H278600   2.653   4.894   0.155 -0.8163  0.4662  0.3989
19037TIP3   OH278601   2.048   3.316  11.313  0.0512 -0.1436  0.5940
19037TIP3    H178602   1.974   3.377  11.303 -0.2187 -0.6397 -0.5360
19037TIP3    H278603   2.048   3.266  11.231  1.6687 -0.1087  0.5692
19038TIP3   OH278604   6.684   1.950  13.019  0.0912  0.7568  0.0725
19038TIP3    H178605   6.686   1.909  13.106  1.2896  0.7635  0.0547
19038TIP3    H278606   6.651   2.038  13.034  0.9258  0.9729  0.6076
19039TIP3   OH278607   3.226   5.479  16.985 -0.5743 -0.3354 -0.4335
19039TIP3    H178608   3.278   5.469  16.905  1.0796  0.2128  0.5567
19039TIP3    H278609   3.275   5.541  17.039 -2.1558  0.0515  0.6268
19040TIP3   OH278610   0.155   1.676  11.101 -0.2158  0.0370 -0.6287
19040TIP3    H178611   0.115   1.691  11.186  0.1232  0.5423 -0.5593
19040TIP3    H278612   0.246   1.651  11.121 -0.1515  0.1000 -0.8355
19041TIP3   OH278613   3.818   1.536   4.054  0.3101  0.4896  0.6039
19041TIP3    H178614   3.804   1.630   4.062  0.3143  0.5037  0.4567
19041TIP3    H278615   3.906   1.527   4.019 -0.5739  0.5273 -1.7537
19042TIP3   OH278616   5.908   3.705  12.036  0.1839  0.3830  0.3405
19042TIP3    H178617   5.979   3.768  12.049  1.8704 -1.0390 -1.7329
19042TIP3    H278618   5.835   3.757  12.004  1.0790  1.5165  0.1251
19043TIP3   OH278619   2.627   3.952   5.584  0.1367  0.0405 -0.4238
19043TIP3    H178620   2.617   3.953   5.679 -3.4849  0.5228 -0.7352
19043TIP3    H278621   2.607   3.862   5.559  0.3794  0.0831 -0.7699
19044TIP3   OH278622   4.300   2.722  14.415  0.0097  0.2817  0.5982
19044TIP3    H178623   4.239   2.679  14.355 -1.1838 -0.4170  2.2812
19044TIP3    H278624   4.354   2.777  14.358 -1.7880  0.4519 -1.0035
19045TIP3   OH278625   2.929   3.745   0.337 -0.3507 -0.4207 -0.5189
19045TIP3    H178626   2.864   3.733   0.407 -1.4626 -0.8895 -1.6209
19045TIP3    H278627   2.877   3.765   0.259  0.8926  0.2191 -1.1920
19046TIP3   OH278628   0.106   4.641  12.962  0.3329 -0.3285  0.3834
19046TIP3    H178629   0.090   4.676  13.050  1.1967  0.0343  0.4000
19046TIP3    H278630   0.048   4.693  12.906 -0.0536 -0.4084  0.7019
19047TIP3   OH278631   5.589   3.257   3.415  0.3210  0.0549  0.8824
19047TIP3    H178632   5.498   3.277   3.437  0.2180  0.5654  0.0040
19047TIP3    H278633   5.583   3.206   3.334  0.9424  2.1472 -0.5098
19048TIP3   OH278634   6.259   0.977  13.854  0.1118  0.4532 -0.0741
19048TIP3    H178635   6.280   0.884  13.852  0.0252  0.4029  1.0996
19048TIP3    H278636   6.313   1.016  13.786 -0.0878 -0.5042 -0.7823
19049TIP3   OH278637   2.738   5.660   2.189  0.0775 -0.1542 -0.0410
19049TIP3    H178638   2.652   5.648   2.229 -0.4084 -0.2906 -1.0869
19049TIP3    H278639   2.762   5.750   2.210  0.7258 -0.8265  2.2045
19050TIP3   OH278640   6.090   3.896  12.443  0.9957  0.2781  0.1507
19050TIP3    H178641   6.003   3.862  12.466  1.0246 -1.2384 -1.8659
19050TIP3    H278642   6.073   3.985  12.410 -0.1081 -0.8006 -2.3344
19051TIP3   OH278643   4.587   1.959   2.901  0.1115  0.3486 -0.2654
19051TIP3    H178644   4.548   2.046   2.909  0.9183  0.8184 -1.3666
19051TIP3    H278645   4.514   1.903   2.876 -0.0344  1.1009 -1.6135
19052TIP3   OH278646   0.393   3.190   3.330  0.1679 -0.9229  0.5926
19052TIP3    H178647   0.386   3.102   3.367 -1.3614 -1.4995 -0.9746
19052TIP3    H278648   0.313   3.234   3.357  1.7302  0.6268  2.8760
19053TIP3   OH278649   3.362   3.674  15.030 -0.6288 -0.1581  0.0635
19053TIP3    H178650   3.364   3.601  14.969 -2.0929 -0.2856  0.1435
19053TIP3    H278651   3.363   3.633  15.117  0.2199 -0.0190  0.1253
19054TIP3   OH278652   0.131   6.780  16.362  0.5435 -0.1278  0.1212
19054TIP3    H178653   0.114   6.723  16.288  0.1236  0.0179  0.1061
19054TIP3    H278654   0.118   6.725  16.439  2.3030 -0.6432  0.0678
19055TIP3   OH278655   3.477   2.267  11.863 -0.0303  0.0573 -0.1363
19055TIP3    H178656   3.504   2.176  11.868 -2.0136 -0.6858 -1.9163
19055TIP3    H278657   3.538   2.307  11.801  1.6283  0.2813  1.6061
19056TIP3   OH278658   6.332   4.932   0.880  0.3764  0.5194  0.3561
19056TIP3    H178659   6.364   4.844   0.901  0.1852 -0.0012 -1.4375
19056TIP3    H278660   6.407   4.974   0.837  0.7432  1.5321  1.9723
19057TIP3   OH278661   0.981   5.285  14.775 -0.4766  0.3313 -0.1099
19057TIP3    H178662   1.019   5.316  14.693 -1.5822  0.5263 -0.5606
19057TIP3    H278663   0.891   5.318  14.774 -0.5540  0.1927  1.1032
19058TIP3   OH278664   1.495   0.124   0.568 -0.1342  0.5349 -0.3520
19058TIP3    H178665   1.584   0.147   0.541 -0.3333  2.8754  0.8105
19058TIP3    H278666   1.442   0.136   0.489  0.3234  0.8328 -0.6170
19059TIP3   OH278667   4.648   1.203   4.706 -0.2291 -0.2954  0.1368
19059TIP3    H178668   4.602   1.286   4.693  0.5641 -0.0211 -0.9814
19059TIP3    H278669   4.719   1.204   4.642  0.4026 -1.3974  0.7928
19060TIP3   OH278670   4.346   2.914  11.479  0.0603 -0.6893 -0.0361
19060TIP3    H178671   4.385   2.828  11.491  1.3040  0.0789  1.5686
19060TIP3    H278672   4.351   2.956  11.565 -1.8361  0.4607 -0.4358
19061TIP3   OH278673   3.530   0.577   3.444 -0.4847 -0.7275 -0.4136
19061TIP3    H178674   3.517   0.546   3.355  0.7062 -0.4967 -0.6784
19061TIP3    H278675   3.441   0.588   3.479 -0.9736 -0.1741 -1.7848
19062TIP3   OH278676   1.419   3.586   4.601 -0.1774  0.2147 -0.8831
19062TIP3    H178677   1.376   3.502   4.620 -2.4669  1.4043 -0.5367
19062TIP3    H278678   1.438   3.582   4.507 -1.4401 -0.2206 -1.1410
19063TIP3   OH278679   2.187   2.012   5.272  0.0122  0.0282 -1.1102
19063TIP3    H178680   2.218   1.950   5.207 -1.9857  0.0146 -2.0764
19063TIP3    H278681   2.139   1.958   5.335  3.8068 -0.2898  1.6714
19064TIP3   OH278682   4.929   0.018  12.612  0.0009 -0.1513 -0.8286
19064TIP3    H178683   4.880   0.064  12.680 -1.0333 -1.3136 -0.7858
19064TIP3    H278684   4.864  -0.038  12.569  1.0083 -0.6998 -1.6553
19065TIP3   OH278685   6.118   1.369   1.370  0.3657 -0.8255  0.3191
19065TIP3    H178686   6.067   1.288   1.372 -0.1728 -0.4916  0.3218
19065TIP3    H278687   6.068   1.427   1.312 -1.0587  0.6735  2.9182
19066TIP3   OH278688   6.387   6.617  15.220 -0.4815  0.0795 -0.0245
19066TIP3    H178689   6.402   6.642  15.128  0.5939  0.4558  0.2443
19066TIP3    H278690   6.470   6.636  15.263 -0.2069 -2.2884  0.5499
19067TIP3   OH278691   0.865   2.322   1.754 -0.4108  0.3254 -0.1559
19067TIP3    H178692   0.860   2.235   1.794 -0.3191 -0.0502 -0.9672
19067TIP3    H278693   0.881   2.306   1.661 -0.9121  1.2018 -0.4031
19068TIP3   OH278694   0.173   6.810   3.047 -0.0301  0.0369  0.3474
19068TIP3    H178695   0.261   6.791   3.014 -0.5622  1.0105 -1.7538
19068TIP3    H278696   0.156   6.899   3.016 -1.9267 -0.3217  0.3413
19069TIP3   OH278697   3.162   0.358   5.350 -0.4955 -0.3193  0.1687
19069TIP3    H178698   3.225   0.329   5.284 -0.0647  1.2416 -0.1103
19069TIP3    H278699   3.177   0.299   5.425  1.8798  0.5669  0.4296
19070TIP3   OH278700   3.858   6.811  15.990  0.0579 -0.1698 -0.0138
19070TIP3    H178701   3.779   6.794  16.042 -1.2197  1.4421 -1.3880
19070TIP3    H278702   3.877   6.728  15.947  0.0901 -1.0279  1.6048
19071TIP3   OH278703   5.372   0.190  11.735  0.8574  0.0151  0.2294
19071TIP3    H178704   5.462   0.165  11.714 -0.1466 -1.4154 -2.7253
19071TIP3    H278705   5.329   0.197  11.650 -1.8406  0.6978  1.5850
19072TIP3   OH278706   5.252   1.636   5.342 -0.1105 -0.3016  0.6227
19072TIP3    H178707   5.188   1.676   5.283  0.6498  1.0712  0.7045
19072TIP3    H278708   5.268   1.703   5.409  2.4911 -0.0551 -0.1968
19073TIP3   OH278709   0.079   6.464  17.005  0.4097  0.2963 -0.1945
19073TIP3    H178710   0.091   6.383  17.053 -0.4426  0.7010  0.7108
19073TIP3    H278711   0.034   6.438  16.925  0.2893 -0.1352  0.0161
19074TIP3   OH278712   4.459   5.508   1.659 -0.2546  0.3761  0.0605
19074TIP3    H178713   4.457   5.413   1.646 -0.9232  0.2017  1.3745
19074TIP3    H278714   4.401   5.543   1.591 -0.7976 -0.2317  0.2088
19075TIP3   OH278715   2.143   6.518   6.277 -0.3226  0.0666  0.1421
19075TIP3    H178716   2.150   6.447   6.213 -0.8339  0.4067 -0.3005
19075TIP3    H278717   2.108   6.592   6.227  3.2985  1.6336 -0.1630
19076TIP3   OH278718   6.566   2.166   0.830 -0.0992 -0.1532 -0.9562
19076TIP3    H178719   6.615   2.110   0.890 -0.4409 -2.6481 -2.9335
19076TIP3    H278720   6.626   2.182   0.757 -0.6324  0.5223 -1.2534
19077TIP3   OH278721   5.025   4.662   3.538 -0.1362  0.7044  0.5262
19077TIP3    H178722   5.111   4.696   3.563  0.4404 -0.7919  0.6119
19077TIP3    H278723   5.036   4.633   3.447 -0.7889  1.2982  0.2513
19078TIP3   OH278724   0.129   6.467   4.718  0.5536 -0.6935  0.2266
19078TIP3    H178725   0.108   6.556   4.749  1.2153 -0.7770  0.9282
19078TIP3    H278726   0.194   6.435   4.780 -0.3208 -2.0079  0.4848
19079TIP3   OH278727   3.869   5.085  11.169  0.0506  0.4227 -0.1147
19079TIP3    H178728   3.862   5.116  11.078 -1.1443  1.0847  0.1954
19079TIP3    H278729   3.826   5.153  11.221  0.2145 -0.2365  0.8939
19080TIP3   OH278730   4.022   3.703  11.608 -0.1767 -0.5382  0.3795
19080TIP3    H178731   3.998   3.777  11.664 -0.9858 -1.5010  1.3327
19080TIP3    H278732   3.963   3.709  11.533 -0.2256 -0.2047  0.4428
19081TIP3   OH278733   5.436   1.524   2.257  0.1268 -0.3962  0.0668
19081TIP3    H178734   5.499   1.567   2.315  0.7404  0.5098 -1.2613
19081TIP3    H278735   5.350   1.547   2.293  0.4490  1.7428 -0.4835
19082TIP3   OH278736   3.564   2.382  12.324  0.1181 -0.5577  0.2546
19082TIP3    H178737   3.622   2.410  12.253  0.3431  1.0010  1.0301
19082TIP3    H278738   3.621   2.336  12.385  0.8098  1.9567  1.5729
19083TIP3   OH278739   6.335   3.248   4.663  0.1840  0.6200 -0.0228
19083TIP3    H178740   6.320   3.230   4.570 -0.3974 -0.3615  0.2550
19083TIP3    H278741   6.275   3.319   4.684 -0.1282  0.4214 -0.2463
19084TIP3   OH278742   1.846   1.374   0.022 -0.1449  0.7280  0.0343
19084TIP3    H178743   1.816   1.453   0.065  0.8355  0.9247  0.3586
19084TIP3    H278744   1.890   1.324   0.090 -0.2593  0.1687 -0.2982
19085TIP3   OH278745   0.931   1.797   5.863  0.3883  0.2395 -0.5953
19085TIP3    H178746   0.994   1.830   5.800 -1.3737  1.0284 -1.9820
19085TIP3    H278747   0.902   1.713   5.827  0.3940  0.0431 -0.1486
19086TIP3   OH278748   2.781   0.722  12.708 -0.2510 -0.6013 -0.0267
19086TIP3    H178749   2.819   0.751  12.625 -0.5231 -2.3064 -0.7468
19086TIP3    H278750   2.848   0.666  12.747 -0.4759 -0.4946  0.5285
19087TIP3   OH278751   4.833   0.012   2.294  0.0793  0.5785 -0.2187
19087TIP3    H178752   4.750   0.029   2.250  0.0180 -1.0167 -0.7330
19087TIP3    H278753   4.860   0.098   2.327 -0.4761  1.5751 -2.2887
19088TIP3   OH278754   3.968   6.183   5.580 -0.2399  0.6442 -0.3134
19088TIP3    H178755   3.935   6.093   5.573  0.9629  0.2411 -0.9240
19088TIP3    H278756   3.896   6.238   5.551 -1.2064 -0.0908  0.6690
19089TIP3   OH278757   4.601   0.745   4.302  0.0979  0.9194  0.3956
19089TIP3    H178758   4.691   0.713   4.301 -1.1958 -3.1470  2.5537
19089TIP3    H278759   4.562   0.711   4.222  0.0662  1.4007  0.2054
19090TIP3   OH278760   5.832   0.020   5.020 -0.2552 -0.0812  0.3171
19090TIP3    H178761   5.902  -0.000   5.082 -0.5726 -2.4753 -0.0670
19090TIP3    H278762   5.778   0.086   5.065  2.0066  1.5341  0.7516
19091TIP3   OH278763   1.640   5.540   1.148 -0.6644 -0.7816  0.1655
19091TIP3    H178764   1.650   5.593   1.069  2.0139  1.3233  1.8354
19091TIP3    H278765   1.548   5.552   1.173 -0.2694  2.8514  0.2566
19092TIP3   OH278766   6.194   5.736  11.500  0.2800 -0.0453  0.2021
19092TIP3    H178767   6.274   5.708  11.455  0.0346 -0.7213  0.1710
19092TIP3    H278768   6.126   5.729  11.433  0.3628  1.5118 -0.0529
19093TIP3   OH278769   1.998   4.732  16.013  0.3966 -0.3169  0.1394
19093TIP3    H178770   1.990   4.710  16.105  0.7925 -0.1053  0.2225
19093TIP3    H278771   1.981   4.826  16.009 -0.8622 -0.5413 -0.1659
19094TIP3   OH278772   1.761   4.981   5.225  0.0550  0.1338  0.6877
19094TIP3    H178773   1.855   4.967   5.218 -0.0750 -0.2215 -0.4018
19094TIP3    H278774   1.736   4.936   5.305  0.5581 -1.1418  0.1521
19095TIP3   OH278775   3.452   0.699   3.932  0.2276  0.0847 -0.7046
19095TIP3    H178776   3.473   0.627   3.990  0.2278  1.3032  0.8439
19095TIP3    H278777   3.357   0.707   3.937  0.3536  1.1115  0.2789
19096TIP3   OH278778   0.016   5.482  13.356  0.4289 -0.2557  0.5486
19096TIP3    H178779   0.085   5.521  13.302  0.8114 -0.7173  0.7017
19096TIP3    H278780   0.063   5.429  13.420 -0.0499 -0.1979  0.9509
19097TIP3   OH278781   5.161   1.794  16.316 -0.5430  0.3702  0.5464
19097TIP3    H178782   5.140   1.758  16.230 -0.0666 -1.2262  1.0753
19097TIP3    H278783   5.257   1.791  16.320 -0.5926 -0.4284  1.4702
19098TIP3   OH278784   6.394   6.296  14.629  0.1471 -0.1705  0.2462
19098TIP3    H178785   6.465   6.267  14.572 -0.1187 -1.0502  0.3637
19098TIP3    H278786   6.314   6.271  14.583 -0.0913  0.7985  0.1241
19099TIP3   OH278787   4.405   5.047  15.356  0.0232  0.1587  0.3617
19099TIP3    H178788   4.412   4.984  15.428 -1.0848  1.0363  1.2536
19099TIP3    H278789   4.358   5.000  15.287  0.4139 -0.4327  0.4974
19100TIP3   OH278790   1.592   1.476   2.498  0.4999  0.2660 -0.4472
19100TIP3    H178791   1.527   1.473   2.428 -0.2050  2.4594  0.0618
19100TIP3    H278792   1.546   1.442   2.575  0.7344 -0.5267 -0.6585
19101TIP3   OH278793   1.414   3.696  12.693  0.3506  0.4450  0.4370
19101TIP3    H178794   1.476   3.687  12.766 -0.3789  5.1809  1.8220
19101TIP3    H278795   1.330   3.667  12.730  0.6736 -0.8012  0.2328
19102TIP3   OH278796   3.471   4.045   0.048  0.0592 -0.4362  0.3346
19102TIP3    H178797   3.456   4.097  -0.031  1.7397 -1.3312 -0.6073
19102TIP3    H278798   3.552   4.080   0.085 -0.4739 -0.3220  1.4265
19103TIP3   OH278799   5.848   2.794  17.266  0.1336 -0.5242  0.2572
19103TIP3    H178800   5.814   2.787  17.355  0.7695  1.6634  0.6875
19103TIP3    H278801   5.872   2.704  17.243  0.9069 -0.9787  2.6789
19104TIP3   OH278802   2.285   2.020   6.258  0.8765 -0.7220  0.6118
19104TIP3    H178803   2.379   2.018   6.271  0.8205 -0.4262  1.0491
19104TIP3    H278804   2.249   2.044   6.343  0.5384  1.6012 -0.1462
19105TIP3   OH278805   2.584   5.459  14.248  0.2675 -0.7317  0.0131
19105TIP3    H178806   2.535   5.440  14.168  1.5140 -0.6148 -0.8059
19105TIP3    H278807   2.536   5.415  14.318 -0.7064 -1.0369 -0.8449
19106TIP3   OH278808   1.703   2.615   4.903 -0.0454  0.0020 -0.1853
19106TIP3    H178809   1.645   2.594   4.830 -0.2792  0.4093 -0.1200
19106TIP3    H278810   1.645   2.626   4.978  0.1518  0.0114 -0.0316
19107TIP3   OH278811   3.390   3.380  14.540  0.7904 -0.8766  0.2781
19107TIP3    H178812   3.437   3.445  14.592 -0.2620 -0.9312  1.3254
19107TIP3    H278813   3.342   3.328  14.605  0.1280 -1.4796 -0.6894
19108TIP3   OH278814   0.548   3.284   1.045 -0.1613 -0.3183 -0.2682
19108TIP3    H178815   0.621   3.293   0.984 -1.3161  0.3124 -1.5624
19108TIP3    H278816   0.524   3.191   1.040  0.2606 -0.4311 -0.1745
19109TIP3   OH278817   1.104   4.203  16.330  0.5232 -0.1380 -0.2788
19109TIP3    H178818   1.090   4.186  16.237  1.0894  0.2282 -0.4325
19109TIP3    H278819   1.188   4.249  16.334  0.5930 -0.3210  0.4287
19110TIP3   OH278820   1.063   4.372   1.535  0.1939 -0.2993  0.1015
19110TIP3    H178821   1.106   4.323   1.605  0.6324  0.2514  0.2262
19110TIP3    H278822   1.133   4.389   1.472  0.1042  0.3997  0.1887
19111TIP3   OH278823   4.340   0.868   3.500  0.5790  0.1351  0.0531
19111TIP3    H178824   4.349   0.963   3.496 -1.3343  0.4017  1.5587
19111TIP3    H278825   4.293   0.844   3.421  1.1371  0.4155 -0.3666
19112TIP3   OH278826   4.856   3.696  15.374  0.0216 -0.0961  0.1318
19112TIP3    H178827   4.786   3.753  15.406  0.6629  1.4708 -1.2069
19112TIP3    H278828   4.879   3.732  15.288  1.7577 -1.2315  0.0950
19113TIP3   OH278829   3.469   4.513  10.390 -0.0624 -0.0787  0.1979
19113TIP3    H178830   3.374   4.521  10.389 -0.0301  0.2454 -0.7116
19113TIP3    H278831   3.486   4.419  10.385 -0.3418 -0.2234  1.7407
19114TIP3   OH278832   2.540   6.589  15.273 -0.3085  0.0370  0.0604
19114TIP3    H178833   2.625   6.612  15.235 -0.5219  0.2000 -0.3237
19114TIP3    H278834   2.476   6.615  15.206 -0.6659 -0.0005  0.3866
19115TIP3   OH278835   6.674   2.262  16.123 -0.5683 -0.1230 -0.3023
19115TIP3    H178836   6.646   2.221  16.042  0.3787 -1.7307  0.1581
19115TIP3    H278837   6.624   2.217  16.191 -0.7517  0.6369  0.0664
19116TIP3   OH278838   3.148   0.763  15.867 -0.4960  0.0484 -0.0276
19116TIP3    H178839   3.088   0.755  15.941 -0.7570 -0.8772 -0.3408
19116TIP3    H278840   3.093   0.751  15.789 -0.1283  0.4584 -0.3540
19117TIP3   OH278841   3.720   2.840  16.772  0.0188 -0.3225 -0.1344
19117TIP3    H178842   3.781   2.781  16.728  0.2376 -0.6661  0.6208
19117TIP3    H278843   3.759   2.855  16.859 -0.5303  0.1488  0.0371
19118TIP3   OH278844   4.628   3.435   1.856  0.1785 -0.3626  0.2301
19118TIP3    H178845   4.672   3.395   1.782  0.1624 -1.4999  0.8258
19118TIP3    H278846   4.539   3.398   1.854  0.0479 -0.0752  0.5682
19119TIP3   OH278847   1.240   3.136  16.822  0.5483 -0.1983 -0.2342
19119TIP3    H178848   1.216   3.181  16.741 -0.0614 -0.4031 -0.1721
19119TIP3    H278849   1.157   3.120  16.866  0.9460  0.7045  0.8560
19120TIP3   OH278850   2.549   6.310  14.098  0.1098  0.0791  0.3802
19120TIP3    H178851   2.590   6.237  14.144  1.4990  0.4368 -0.2290
19120TIP3    H278852   2.487   6.347  14.160  1.3105  0.0108  1.6408
19121TIP3   OH278853   0.321   3.876   2.674  0.3185 -0.1225 -0.0617
19121TIP3    H178854   0.291   3.807   2.733 -2.3684  2.0167  1.1927
19121TIP3    H278855   0.278   3.856   2.590  1.4277 -1.2604 -0.3689
19122TIP3   OH278856   2.683   5.020  15.629  0.4137 -0.2146  0.0380
19122TIP3    H178857   2.741   5.049  15.559  0.0606 -0.1740 -0.2363
19122TIP3    H278858   2.726   5.051  15.709 -0.1188  1.3393 -0.2691
19123TIP3   OH278859   0.346   1.563   6.139 -0.3084 -0.2572 -0.5609
19123TIP3    H178860   0.257   1.527   6.140 -0.6252  0.5077 -1.0003
19123TIP3    H278861   0.344   1.633   6.205 -0.2452  0.2553 -1.0993
19124TIP3   OH278862   0.057   3.260  14.958 -0.0163  0.5265 -0.2978
19124TIP3    H178863   0.075   3.272  14.865  0.7672  0.6394 -0.1359
19124TIP3    H278864   0.143   3.261  14.999 -0.3005 -0.3066  0.3382
19125TIP3   OH278865   0.539   5.156   2.916  0.0969 -0.4238 -0.7163
19125TIP3    H178866   0.496   5.217   2.975 -0.3433  0.1403 -1.6147
19125TIP3    H278867   0.610   5.119   2.968 -0.8098 -0.5743  0.4383
19126TIP3   OH278868   5.389   4.794  15.743  0.2264 -0.2696 -0.2663
19126TIP3    H178869   5.368   4.713  15.789 -1.6378  0.2025 -0.2339
19126TIP3    H278870   5.331   4.793  15.666  1.2218  0.3475 -1.0387
19127TIP3   OH278871   3.871   1.861  16.879  0.1417  0.1861  0.2948
19127TIP3    H178872   3.929   1.896  16.947  1.0549 -0.2657 -0.2492
19127TIP3    H278873   3.811   1.803  16.927  0.5048  0.2104  0.7796
19128TIP3   OH278874   6.138   4.582  11.403 -0.6658  0.1037  0.0302
19128TIP3    H178875   6.099   4.495  11.408 -0.9975  0.2560  0.1232
19128TIP3    H278876   6.187   4.591  11.484  2.1050 -1.2867 -1.4161
19129TIP3   OH278877   6.642   2.395  15.832  0.1004 -0.2082 -0.4153
19129TIP3    H178878   6.636   2.451  15.754 -3.6154 -2.4989 -1.9439
19129TIP3    H278879   6.592   2.442  15.899  1.5695  0.8005 -0.0045
19130TIP3   OH278880   1.222   4.916  12.206 -0.3407  0.1639 -0.4248
19130TIP3    H178881   1.281   4.870  12.264 -0.1282 -0.7773 -1.3742
19130TIP3    H278882   1.254   4.897  12.118 -2.0221 -0.3561 -0.9593
19131TIP3   OH278883   5.506   6.044   4.194 -0.2976  0.1856  0.6810
19131TIP3    H178884   5.458   6.123   4.169  0.2553 -0.5774 -2.9528
19131TIP3    H278885   5.586   6.046   4.143 -0.0081 -2.4414  0.9511
19132TIP3   OH278886   0.858   6.373   0.792 -0.1380  0.0718  0.4427
19132TIP3    H178887   0.915   6.316   0.844 -0.7547 -1.0219 -0.0718
19132TIP3    H278888   0.792   6.404   0.855  0.4178  0.5463  0.8073
19133TIP3   OH278889   6.766   6.225  10.539  0.1182  0.0893  0.6311
19133TIP3    H178890   6.772   6.318  10.519 -0.1229  0.1068  0.6339
19133TIP3    H278891   6.856   6.198  10.555  0.4112 -0.0927 -1.2055
19134TIP3   OH278892   6.536   4.708  15.645 -0.3125 -0.0483 -0.2653
19134TIP3    H178893   6.613   4.763  15.665 -0.5280  0.1388  0.0716
19134TIP3    H278894   6.466   4.746  15.698 -0.0586 -1.6971  1.2953
19135TIP3   OH278895   6.601   6.519  13.349 -0.9089  0.3505  0.5556
19135TIP3    H178896   6.680   6.531  13.402  0.3687  0.0331 -1.2295
19135TIP3    H278897   6.574   6.429  13.366  0.6110 -0.3777 -0.7811
19136TIP3   OH278898   4.049   1.629   4.671 -0.0877 -0.3770 -0.4007
19136TIP3    H178899   4.118   1.666   4.725  0.0046 -0.9877 -0.0940
19136TIP3    H278900   4.006   1.705   4.631  1.2248 -0.0306 -1.1652
19137TIP3   OH278901   1.862   4.797   6.149  0.6277  0.9230  0.4666
19137TIP3    H178902   1.932   4.848   6.108  0.2999  1.3480  0.4371
19137TIP3    H278903   1.907   4.722   6.189  0.9997  0.7388 -0.2886
19138TIP3   OH278904   5.197   1.173   5.875 -0.5346  0.0502  0.6571
19138TIP3    H178905   5.155   1.185   5.960 -1.2258  0.3478  0.2819
19138TIP3    H278906   5.277   1.124   5.894 -0.3678  0.6677  1.5462
19139TIP3   OH278907   1.067   2.862  15.840  0.1991  0.4476 -0.1864
19139TIP3    H178908   1.082   2.908  15.757  0.6114 -1.5075 -1.2269
19139TIP3    H278909   0.972   2.856  15.847  0.1796 -0.9296 -1.4152
19140TIP3   OH278910   1.501   5.117   4.155  0.0579  0.5123 -0.2734
19140TIP3    H178911   1.446   5.047   4.118  0.0060 -0.2819  1.2392
19140TIP3    H278912   1.578   5.071   4.189  0.7229  1.3843 -0.5892
19141TIP3   OH278913   1.646   6.406  16.465  0.4043 -0.2281  0.4625
19141TIP3    H178914   1.635   6.410  16.560  3.3926 -0.3231  0.8798
19141TIP3    H278915   1.735   6.438  16.450 -0.1644  0.1805 -2.3534
19142TIP3   OH278916   4.007   3.413   6.730 -0.3121 -0.0152 -0.6985
19142TIP3    H178917   4.001   3.383   6.821  0.5713 -0.1740 -0.6848
19142TIP3    H278918   4.100   3.433   6.718 -0.4723  0.2675 -1.4862
19143TIP3   OH278919   4.061   5.068  17.253  0.0425 -0.3013  0.0059
19143TIP3    H178920   4.043   5.014  17.329 -2.4569  0.1990 -0.1848
19143TIP3    H278921   4.127   5.131  17.283 -0.5979 -0.3820  1.6316
19144TIP3   OH278922   0.850   5.976  15.082  0.7560  0.4082  0.7949
19144TIP3    H178923   0.819   6.053  15.129  0.0780 -0.5776  1.9752
19144TIP3    H278924   0.809   5.983  14.995 -1.3234  0.0997  1.7162
19145TIP3   OH278925   6.735   5.301  17.230 -0.3071 -0.9566  0.1967
19145TIP3    H178926   6.647   5.317  17.266 -0.0728 -1.0512  0.8159
19145TIP3    H278927   6.776   5.242  17.294  0.6958  0.1763  0.6157
19146TIP3   OH278928   3.335   0.609  11.144 -0.3845 -0.4870  0.0466
19146TIP3    H178929   3.252   0.655  11.133 -0.4104 -0.5460 -0.0031
19146TIP3    H278930   3.401   0.676  11.128 -0.3867 -1.2076 -3.3584
19147TIP3   OH278931   1.686   0.975   4.460  0.2167 -0.3583  0.4589
19147TIP3    H178932   1.734   1.009   4.385 -1.9823  2.9264  0.4431
19147TIP3    H278933   1.742   0.996   4.535  1.3867 -1.6480 -0.0316
19148TIP3   OH278934   1.430   6.146   1.127  0.1847  0.0101  0.1197
19148TIP3    H178935   1.451   6.056   1.101  0.0711 -0.7094  2.4613
19148TIP3    H278936   1.490   6.200   1.076  2.1981 -1.5626  0.7819
19149TIP3   OH278937   2.078   1.101  15.055  0.2777  0.8620 -0.3499
19149TIP3    H178938   2.059   1.009  15.072 -1.5035  1.3387  0.3826
19149TIP3    H278939   2.101   1.136  15.141 -0.6186  1.4379 -0.3360
19150TIP3   OH278940   4.873   4.680  13.083 -0.2127  0.4343  0.2046
19150TIP3    H178941   4.826   4.607  13.043 -0.2160  1.4708 -1.7336
19150TIP3    H278942   4.818   4.707  13.157 -1.7253  0.4226 -0.9091
19151TIP3   OH278943   0.125   4.076   0.531 -0.4144 -0.2619  0.1539
19151TIP3    H178944   0.147   3.983   0.519  0.5944 -0.0490  0.3136
19151TIP3    H278945   0.047   4.075   0.586 -2.4753 -1.1294 -2.6260
19152TIP3   OH278946   5.267   0.600  15.874  0.0319  0.0229  0.6922
19152TIP3    H178947   5.221   0.651  15.941 -0.4922  0.5619 -0.0713
19152TIP3    H278948   5.298   0.666  15.812 -1.7645 -0.6895 -1.0042
19153TIP3   OH278949   4.530   1.074   0.551  0.2292  0.2779  0.0521
19153TIP3    H178950   4.489   1.026   0.479  0.3267  0.3553 -0.0542
19153TIP3    H278951   4.471   1.061   0.625 -0.5883  1.3572 -0.3945
19154TIP3   OH278952   5.144   2.306   4.238  0.4740 -0.6222  0.5623
19154TIP3    H178953   5.115   2.388   4.197  0.5474  0.1763  2.1041
19154TIP3    H278954   5.207   2.270   4.175  0.9684  0.8444  0.1847
19155TIP3   OH278955   6.276   4.359   2.484  0.2054  0.1147  0.2711
19155TIP3    H178956   6.311   4.301   2.417  1.5607  1.1255  0.0627
19155TIP3    H278957   6.222   4.303   2.539 -0.6556 -0.7921 -1.4725
19156TIP3   OH278958   1.631   1.228  11.312 -0.4614  0.1126  0.3215
19156TIP3    H178959   1.550   1.182  11.290 -0.6448  0.9284 -0.7872
19156TIP3    H278960   1.607   1.321  11.308  0.3343  0.3422  0.7738
19157TIP3   OH278961   0.681   2.684   5.929  0.1261 -0.4197  0.6833
19157TIP3    H178962   0.731   2.734   5.864  0.6140 -1.7411  0.0250
19157TIP3    H278963   0.725   2.702   6.012 -0.0768  0.7316  0.5431
19158TIP3   OH278964   0.030   5.685  14.216  0.0986 -1.1680  0.0242
19158TIP3    H178965   0.014   5.636  14.135 -1.5192  0.0017 -0.3933
19158TIP3    H278966   0.074   5.765  14.187  0.3504 -1.1602  0.4218
19159TIP3   OH278967   2.191   5.035   2.754 -0.1490 -0.2696  0.4911
19159TIP3    H178968   2.163   4.954   2.797  1.3385 -0.5090  1.0330
19159TIP3    H278969   2.275   5.014   2.714  1.0151  1.3975  1.9534
19160TIP3   OH278970   0.922   4.489   6.118  0.3525 -0.4402 -0.5429
19160TIP3    H178971   0.936   4.454   6.205  1.7685 -2.1999 -1.4491
19160TIP3    H278972   0.873   4.421   6.072 -1.3201  0.9205 -0.8107
19161TIP3   OH278973   2.007   6.670   0.523  0.1832 -0.3118 -0.4991
19161TIP3    H178974   1.980   6.717   0.444  1.7228  0.9552 -0.3053
19161TIP3    H278975   2.071   6.606   0.492  0.4242 -0.1450 -0.3470
19162TIP3   OH278976   0.222   1.439  14.111  0.4949 -0.2710  0.1667
19162TIP3    H178977   0.287   1.507  14.096 -0.7935  0.4419 -2.4537
19162TIP3    H278978   0.258   1.361  14.069  0.3550 -0.2728  0.0486
19163TIP3   OH278979   6.506   2.710   4.444 -0.0954 -0.6948 -0.7740
19163TIP3    H178980   6.434   2.678   4.499  0.2953 -0.4637 -0.1223
19163TIP3    H278981   6.526   2.636   4.386 -0.2853 -1.0592 -0.3803
19164TIP3   OH278982   4.057   5.111  12.377 -0.2317 -0.2055  0.2293
19164TIP3    H178983   4.098   5.187  12.337 -2.2647  0.3500 -0.9016
19164TIP3    H278984   3.968   5.109  12.340 -0.8298 -2.0463  1.6438
19165TIP3   OH278985   6.769   3.763   5.371 -0.3363  0.2193 -0.5554
19165TIP3    H178986   6.683   3.800   5.350  0.1558  1.9557  0.3838
19165TIP3    H278987   6.831   3.835   5.357  1.0492 -1.1486 -1.7049
19166TIP3   OH278988   4.770   1.554  12.394  0.0968 -0.6208 -0.0239
19166TIP3    H178989   4.714   1.556  12.472 -0.2635 -1.1975 -0.2646
19166TIP3    H278990   4.804   1.643  12.386 -2.2710  0.2546 -0.9207
19167TIP3   OH278991   4.970   1.371  14.692  0.5498 -0.0700 -0.0533
19167TIP3    H178992   4.904   1.364  14.623  1.7696 -0.2822 -1.2196
19167TIP3    H278993   5.053   1.365  14.646  1.3924 -2.0094  1.6333
19168TIP3   OH278994   5.037   3.066  16.206 -0.4777 -1.0575  0.0878
19168TIP3    H178995   4.984   3.000  16.163 -0.3153 -1.1254 -0.0087
19168TIP3    H278996   4.992   3.149  16.188  0.8139 -0.7947 -2.1642
19169TIP3   OH278997   0.881   3.657  16.124  0.7192  0.1403  0.4256
19169TIP3    H178998   0.917   3.745  16.115  1.2677 -0.1516 -0.2757
19169TIP3    H278999   0.789   3.667  16.099  0.6655  0.6071  0.8118
19170TIP3   OH279000   4.440   5.745  12.921  0.0557  0.4437 -0.1516
19170TIP3    H179001   4.437   5.649  12.921  0.9828  0.4004  0.5674
19170TIP3    H279002   4.372   5.772  12.982  1.0265  0.1715  1.0745
19171TIP3   OH279003   3.337   0.621  14.081 -0.0574  0.0876  0.3383
19171TIP3    H179004   3.264   0.652  14.134 -1.3768 -0.0004 -1.3769
19171TIP3    H279005   3.330   0.526  14.082  0.8408  0.0137  1.2402
19172TIP3   OH279006   1.692   1.328   2.238 -0.3147 -0.1910  0.1213
19172TIP3    H179007   1.713   1.283   2.320 -1.2856  1.4956  1.3298
19172TIP3    H279008   1.754   1.401   2.234 -0.8145  0.2158 -0.2252
19173TIP3   OH279009   1.845   2.088  13.568  0.6798  0.2357  0.1261
19173TIP3    H179010   1.805   2.161  13.522  2.2511  0.3488 -1.0701
19173TIP3    H279011   1.833   2.109  13.661  0.4663  1.6417 -0.2080
19174TIP3   OH279012   1.455   4.506  12.940  0.1139 -0.1974  0.1478
19174TIP3    H179013   1.382   4.562  12.914  0.5889 -0.3184 -1.4625
19174TIP3    H279014   1.413   4.429  12.978 -0.5596  0.5313  0.9046
19175TIP3   OH279015   1.829   2.320  11.074  0.1496 -0.2151 -0.0990
19175TIP3    H179016   1.849   2.366  10.993 -0.3318  0.9434  0.4194
19175TIP3    H279017   1.868   2.234  11.063  1.3714  0.4257 -0.9628
19176TIP3   OH279018   4.949   1.265  13.840 -0.1991  0.6079 -0.5607
19176TIP3    H179019   4.921   1.209  13.913 -2.8376  0.8413 -1.3440
19176TIP3    H279020   4.886   1.336  13.839  2.3045  2.9009 -0.4673
19177TIP3   OH279021   6.258   3.760  12.742 -0.0408 -0.1158 -0.8958
19177TIP3    H179022   6.286   3.818  12.671  0.0752  0.9795  0.0362
19177TIP3    H279023   6.226   3.819  12.810 -0.0331 -1.1546  0.0244
19178TIP3   OH279024   5.989   5.943  11.326 -0.0158  0.2821  0.5621
19178TIP3    H179025   5.972   6.024  11.373  0.6055  0.9287 -0.3132
19178TIP3    H279026   5.917   5.934  11.264  0.6261  0.8621 -0.2676
19179TIP3   OH279027   0.733   1.316   5.434 -0.4431  0.0444 -0.1550
19179TIP3    H179028   0.644   1.299   5.403 -0.7661  2.3314 -0.5521
19179TIP3    H279029   0.721   1.379   5.505  0.7872 -0.4636  0.5062
19180TIP3   OH279030   6.617   5.097  14.828  0.3127 -0.3170  0.5710
19180TIP3    H179031   6.611   5.009  14.864 -2.8800 -0.8053 -0.9346
19180TIP3    H279032   6.588   5.088  14.737 -1.7959  2.5302  0.8687
19181TIP3   OH279033   6.049   4.700   0.338  0.5400 -0.2693 -0.1070
19181TIP3    H179034   5.978   4.645   0.303  1.0484 -0.9005 -0.1544
19181TIP3    H279035   6.026   4.789   0.311 -0.1684 -0.4876 -0.2317
19182TIP3   OH279036   4.307   2.000   4.936  0.4151  0.2895  1.1305
19182TIP3    H179037   4.297   2.084   4.893  2.1870  1.1249  2.2988
19182TIP3    H279038   4.344   1.943   4.869  1.3109  1.0502  0.9702
19183TIP3   OH279039   1.063   0.728  14.841 -0.3898  0.1172 -0.1046
19183TIP3    H179040   1.025   0.811  14.870  0.0353  0.3082 -0.0830
19183TIP3    H279041   1.043   0.724  14.748 -1.6356 -0.4313  0.1820
19184TIP3   OH279042   1.524   0.923   3.601 -0.2024 -0.4222 -0.1468
19184TIP3    H179043   1.562   0.978   3.532  0.5605 -1.1395 -0.3088
19184TIP3    H279044   1.457   0.871   3.555 -0.5804  0.0086 -0.0896
19185TIP3   OH279045   6.470   5.869  14.201 -0.1882 -0.3446 -0.3378
19185TIP3    H179046   6.517   5.814  14.139 -0.8420  1.1036 -2.1693
19185TIP3    H279047   6.485   5.959  14.170 -1.7588  0.3144  0.7270
19186TIP3   OH279048   4.421   2.882  13.063 -0.2873 -0.6860  0.3931
19186TIP3    H179049   4.373   2.814  13.016  0.0822 -0.3262 -0.5061
19186TIP3    H279050   4.355   2.928  13.114 -0.6368 -1.2886  0.4959
19187TIP3   OH279051   1.784   0.840  12.855 -0.1399  0.3269 -0.0280
19187TIP3    H179052   1.836   0.917  12.877 -0.5522  0.4209  0.6237
19187TIP3    H279053   1.848   0.770  12.842  0.2729  0.8924 -1.1118
19188TIP3   OH279054   2.205   3.954   2.407 -0.1666 -0.3614  0.2584
19188TIP3    H179055   2.230   3.997   2.325 -1.7801  0.6544  0.2939
19188TIP3    H279056   2.110   3.957   2.408 -0.2141 -1.9823  1.3234
19189TIP3   OH279057   2.609   0.845   1.898  0.0064 -0.2593  0.0327
19189TIP3    H179058   2.566   0.839   1.984 -1.4793  0.8488 -0.5992
19189TIP3    H279059   2.546   0.806   1.837  1.4781 -1.9579 -0.4335
19190TIP3   OH279060   0.465   5.636   0.901 -0.1691  0.2023  0.1497
19190TIP3    H179061   0.496   5.603   0.816  0.2819  0.9938 -0.0026
19190TIP3    H279062   0.545   5.664   0.946 -0.3809 -0.4707  0.9523
19191TIP3   OH279063   5.445   4.438  14.512 -0.0546  0.2005  0.3090
19191TIP3    H179064   5.405   4.512  14.465 -0.4358  0.6561  1.3400
19191TIP3    H279065   5.530   4.426  14.469 -0.1478  0.9983 -0.1105
19192TIP3   OH279066   1.124   0.582  15.410 -0.0281 -0.6383 -0.2010
19192TIP3    H179067   1.070   0.565  15.487  1.8132 -1.1391  1.0089
19192TIP3    H279068   1.145   0.494  15.376 -1.8688 -0.4131 -2.0499
19193TIP3   OH279069   6.282   0.856   3.442  1.1171 -0.2523  0.0071
19193TIP3    H179070   6.295   0.762   3.434 -1.1630 -0.6804  1.0936
19193TIP3    H279071   6.204   0.875   3.390  1.4334  1.0142 -0.0313
19194TIP3   OH279072   1.548   3.019   3.229  0.2061 -0.7424 -0.1655
19194TIP3    H179073   1.569   3.067   3.148 -1.6241 -0.6059 -0.5757
19194TIP3    H279074   1.471   2.967   3.206 -0.3095 -0.7226  1.4920
19195TIP3   OH279075   4.015   6.246  16.305 -0.0608 -0.1974  0.0113
19195TIP3    H179076   3.978   6.158  16.309  1.3488 -0.9292 -2.1315
19195TIP3    H279077   3.975   6.293  16.379 -1.5047 -2.3536  0.6317
19196TIP3   OH279078   1.172   0.889   5.355  0.3144  0.1366  0.2601
19196TIP3    H179079   1.178   0.856   5.444 -0.4788 -0.7206  0.0075
19196TIP3    H279080   1.227   0.967   5.354  1.8480 -0.9282  0.9762
19197TIP3   OH279081   1.907   4.055   4.955 -0.0706  0.2048  0.0482
19197TIP3    H179082   1.835   4.061   5.019 -1.4058  2.1703 -1.5819
19197TIP3    H279083   1.971   4.120   4.985  0.1481 -0.1726  0.4075
19198TIP3   OH279084   5.292   3.370  10.617  0.6124  0.0339 -0.0989
19198TIP3    H179085   5.305   3.461  10.591 -1.3699  0.2533 -0.4274
19198TIP3    H279086   5.268   3.325  10.536  0.2516 -0.5009  0.3008
19199TIP3   OH279087   4.375   3.491   4.760  0.0314  0.1414 -0.3944
19199TIP3    H179088   4.379   3.576   4.717 -0.6077  1.1636  1.5198
19199TIP3    H279089   4.285   3.462   4.748  0.1210 -0.0369 -0.6291
19200TIP3   OH279090   5.489   4.225  13.365 -1.1070 -0.3553 -0.5148
19200TIP3    H179091   5.558   4.167  13.334  0.0136  0.5551  0.2166
19200TIP3    H279092   5.439   4.247  13.287 -0.8142 -1.3395 -0.9918
19201TIP3   OH279093   4.460   4.028  12.764 -0.3634  0.4381  0.1137
19201TIP3    H179094   4.418   3.988  12.839 -1.6011 -0.3591 -0.9745
19201TIP3    H279095   4.463   4.121  12.785  0.8188  0.0249  1.8474
19202TIP3   OH279096   1.903   0.554  12.279  0.1669  0.1006 -0.1406
19202TIP3    H179097   1.969   0.507  12.229 -0.2174 -0.7003  0.0957
19202TIP3    H279098   1.950   0.626  12.320  1.2070 -1.3136  1.2102
19203TIP3   OH279099   2.070   4.109  16.408 -0.3438  0.0150  0.0415
19203TIP3    H179100   2.049   4.149  16.323  2.1570 -1.9919 -1.5875
19203TIP3    H279101   1.993   4.056  16.429 -1.7958  2.0531  0.0354
19204TIP3   OH279102   3.022   1.334  16.093 -0.3813 -0.2886  0.1058
19204TIP3    H179103   3.071   1.416  16.095  0.8680 -1.0305  0.7341
19204TIP3    H279104   2.987   1.328  16.004  1.8233 -0.4075 -0.7769
19205TIP3   OH279105   3.535   0.543   5.672  0.0488 -0.2204 -0.3816
19205TIP3    H179106   3.596   0.554   5.745 -0.1156 -0.4767 -0.2011
19205TIP3    H279107   3.460   0.597   5.696 -0.5379 -1.2834  0.2535
19206TIP3   OH279108   0.858   1.281  12.385 -0.3808  0.3728  0.1135
19206TIP3    H179109   0.845   1.375  12.375 -0.3203  0.4678  0.8709
19206TIP3    H279110   0.866   1.268  12.479  0.9076 -0.2248 -0.0668
19207TIP3   OH279111   0.995   1.687  11.700 -0.2680  0.1591 -0.0230
19207TIP3    H179112   0.960   1.769  11.664 -0.4381 -1.5073 -3.9440
19207TIP3    H279113   1.077   1.674  11.652 -0.7459 -2.4618 -0.1811
19208TIP3   OH279114   6.302   4.815  15.738 -0.2468  0.3658 -0.0602
19208TIP3    H179115   6.272   4.853  15.821  0.1499 -0.2623  0.3794
19208TIP3    H279116   6.222   4.787  15.694 -0.6761  2.8871 -1.0041
19209TIP3   OH279117   2.678   5.808   5.966 -0.4776 -0.0135  0.0253
19209TIP3    H179118   2.697   5.895   5.930  0.3302 -0.3093 -0.2712
19209TIP3    H279119   2.648   5.825   6.055  1.4526  0.4622  0.6041
19210TIP3   OH279120   1.383   0.843  10.711  0.4638 -0.2453 -0.4686
19210TIP3    H179121   1.289   0.827  10.697 -0.4711  1.1128  3.7293
19210TIP3    H279122   1.421   0.756  10.718 -0.9112 -0.7915  0.3625
19211TIP3   OH279123   6.058   1.536   4.026  0.2561 -0.0316 -0.1414
19211TIP3    H179124   6.058   1.522   3.931  1.0045 -1.2080  0.0183
19211TIP3    H279125   5.966   1.551   4.048 -0.1609 -1.5353 -0.8014
19212TIP3   OH279126   1.968   0.496  11.865  0.0935  0.4754  0.5734
19212TIP3    H179127   1.971   0.577  11.917  0.9009 -0.5579  2.1664
19212TIP3    H279128   1.891   0.450  11.897  0.3677  0.0227  0.5828
19213TIP3   OH279129   6.271   3.005  12.752 -0.2664 -0.1128 -0.0208
19213TIP3    H179130   6.221   2.938  12.706 -0.0859 -0.3093  0.0696
19213TIP3    H279131   6.217   3.084  12.746  0.8354  0.4950 -2.6836
19214TIP3   OH279132   3.247   0.578   2.420 -0.2408  0.3131  0.2519
19214TIP3    H179133   3.332   0.583   2.465 -0.3495  0.0272  0.4920
19214TIP3    H279134   3.232   0.484   2.408 -0.4681  0.3695  0.1055
19215TIP3   OH279135   2.303   4.036   6.061  0.1260 -0.2100  0.5935
19215TIP3    H179136   2.307   4.047   5.966 -0.7419 -1.8474  0.3520
19215TIP3    H279137   2.215   4.065   6.084  0.7231  1.2446  1.0508
19216TIP3   OH279138   4.032   3.184   5.101 -0.2520  0.5468 -0.0717
19216TIP3    H179139   4.009   3.093   5.119 -0.7703  0.6637 -0.1430
19216TIP3    H279140   4.108   3.201   5.156 -1.3358  0.6675  1.4066
19217TIP3   OH279141   0.605   1.931  12.998  0.6433 -0.1517  0.2337
19217TIP3    H179142   0.618   1.851  13.049  1.3140 -0.2966 -0.1609
19217TIP3    H279143   0.592   1.999  13.064  0.5586 -0.5039  0.5798
19218TIP3   OH279144   6.797   3.327   4.827  0.1409 -0.3949  0.0026
19218TIP3    H179145   6.753   3.412   4.829  1.3027  0.2055  0.5028
19218TIP3    H279146   6.751   3.275   4.892 -0.3104 -0.0070 -0.0070
19219TIP3   OH279147   0.845   4.719   3.231  0.4645  0.5371 -0.3414
19219TIP3    H179148   0.856   4.716   3.136  0.3759 -0.9177 -0.3060
19219TIP3    H279149   0.833   4.628   3.257  1.3898  0.8379  1.1708
19220TIP3   OH279150   3.909   5.315  14.931 -0.5133  0.5219 -0.5584
19220TIP3    H179151   3.817   5.340  14.938 -0.7692 -0.2303 -1.2538
19220TIP3    H279152   3.929   5.324  14.838  0.6673  2.6041 -0.1403
19221TIP3   OH279153   1.427   5.269  12.823  0.3934 -0.0284 -0.1818
19221TIP3    H179154   1.382   5.269  12.739 -0.9674  0.0622  0.5366
19221TIP3    H279155   1.520   5.276  12.801  0.0479 -0.1025 -1.6716
19222TIP3   OH279156   1.297   4.747   2.309 -0.2829  0.2192 -0.4721
19222TIP3    H179157   1.351   4.743   2.387  1.3487 -0.3385 -1.6069
19222TIP3    H279158   1.310   4.663   2.265 -2.3147 -0.0566 -0.6298
19223TIP3   OH279159   3.847   0.045  16.322  0.5222  0.1434  0.5563
19223TIP3    H179160   3.804   0.023  16.405  0.1988  0.9040  0.5967
19223TIP3    H279161   3.904  -0.029  16.304  0.9113  0.1623  1.6786
19224TIP3   OH279162   0.179   4.491   4.975  0.1064  0.6029 -0.3452
19224TIP3    H179163   0.217   4.570   5.015 -0.6828  1.1744 -0.7030
19224TIP3    H279164   0.117   4.525   4.910 -0.6316 -0.3183 -0.1283
19225TIP3   OH279165   2.415   4.465  15.170 -0.1985  0.2408 -0.3796
19225TIP3    H179166   2.444   4.553  15.191  0.6507  0.0519 -0.7681
19225TIP3    H279167   2.343   4.477  15.108 -2.6944  0.8078  2.5192
19226TIP3   OH279168   2.075   5.616   4.237 -0.7092  0.1833  0.0404
19226TIP3    H179169   2.090   5.596   4.330  0.8362  1.7677  0.1667
19226TIP3    H279170   2.031   5.538   4.203 -1.4045 -0.3813  2.1242
19227TIP3   OH279171   2.108   0.942   4.563  0.2429 -0.0054  0.1854
19227TIP3    H179172   2.034   0.915   4.617  0.1930 -1.6855 -0.6919
19227TIP3    H279173   2.070   0.958   4.477  0.5898  1.1009  0.2227
19228TIP3   OH279174   4.666   6.225  11.111 -0.6127 -0.3856 -0.2222
19228TIP3    H179175   4.749   6.183  11.134  0.1184  0.2806 -1.6368
19228TIP3    H279176   4.689   6.293  11.048 -2.0777  0.6672  0.3388
19229TIP3   OH279177   0.201   1.318  16.299  0.2261  0.5452 -0.1323
19229TIP3    H179178   0.252   1.344  16.222  1.4455  1.7419  1.0613
19229TIP3    H279179   0.126   1.377  16.299 -0.4522 -0.2918 -1.0953
19230TIP3   OH279180   1.939   4.535  12.083  0.2372 -0.3302 -0.7494
19230TIP3    H179181   1.852   4.495  12.074  0.5178 -1.1383  0.1184
19230TIP3    H279182   1.923   4.629  12.078 -1.1780 -0.2747  3.0277
19231TIP3   OH279183   2.963   4.152   5.167  1.3063  0.4755 -0.0673
19231TIP3    H179184   2.889   4.140   5.228 -0.5083 -1.6208 -2.5710
19231TIP3    H279185   3.034   4.101   5.206  0.2701 -0.5493  0.5354
19232TIP3   OH279186   4.675   3.625   0.067 -0.1663  0.6332  1.0074
19232TIP3    H179187   4.619   3.687   0.113  0.0914  0.6973  1.2395
19232TIP3    H279188   4.614   3.569   0.018 -0.3919  1.0981  0.7589
19233TIP3   OH279189   2.036   4.220   4.666  0.0265  0.0241 -0.2229
19233TIP3    H179190   2.069   4.141   4.623 -1.1404  0.1685 -1.3991
19233TIP3    H279191   1.942   4.207   4.670 -0.3934  2.2835 -2.3014
19234TIP3   OH279192   6.791   1.994   2.098 -0.3236  0.2370 -0.1465
19234TIP3    H179193   6.768   2.082   2.067  0.3978  0.6120  0.3704
19234TIP3    H279194   6.741   1.935   2.042  0.5572  0.9210 -1.6955
19235TIP3   OH279195   5.730   3.828   6.158  0.4334  0.1369 -0.0651
19235TIP3    H179196   5.711   3.913   6.196 -0.4476 -0.1313  0.1011
19235TIP3    H279197   5.826   3.822   6.158  0.5386  1.5417 -0.9925
19236TIP3   OH279198   0.343   1.459  12.651 -0.3309  0.3703 -0.4942
19236TIP3    H179199   0.375   1.476  12.740  0.2379  0.5067 -0.7229
19236TIP3    H279200   0.372   1.370  12.632 -1.0172  0.1022 -0.2973
19237TIP3   OH279201   4.497   3.751   0.866  0.1332  0.2271 -0.2689
19237TIP3    H179202   4.438   3.749   0.941  0.9298 -1.0994  0.3313
19237TIP3    H279203   4.481   3.669   0.820  1.6552 -0.2322  0.0075
19238TIP3   OH279204   5.001   0.343  12.233 -0.3755 -0.0478  0.0484
19238TIP3    H179205   4.966   0.282  12.299 -2.1084  2.6981  1.7494
19238TIP3    H279206   5.096   0.326  12.233 -0.4544 -0.7342  2.6030
19239TIP3   OH279207   4.292   6.614  14.773  0.0603 -0.0168  0.1834
19239TIP3    H179208   4.381   6.634  14.801  0.1851  0.9266 -0.8434
19239TIP3    H279209   4.247   6.699  14.774 -0.8239 -0.4750  0.6607
19240TIP3   OH279210   1.868   1.025   5.957 -0.7501  0.2994  0.3153
19240TIP3    H179211   1.781   1.005   5.989 -1.5133  1.5107 -0.9502
19240TIP3    H279212   1.872   1.121   5.957  0.7680  0.2547  0.8527
19241TIP3   OH279213   4.873   4.803  17.224 -0.0230  0.4236  0.0892
19241TIP3    H179214   4.959   4.835  17.197  1.2944 -2.5731  0.5670
19241TIP3    H279215   4.835   4.766  17.145 -0.0899  0.0318  0.3033
19242TIP3   OH279216   0.820   2.145   0.011 -0.0730 -0.2868  0.1395
19242TIP3    H179217   0.834   2.103  -0.074 -0.1396  1.4099 -0.7507
19242TIP3    H279218   0.742   2.200  -0.002  0.3581  0.5660  1.0512
19243TIP3   OH279219   1.299   0.514  16.949 -0.6444  0.5843 -0.0048
19243TIP3    H179220   1.221   0.567  16.963 -1.3395 -0.2637 -0.6113
19243TIP3    H279221   1.275   0.426  16.980 -0.0278  0.2565 -0.4407
19244TIP3   OH279222   3.224   6.189  16.875  0.1055  0.3101  0.0894
19244TIP3    H179223   3.145   6.193  16.928 -0.3168 -1.8065 -0.3344
19244TIP3    H279224   3.199   6.226  16.790 -0.0653  0.8817  0.3931
19245TIP3   OH279225   2.357   0.091   1.174  0.0603  0.3166  0.2025
19245TIP3    H179226   2.418   0.095   1.100  2.0055 -1.4557  1.6510
19245TIP3    H279227   2.378   0.169   1.226  0.1776  0.4037  0.0275
19246TIP3   OH279228   6.437   1.891  16.100 -0.1641  0.6412 -0.7985
19246TIP3    H179229   6.437   1.952  16.026  2.1120  1.5804 -0.0554
19246TIP3    H279230   6.453   1.805  16.060  0.1123  1.0043 -1.4841
19247TIP3   OH279231   4.551   3.727  15.224 -0.0478 -0.0484 -0.0423
19247TIP3    H179232   4.472   3.702  15.272 -0.5911 -0.2418 -1.0480
19247TIP3    H279233   4.566   3.819  15.249 -0.0885 -0.2743  0.8290
19248TIP3   OH279234   3.448   3.183   2.415  0.4783  0.7076  0.6043
19248TIP3    H179235   3.529   3.147   2.379  0.0452 -0.4417  0.7599
19248TIP3    H279236   3.401   3.218   2.339 -0.0024 -0.8652  0.1518
19249TIP3   OH279237   5.359   0.384  14.178  0.0474  0.0389  0.1825
19249TIP3    H179238   5.428   0.373  14.244  1.2882 -1.7910 -1.3831
19249TIP3    H279239   5.406   0.407  14.098 -1.1528 -1.2164 -0.8941
19250TIP3   OH279240   5.546   1.686  15.774 -0.1916 -0.2531 -0.2684
19250TIP3    H179241   5.630   1.727  15.752  0.1602  0.0570  1.5860
19250TIP3    H279242   5.481   1.739  15.728  0.4198  1.1685  0.4763
19251TIP3   OH279243   6.249   1.768  10.525  0.4681  0.1139  0.0689
19251TIP3    H179244   6.213   1.790  10.439  2.8287  1.1192 -0.6998
19251TIP3    H279245   6.318   1.832  10.539  0.4908 -0.4011  2.4925
19252TIP3   OH279246   0.029   5.020  11.685 -0.1699 -0.4258  0.3769
19252TIP3    H179247   0.085   4.978  11.620 -0.5429 -1.3214  0.6303
19252TIP3    H279248   0.091   5.068  11.741  0.0717  1.0511 -1.1331
19253TIP3   OH279249   1.578   4.286   4.783  0.3724 -1.0211  0.8287
19253TIP3    H179250   1.635   4.322   4.715 -0.2527 -0.3592  0.6451
19253TIP3    H279251   1.635   4.270   4.857  0.8352 -0.5661  0.5713
19254TIP3   OH279252   5.924   1.043   0.539  0.2182  0.4724 -0.4071
19254TIP3    H179253   5.926   1.135   0.567 -2.4411  0.5794 -0.4172
19254TIP3    H279254   5.973   0.996   0.607  1.0851  1.8105 -0.0908
19255TIP3   OH279255   2.403   1.278  16.619 -0.1554  0.1477  0.5955
19255TIP3    H179256   2.398   1.185  16.596 -1.1258  0.9250 -2.5658
19255TIP3    H279257   2.339   1.288  16.690 -0.6437 -1.4406  0.4128
19256TIP3   OH279258   5.744   0.218  15.649  0.1462 -0.3988  0.2424
19256TIP3    H179259   5.749   0.225  15.744  2.1941  0.0870  0.1262
19256TIP3    H279260   5.829   0.249  15.618  0.0323 -1.8710 -1.6716
19257TIP3   OH279261   6.663   1.388  15.409 -0.0842 -0.2894 -0.7064
19257TIP3    H179262   6.572   1.392  15.379 -0.4786 -0.1808  0.5039
19257TIP3    H279263   6.711   1.440  15.344 -0.9695  0.1009 -1.0583
19258TIP3   OH279264   1.337   1.139   0.959 -0.1189 -0.4318 -0.3753
19258TIP3    H179265   1.390   1.160   0.881  0.9509 -1.0402  0.1733
19258TIP3    H279266   1.261   1.092   0.924 -0.3320  0.4981 -1.1815
19259TIP3   OH279267   6.659   1.403   4.767  0.7735 -0.4187  0.3803
19259TIP3    H179268   6.663   1.440   4.679 -0.1891  0.2910  0.6188
19259TIP3    H279269   6.602   1.463   4.816 -0.5523 -2.0343  0.8677
19260TIP3   OH279270   4.512   6.777  11.447  0.0631 -0.0939  0.0072
19260TIP3    H179271   4.542   6.834  11.377  1.2910 -1.2093 -0.4042
19260TIP3    H279272   4.588   6.767  11.504 -1.0398  1.1087  1.7250
19261TIP3   OH279273   5.151   3.193   1.765 -0.2291 -0.2353  0.0738
19261TIP3    H179274   5.176   3.225   1.852 -1.9912  1.4401 -0.0115
19261TIP3    H279275   5.181   3.261   1.705  0.4132 -1.0898 -0.5889
19262TIP3   OH279276   5.284   6.225   4.711 -0.2994  0.5316 -0.1034
19262TIP3    H179277   5.263   6.150   4.655  0.6649  0.0629  0.1484
19262TIP3    H279278   5.199   6.260   4.737 -0.7508  0.1831 -1.1044
19263TIP3   OH279279   1.779   3.915   0.623  0.2749  0.4360 -0.0800
19263TIP3    H179280   1.774   3.987   0.687  1.0685  0.2271  0.2181
19263TIP3    H279281   1.752   3.838   0.672 -0.6820  0.5408 -0.4299
19264TIP3   OH279282   3.673   1.157  12.451 -0.0511  0.5241 -0.1627
19264TIP3    H179283   3.594   1.102  12.457 -0.5195  1.2848  0.7580
19264TIP3    H279284   3.703   1.164  12.542  1.5138 -0.3731 -0.5896
19265TIP3   OH279285   6.670   1.785   2.244 -0.1461  0.1625  0.2805
19265TIP3    H179286   6.580   1.808   2.268 -0.6615 -0.5944 -0.8671
19265TIP3    H279287   6.700   1.860   2.193  0.0572  0.6366  1.0844
19266TIP3   OH279288   5.898   2.067   4.707 -0.4858  1.2251  0.5594
19266TIP3    H179289   5.818   2.043   4.661 -0.4517 -0.5506  1.3995
19266TIP3    H279290   5.960   2.089   4.638  0.2642 -3.5086 -0.4663
19267TIP3   OH279291   4.678   0.043  10.588 -0.3947  0.1313 -0.1541
19267TIP3    H179292   4.768   0.045  10.618 -0.2259  1.3135 -0.6916
19267TIP3    H279293   4.669  -0.042  10.545 -0.0299 -0.6728  1.3288
19268TIP3   OH279294   0.371   4.371  14.989  0.1722  0.1045 -0.1514
19268TIP3    H179295   0.279   4.396  14.995  0.1551  0.0944 -0.3530
19268TIP3    H279296   0.411   4.440  14.935  0.2643  0.0590 -0.1416
19269TIP3   OH279297   3.298   2.431   2.143 -0.4899 -0.5871 -0.5415
19269TIP3    H179298   3.320   2.338   2.150  2.2093  0.0921  0.5594
19269TIP3    H279299   3.381   2.473   2.119 -1.4880  1.6405 -0.1471
19270TIP3   OH279300   1.300   6.320  15.429 -0.1558  0.8425  0.1870
19270TIP3    H179301   1.313   6.287  15.518  1.0908 -0.6782 -0.5531
19270TIP3    H279302   1.382   6.365  15.408 -0.8818  2.2149  0.2194
19271TIP3   OH279303   2.376   5.383   4.878 -0.0129 -0.4622  0.7452
19271TIP3    H179304   2.337   5.298   4.862 -0.2831 -0.5395  1.7394
19271TIP3    H279305   2.447   5.390   4.814  0.3173 -1.6338  0.9686
19272TIP3   OH279306   0.779   0.997   3.437 -0.0540  0.4637 -0.0086
19272TIP3    H179307   0.871   0.975   3.453  0.0249 -0.0757 -1.1696
19272TIP3    H279308   0.731   0.918   3.462  0.0346 -0.2286 -1.9673
19273TIP3   OH279309   6.283   5.271   2.102  0.0548 -0.1565  0.3738
19273TIP3    H179310   6.368   5.251   2.061 -0.1815 -1.1210  0.3488
19273TIP3    H279311   6.288   5.230   2.188 -1.0207 -1.6212 -0.2564
19274TIP3   OH279312   1.035   5.078  12.492  0.0721  0.2460  0.2059
19274TIP3    H179313   1.028   5.168  12.524  1.8801  0.2964  0.5353
19274TIP3    H279314   1.123   5.051  12.518 -0.5507 -1.6992  0.2955
19275TIP3   OH279315   3.997   5.378   3.213  0.2219 -0.5026 -0.8206
19275TIP3    H179316   3.990   5.313   3.144  0.9488 -0.1623 -1.2194
19275TIP3    H279317   4.083   5.363   3.251  0.4363  0.2940 -0.9861
19276TIP3   OH279318   5.935   5.499  11.779 -0.2881  0.6388 -0.7166
19276TIP3    H179319   5.900   5.573  11.728  0.4742  0.9226 -0.8452
19276TIP3    H279320   5.858   5.450  11.807 -0.8834  2.1994  0.4699
19277TIP3   OH279321   0.018   5.351  10.805  0.0687 -0.1753 -0.4934
19277TIP3    H179322   0.049   5.287  10.740 -1.4773  0.9385 -2.3788
19277TIP3    H279323   0.084   5.420  10.803 -0.1553  0.0243 -1.1506
19278TIP3   OH279324   0.733   5.875   4.899 -0.6168  0.8359  0.3670
19278TIP3    H179325   0.730   5.970   4.914  2.0204  1.2852 -1.6933
19278TIP3    H279326   0.821   5.849   4.925 -0.7965 -0.7926 -0.5782
19279TIP3   OH279327   1.368   0.513   3.631  0.8312  0.3339  0.3268
19279TIP3    H179328   1.294   0.454   3.622  0.1372  0.6213  3.5324
19279TIP3    H279329   1.427   0.489   3.559 -1.9193 -0.5019 -1.7201
19280TIP3   OH279330   6.448   1.920  12.889 -0.1553  0.3923 -0.1076
19280TIP3    H179331   6.535   1.942  12.922 -0.3860 -0.2841  0.9717
19280TIP3    H279332   6.408   1.869  12.959 -1.8628  1.6929 -0.0991
19281TIP3   OH279333   6.052   0.870   4.459  0.0855  0.3744 -1.0719
19281TIP3    H179334   5.989   0.798   4.472  0.4674  0.2937  0.4045
19281TIP3    H279335   6.003   0.949   4.483 -0.6564  0.7614 -3.6593
19282TIP3   OH279336   3.496   0.144  16.494  0.6116 -0.2621 -0.0211
19282TIP3    H179337   3.558   0.215  16.476  0.1551  0.1393 -0.0404
19282TIP3    H279338   3.420   0.188  16.532  0.4570 -0.7829  0.2779
19283TIP3   OH279339   2.327   2.253  16.465 -0.1143 -0.1548  0.4035
19283TIP3    H179340   2.263   2.275  16.533 -0.4919 -1.4377  0.4896
19283TIP3    H279341   2.324   2.157  16.460 -1.2302 -0.0458 -2.4827
19284TIP3   OH279342   6.353   1.685  12.292  0.3082  0.1076 -0.4101
19284TIP3    H179343   6.325   1.706  12.381  1.6803 -0.9887  0.2897
19284TIP3    H279344   6.445   1.660  12.301  0.4689  0.0394 -2.1420
19285TIP3   OH279345   3.090   1.844  12.943 -0.3269  0.1051  0.6536
19285TIP3    H179346   3.076   1.905  13.015 -2.6050  0.2222  0.1550
19285TIP3    H279347   3.011   1.851  12.890  1.2920  0.0225 -1.8752
19286TIP3   OH279348   0.027   0.334  11.081  0.4826 -0.2026  0.2531
19286TIP3    H179349  -0.007   0.395  11.147  0.5228 -0.0177  0.1031
19286TIP3    H279350   0.084   0.275  11.131  1.3288  0.5823  0.2146
19287TIP3   OH279351   0.676   3.574   0.329 -0.1726 -0.4367  0.5689
19287TIP3    H179352   0.610   3.505   0.329  1.5652 -2.1437  2.2364
19287TIP3    H279353   0.637   3.644   0.380 -1.6243 -0.4766 -0.4401
19288TIP3   OH279354   2.389   0.976   6.972 -0.9001 -0.3783  0.2278
19288TIP3    H179355   2.417   0.921   6.899  1.5261  2.8578 -1.3990
19288TIP3    H279356   2.450   0.955   7.043 -0.3554 -0.2371 -0.1938
19289TIP3   OH279357   3.063   4.947  11.258  0.2021 -0.2436 -0.2904
19289TIP3    H179358   3.146   4.922  11.217  0.4092  0.3246 -0.2131
19289TIP3    H279359   3.025   5.012  11.199  0.2132  0.1239  0.1036
19290TIP3   OH279360   2.963   1.701   0.920 -0.3743 -0.2972  0.2664
19290TIP3    H179361   2.920   1.642   0.858  0.3263 -1.6030  1.0127
19290TIP3    H279362   2.990   1.776   0.867  0.8080 -1.6940 -1.1338
19291TIP3   OH279363   6.158   6.058  14.736  0.4203  0.5125 -0.5176
19291TIP3    H179364   6.143   6.114  14.660 -0.7609  1.4854  0.4037
19291TIP3    H279365   6.071   6.050  14.777  0.8302 -0.9271  0.0754
19292TIP3   OH279366   5.476   6.312   5.514  0.2912 -0.3796  0.7227
19292TIP3    H179367   5.418   6.244   5.549 -0.5813 -0.3373 -0.5838
19292TIP3    H279368   5.427   6.349   5.441  2.0913 -0.4937 -0.5646
19293TIP3   OH279369   1.238   0.572   2.961 -0.1547 -0.1015  0.2766
19293TIP3    H179370   1.325   0.554   2.926  0.2344  0.9986  0.6643
19293TIP3    H279371   1.197   0.630   2.896 -0.0893  0.4843  0.7471
19294TIP3   OH279372   0.623   1.226   0.300 -0.0563  0.1058  0.0565
19294TIP3    H179373   0.718   1.226   0.296 -0.1017  0.4100 -1.6503
19294TIP3    H279374   0.602   1.217   0.393  1.6247  1.3053  0.5620
19295TIP3   OH279375   5.616   2.643  17.042 -0.1248  0.4278 -0.3036
19295TIP3    H179376   5.577   2.557  17.028  0.3980  0.1607 -0.1096
19295TIP3    H279377   5.710   2.628  17.040 -0.0296  0.8131  0.8058
19296TIP3   OH279378   3.126   6.419   2.867 -0.1114  0.3110  0.0868
19296TIP3    H179379   3.034   6.392   2.862 -0.1446  0.1316  1.4922
19296TIP3    H279380   3.171   6.363   2.804 -0.8134 -0.2530  0.0760
19297TIP3   OH279381   2.152   4.433   5.503 -0.0743  0.0249 -0.0039
19297TIP3    H179382   2.219   4.408   5.440  0.6107 -0.6279  0.9662
19297TIP3    H279383   2.190   4.411   5.588 -1.0037  0.8498  0.6337
19298TIP3   OH279384   6.083   2.774  11.417 -0.2702  0.1982 -0.3225
19298TIP3    H179385   6.018   2.805  11.480  0.1069  0.4243 -0.0391
19298TIP3    H279386   6.072   2.679  11.416 -0.0265  0.1577  0.3795
19299TIP3   OH279387   6.725   3.380  15.769 -0.1481 -0.4841 -0.2183
19299TIP3    H179388   6.636   3.400  15.797  0.3512  0.4343  0.7798
19299TIP3    H279389   6.733   3.285  15.780 -1.1558 -0.6441 -0.8039
19300TIP3   OH279390   4.451   1.121  11.713  0.1906  0.5183  0.1077
19300TIP3    H179391   4.432   1.082  11.627 -1.0364  0.1978  0.5158
19300TIP3    H279392   4.541   1.151  11.706  0.5856 -0.8089 -0.8214
19301TIP3   OH279393   1.320   3.288  14.308 -0.6391  0.4553 -0.2394
19301TIP3    H179394   1.411   3.315  14.308 -1.0439  1.8733 -0.6930
19301TIP3    H279395   1.282   3.331  14.384 -0.9326 -0.1214 -0.0555
19302TIP3   OH279396   3.405   2.183   3.423  0.5748  0.4263  0.0652
19302TIP3    H179397   3.418   2.134   3.342 -1.0272  0.0114  0.0446
19302TIP3    H279398   3.409   2.275   3.397 -0.6292  0.2902 -0.5937
19303TIP3   OH279399   2.217   1.198  15.912  0.1024  0.0286 -0.2861
19303TIP3    H179400   2.267   1.277  15.936  0.5695  0.2044 -1.7836
19303TIP3    H279401   2.178   1.169  15.994 -0.4167  2.0711  0.2212
19304TIP3   OH279402   3.204   2.165  16.812  0.2335 -0.3405 -0.3925
19304TIP3    H179403   3.145   2.091  16.796  1.5510 -1.2017 -1.3922
19304TIP3    H279404   3.146   2.240  16.825 -1.0604 -0.9115 -2.6040
19305TIP3   OH279405   5.432   1.453  14.799  0.7176 -0.3149  0.1230
19305TIP3    H179406   5.512   1.432  14.847  1.6981  1.6326 -0.5841
19305TIP3    H279407   5.415   1.376  14.745  1.1143 -1.4405  1.5948
19306TIP3   OH279408   3.809   6.375  16.479 -0.3367  0.5200  0.0001
19306TIP3    H179409   3.735   6.329  16.439 -0.0214  0.2570 -0.2919
19306TIP3    H279410   3.770   6.451  16.522 -0.9533 -0.3719  1.0561
19307TIP3   OH279411   6.223   3.897   1.493  0.2003 -0.2724  0.5201
19307TIP3    H179412   6.282   3.868   1.423 -0.0527  1.1195 -0.2756
19307TIP3    H279413   6.136   3.869   1.465  0.0769  0.4271  0.1911
19308TIP3   OH279414   0.491   2.030   2.279  0.2850 -1.1289  0.4052
19308TIP3    H179415   0.420   2.052   2.338 -0.2467 -0.7391 -0.3746
19308TIP3    H279416   0.532   1.953   2.318 -0.9444 -1.7265  0.5287
19309TIP3   OH279417   2.646   6.028  14.527  0.0717 -0.6399  0.2339
19309TIP3    H179418   2.738   6.014  14.508  0.0873 -1.3412  0.8480
19309TIP3    H279419   2.645   6.067  14.614 -0.0059  2.5765 -1.1317
19310TIP3   OH279420   2.186   3.281  16.061 -0.6706 -0.3577  0.0335
19310TIP3    H179421   2.224   3.368  16.050 -0.9344  0.0705  2.2933
19310TIP3    H279422   2.098   3.289  16.025  0.2674 -0.5242 -2.4285
19311TIP3   OH279423   1.901   4.708  14.609  0.0642  0.4782 -0.0469
19311TIP3    H179424   1.925   4.691  14.518  0.2107  0.5397 -0.0188
19311TIP3    H279425   1.970   4.766  14.642 -0.5178  1.2484 -0.1879
19312TIP3   OH279426   6.474   5.414  17.258  0.3866  0.0875  0.2836
19312TIP3    H179427   6.384   5.415  17.225  0.0149 -1.8920  1.1278
19312TIP3    H279428   6.464   5.423  17.353  1.0834 -0.0679  0.3742
19313TIP3   OH279429   1.627   2.953  11.726 -0.4790  0.3143 -0.6225
19313TIP3    H179430   1.541   2.995  11.720 -0.4742  0.1455 -2.0093
19313TIP3    H279431   1.608   2.863  11.750 -0.7084  0.2328 -1.0966
19314TIP3   OH279432   4.239   1.927   2.314  0.2140 -0.3085  0.6634
19314TIP3    H179433   4.216   1.977   2.236  0.8787 -1.1685 -0.0980
19314TIP3    H279434   4.294   1.986   2.365 -1.8078  0.9753  1.4546
19315TIP3   OH279435   2.239   3.781  12.447 -0.1123 -0.3262 -0.6854
19315TIP3    H179436   2.152   3.819  12.430 -0.7524 -2.2068 -1.7057
19315TIP3    H279437   2.245   3.707  12.387  3.0094  0.9331 -2.0246
19316TIP3   OH279438   4.228   1.082  12.970 -0.0741 -0.0018  0.2132
19316TIP3    H179439   4.299   1.135  13.006  0.4708  0.9768 -2.2111
19316TIP3    H279440   4.151   1.138  12.977 -0.4177 -0.6628  1.8737
19317TIP3   OH279441   0.842   4.152  13.227 -0.0787 -0.7652  0.2897
19317TIP3    H179442   0.790   4.137  13.148  0.5209 -0.0639 -0.2409
19317TIP3    H279443   0.920   4.098  13.215 -0.0927 -0.8332  0.5040
19318TIP3   OH279444   6.762   0.501   1.436  0.4957  0.3199  0.3106
19318TIP3    H179445   6.793   0.520   1.347 -0.0287 -1.9888 -0.4079
19318TIP3    H279446   6.680   0.549   1.443  0.1488 -0.0881 -0.7606
19319TIP3   OH279447   5.422   6.311   2.322  0.4694  0.2585 -0.2935
19319TIP3    H179448   5.489   6.243   2.308  2.1043  1.4879  1.3325
19319TIP3    H279449   5.366   6.276   2.391 -0.8052 -0.9285 -1.9053
19320TIP3   OH279450   1.588   1.022   1.432 -0.2136 -0.2478 -0.2223
19320TIP3    H179451   1.619   1.097   1.381 -0.1237 -1.4061 -1.9533
19320TIP3    H279452   1.504   1.000   1.392  1.4970 -3.4106 -2.3453
19321TIP3   OH279453   3.953   2.606  13.315 -0.2416  0.1166 -0.3602
19321TIP3    H179454   3.912   2.541  13.372  2.0064  0.0484  1.2450
19321TIP3    H279455   3.909   2.595  13.230 -3.2924 -0.1188  1.1960
19322TIP3   OH279456   2.997   0.599   5.966  0.2353 -0.1364  0.0312
19322TIP3    H179457   3.018   0.672   5.909  1.7463 -0.5896 -0.0163
19322TIP3    H279458   3.020   0.521   5.915  2.2429 -0.5261  1.4802
19323TIP3   OH279459   5.289   3.205  14.587 -0.4502  0.2491  0.0334
19323TIP3    H179460   5.321   3.164  14.506  2.1415 -0.2567  1.2595
19323TIP3    H279461   5.280   3.298  14.565  0.8195  0.2155 -0.6787
19324TIP3   OH279462   5.240   2.715   1.182  0.0170 -0.1784  0.1828
19324TIP3    H179463   5.316   2.733   1.238  1.3872 -1.1219 -1.3199
19324TIP3    H279464   5.201   2.802   1.167  0.7168  0.3013  1.0710
19325TIP3   OH279465   5.735   4.857  12.921 -0.3266 -0.2090 -0.4890
19325TIP3    H179466   5.773   4.773  12.896  0.3175  0.2414 -1.0578
19325TIP3    H279467   5.754   4.866  13.014  0.0460 -0.4748 -0.5383
19326TIP3   OH279468   3.872   6.440  10.282 -0.0986  0.2581  0.4236
19326TIP3    H179469   3.880   6.374  10.214  1.1274  2.0924 -1.2699
19326TIP3    H279470   3.804   6.407  10.341  0.1126 -2.2068 -0.6944
19327TIP3   OH279471   5.947   5.510   0.650  0.0701  0.0301  0.1024
19327TIP3    H179472   5.950   5.468   0.735 -0.4007 -1.8970 -0.8235
19327TIP3    H279473   6.017   5.468   0.600 -2.2093 -1.6928 -1.7438
19328TIP3   OH279474   0.773   0.011   3.833 -0.4447  0.2578 -0.2589
19328TIP3    H179475   0.705  -0.025   3.890 -0.5394 -0.4310 -0.8060
19328TIP3    H279476   0.854  -0.029   3.865 -0.1185  1.9559  1.1366
19329TIP3   OH279477   4.383   6.282   2.063 -0.2714 -0.4218  0.2219
19329TIP3    H179478   4.412   6.302   1.974  2.2877 -0.6929  0.9643
19329TIP3    H279479   4.345   6.194   2.057 -2.1288  0.4117 -0.9899
19330TIP3   OH279480   2.544   6.586  12.585 -0.2703  0.2444  0.1151
19330TIP3    H179481   2.467   6.620  12.539 -0.1469 -0.1868 -0.4134
19330TIP3    H279482   2.565   6.654  12.650 -0.9226  0.4911  0.0689
19331TIP3   OH279483   1.048   6.659  13.101 -0.1634  0.1907  0.3520
19331TIP3    H179484   0.993   6.732  13.074 -0.7374 -0.7353 -1.0509
19331TIP3    H279485   0.988   6.597  13.141 -0.0641 -0.5177 -0.5601
19332TIP3   OH279486   4.107   4.779  16.244  0.6921 -0.1022  0.7160
19332TIP3    H179487   4.028   4.767  16.190  2.3676  0.4475 -1.9532
19332TIP3    H279488   4.095   4.719  16.317 -2.2396  0.0260  0.4111
19333TIP3   OH279489   0.067   4.777  13.910 -0.0827 -0.9681  0.3303
19333TIP3    H179490   0.137   4.841  13.900 -0.1879 -1.0345 -0.9226
19333TIP3    H279491   0.103   4.712  13.972 -0.0872  0.4204  1.8105
19334TIP3   OH279492   3.706   5.060  16.337  0.0645 -0.1961  0.3170
19334TIP3    H179493   3.667   5.021  16.416 -1.0643 -0.0470 -0.1535
19334TIP3    H279494   3.635   5.112  16.299  0.8228  0.3249 -0.4044
19335TIP3   OH279495   4.852   6.680  16.170  0.4838 -0.6274 -0.3393
19335TIP3    H179496   4.944   6.654  16.168  0.5580 -0.4933  0.8822
19335TIP3    H279497   4.808   6.610  16.217 -0.3886 -1.6607 -2.6070
19336TIP3   OH279498   1.392   0.465  11.505  0.2787  0.3290 -0.8714
19336TIP3    H179499   1.338   0.471  11.584  0.8655 -1.5863 -0.3116
19336TIP3    H279500   1.340   0.411  11.445  1.2729 -1.0311 -0.5453
19337TIP3   OH279501   1.597   3.108  14.200 -0.0528 -0.0123 -0.2627
19337TIP3    H179502   1.507   3.079  14.188 -0.6629  0.3668  2.9867
19337TIP3    H279503   1.616   3.160  14.122 -1.7924 -2.0547 -2.1444
19338TIP3   OH279504   0.867   3.609  13.302  0.3401 -0.4064 -0.4248
19338TIP3    H179505   0.866   3.535  13.363  1.1269  0.1884  0.3208
19338TIP3    H279506   0.933   3.585  13.237 -0.0610 -0.7667 -0.7006
19339TIP3   OH279507   3.726   6.382   1.606 -0.1193  0.2681 -0.3998
19339TIP3    H179508   3.791   6.345   1.667  1.3329 -1.0201 -2.6661
19339TIP3    H279509   3.708   6.469   1.641  1.5886  0.0208  1.2203
19340TIP3   OH279510   2.772   2.541  14.778  0.6824  0.6837  0.1422
19340TIP3    H179511   2.764   2.585  14.694  1.5712 -1.7366 -1.2311
19340TIP3    H279512   2.792   2.612  14.840  0.2861  2.4449 -1.7005
19341TIP3   OH279513   1.575   1.645   3.963 -0.1862 -0.3798 -0.1592
19341TIP3    H179514   1.499   1.628   3.906 -0.2790 -0.6949  0.0585
19341TIP3    H279515   1.605   1.558   3.989  0.1825 -0.2514 -0.1530
19342TIP3   OH279516   4.152   0.649   0.266  0.0811 -0.0250  0.5868
19342TIP3    H179517   4.113   0.632   0.180 -1.8630 -0.1217  1.4439
19342TIP3    H279518   4.157   0.562   0.307  1.1121  0.0055  0.5192
19343TIP3   OH279519   2.729   5.946   2.797 -0.0974  0.0158 -0.6022
19343TIP3    H179520   2.681   5.908   2.871 -0.6134 -1.3572 -1.6316
19343TIP3    H279521   2.726   5.879   2.729  1.9565  0.5351 -1.2318
19344TIP3   OH279522   5.111   6.143  14.845  0.0752 -0.1552  0.0247
19344TIP3    H179523   5.163   6.073  14.885  0.8660  0.0763 -0.5889
19344TIP3    H279524   5.169   6.219  14.844 -0.3358  0.1561 -0.4974
19345TIP3   OH279525   0.842   1.703  16.054 -0.5315 -0.4360  0.8658
19345TIP3    H179526   0.866   1.737  15.968  0.6034 -2.7037  0.2426
19345TIP3    H279527   0.796   1.621  16.036 -1.2024 -0.4132  2.3829
19346TIP3   OH279528   0.680   3.841   3.158  0.0716 -0.1195  0.4494
19346TIP3    H179529   0.663   3.909   3.223  1.4403  0.1510  0.5406
19346TIP3    H279530   0.772   3.853   3.134 -0.6988  0.4469 -2.3226
19347TIP3   OH279531   0.419   2.719  16.004  0.0213  0.5003  0.0307
19347TIP3    H179532   0.499   2.666  16.012 -0.0155  0.5552  0.8368
19347TIP3    H279533   0.446   2.807  16.029 -0.4604  0.3646  1.0592
19348TIP3   OH279534   1.556   0.650  11.259 -0.6097 -0.0627  0.0898
19348TIP3    H179535   1.595   0.625  11.176  0.2112  1.0705  0.1156
19348TIP3    H279536   1.476   0.598  11.265  0.5307 -1.8717 -0.2961
19349TIP3   OH279537   5.483   2.567  15.128  0.2639 -0.2786  0.7206
19349TIP3    H179538   5.542   2.604  15.062  0.7096 -1.3171  0.5265
19349TIP3    H279539   5.477   2.634  15.195  0.0021  0.6938 -0.2641
19350TIP3   OH279540   3.496   2.177   0.364  0.6500 -0.3923  0.0458
19350TIP3    H179541   3.490   2.112   0.294 -1.6129 -2.0890  1.7235
19350TIP3    H279542   3.432   2.244   0.340 -0.3978 -1.1636  0.6545
19351TIP3   OH279543   3.149   5.348  16.522 -0.4411 -0.0420 -0.0520
19351TIP3    H179544   3.140   5.386  16.434 -0.6663 -0.0714 -0.0410
19351TIP3    H279545   3.161   5.254  16.506 -0.3907 -0.0352 -0.0546
19352TIP3   OH279546   4.898   4.643  15.111  0.0762  0.2871 -0.0086
19352TIP3    H179547   4.815   4.647  15.064 -0.6284 -0.3738  1.1612
19352TIP3    H279548   4.875   4.659  15.202  1.0412 -1.3600  0.5424
19353TIP3   OH279549   1.019   6.515   3.567 -0.0551 -0.2506  0.5327
19353TIP3    H179550   1.112   6.532   3.558 -0.5687  1.9227 -1.0729
19353TIP3    H279551   0.985   6.514   3.477 -1.5280 -1.3514  1.0683
19354TIP3   OH279552   0.225   5.642   1.561 -0.4859  0.3489 -0.1056
19354TIP3    H179553   0.288   5.701   1.601 -0.4073 -0.7832  1.4543
19354TIP3    H279554   0.142   5.690   1.564  0.0258  1.2965 -0.9461
19355TIP3   OH279555   0.142   1.692  16.343 -0.2508 -0.5338 -0.1017
19355TIP3    H179556   0.221   1.713  16.295 -0.5499 -1.4779 -1.0285
19355TIP3    H279557   0.075   1.750  16.306  0.3229  1.3311  1.7204
19356TIP3   OH279558   4.403   0.382  16.003  0.1227  0.2685 -0.1668
19356TIP3    H179559   4.359   0.457  15.963 -0.1995 -0.4981 -1.2851
19356TIP3    H279560   4.332   0.321  16.026  0.5252 -0.6622 -1.3305
19357TIP3   OH279561   1.879   5.747  12.615  0.4134  0.4333 -0.2898
19357TIP3    H179562   1.784   5.758  12.610  0.6165  2.2304 -0.5333
19357TIP3    H279563   1.913   5.836  12.630  2.0612 -0.1619 -0.4026
19358TIP3   OH279564   2.827   0.560   0.475 -0.1482 -0.2221 -0.4744
19358TIP3    H179565   2.755   0.548   0.536  0.1695  0.1209 -0.0362
19358TIP3    H279566   2.791   0.614   0.405  0.1805  1.4877  0.6334
19359TIP3   OH279567   2.811   6.792  14.537 -0.2103 -0.2244  0.4047
19359TIP3    H179568   2.856   6.806  14.620  0.6044 -0.8749  0.0848
19359TIP3    H279569   2.724   6.830  14.550  1.2473  3.4049  0.2022
19360TIP3   OH279570   1.288   4.632   3.896  0.1870  0.5239  0.0610
19360TIP3    H179571   1.349   4.689   3.944 -1.2610  0.8175  1.6093
19360TIP3    H279572   1.202   4.657   3.929 -0.5717 -1.7253 -0.1423
19361TIP3   OH279573   6.385   6.024   1.804 -0.3361 -0.3348  0.4264
19361TIP3    H179574   6.357   6.087   1.872  0.8877  0.8286 -0.1141
19361TIP3    H279575   6.327   6.040   1.731 -0.1813  0.0143  0.3777
19362TIP3   OH279576   0.843   2.595  15.305 -0.1568  0.3141 -0.1240
19362TIP3    H179577   0.753   2.567  15.322 -0.0770 -0.3566 -0.7877
19362TIP3    H279578   0.862   2.659  15.374 -1.4205  1.0680 -0.4595
19363TIP3   OH279579   1.161   4.633  13.425 -0.2559  0.5009 -0.8011
19363TIP3    H179580   1.128   4.563  13.480 -1.5601  1.2558 -0.5834
19363TIP3    H279581   1.108   4.628  13.345  0.9525  0.0294 -1.5898
19364TIP3   OH279582   1.204   5.003  15.186 -0.2600 -0.3174 -0.5860
19364TIP3    H179583   1.179   5.021  15.096  0.2869  0.6058 -0.5518
19364TIP3    H279584   1.247   4.917  15.182 -0.0219 -0.1672 -1.2362
19365TIP3   OH279585   3.072   1.930  16.088 -0.1203 -0.3432  0.3050
19365TIP3    H179586   3.013   1.893  16.153  0.0207 -0.0764  0.5894
19365TIP3    H279587   3.158   1.929  16.130 -0.1278  0.3766  0.3564
19366TIP3   OH279588   4.463   6.033   0.981 -0.2540  0.4343 -0.5181
19366TIP3    H179589   4.536   6.092   0.964 -0.2146  0.0920 -1.5867
19366TIP3    H279590   4.469   6.014   1.074  1.6800 -0.4805 -0.8068
19367TIP3   OH279591   0.426   1.970  14.038 -0.1902  0.0982 -0.5419
19367TIP3    H179592   0.510   1.927  14.023 -0.4491 -0.0288 -1.6537
19367TIP3    H279593   0.442   2.028  14.113  0.5706 -0.7713 -0.0118
19368TIP3   OH279594   4.572   5.089  14.389  0.3862 -0.3248  0.3328
19368TIP3    H179595   4.492   5.036  14.385 -1.1232  1.8771  0.3283
19368TIP3    H279596   4.590   5.100  14.482  0.3065 -0.2606  0.3402
19369TIP3   OH279597   5.070   5.219   4.959 -0.4622 -0.1765  0.1451
19369TIP3    H179598   5.102   5.213   4.868  0.2333  1.4482  0.2703
19369TIP3    H279599   5.030   5.306   4.965 -1.2969 -0.6250  1.1531
19370TIP3   OH279600   2.148   3.877  17.274  0.2534  0.1055 -0.1083
19370TIP3    H179601   2.124   3.828  17.353 -0.4358 -1.5508 -1.3291
19370TIP3    H279602   2.237   3.850  17.255  0.1758 -0.0071 -0.3038
19371TIP3   OH279603   0.042   4.462   3.521 -0.1952 -0.2931  0.3037
19371TIP3    H179604   0.057   4.393   3.586  0.7475 -1.4796 -1.1537
19371TIP3    H279605  -0.053   4.463   3.508 -0.1372 -1.8704 -0.2674
19372TIP3   OH279606   2.451   1.747  15.966 -0.1760 -0.1607 -0.9612
19372TIP3    H179607   2.490   1.833  15.951  1.0708 -0.4659  0.4142
19372TIP3    H279608   2.509   1.685  15.922  0.9952 -0.6186  1.1194
19373TIP3   OH279609   0.845   0.322  16.227  0.4869 -0.3132 -0.0469
19373TIP3    H179610   0.778   0.368  16.277 -0.5838 -1.0402 -0.7966
19373TIP3    H279611   0.817   0.330  16.136  2.3043  0.8132 -0.5310
19374TIP3   OH279612   1.550   1.900   5.814  0.1414 -0.0576 -0.4486
19374TIP3    H179613   1.478   1.849   5.850  1.3555  0.2976  2.5910
19374TIP3    H279614   1.621   1.890   5.877  1.6464  2.3326 -1.6797
19375TIP3   OH279615   2.469   5.692  13.691  0.4113  0.4434 -0.0824
19375TIP3    H179616   2.500   5.601  13.694 -2.3087 -0.4914  0.4365
19375TIP3    H279617   2.426   5.700  13.606 -2.3202  0.2347  1.2525
19376TIP3   OH279618   1.732   2.245   5.251 -0.0474 -0.5337 -0.3697
19376TIP3    H179619   1.730   2.173   5.315 -0.3321  1.0477  1.4469
19376TIP3    H279620   1.782   2.314   5.295 -1.9116  1.3061 -1.0506
19377TIP3   OH279621   1.554   2.780   1.045  0.2300 -0.0556 -0.5021
19377TIP3    H179622   1.465   2.813   1.059  0.8135  0.9056  1.0846
19377TIP3    H279623   1.544   2.713   0.977 -1.6090  0.4688 -0.7849
19378TIP3   OH279624   4.706   4.503  13.640  0.3709  0.0346 -0.0307
19378TIP3    H179625   4.640   4.544  13.695  0.7548 -0.6798  0.9802
19378TIP3    H279626   4.780   4.563  13.642  0.2996  0.1186  0.0692
19379TIP3   OH279627   4.825   4.741  15.357 -0.2285 -0.0691 -0.7350
19379TIP3    H179628   4.782   4.811  15.407 -0.2143 -0.7698  0.2900
19379TIP3    H279629   4.823   4.666  15.416  3.2775  0.1351 -0.2409
19380TIP3   OH279630   3.402   6.408  16.937 -0.1210 -0.6348 -0.4057
19380TIP3    H179631   3.352   6.327  16.924  0.8473 -1.1471 -1.0312
19380TIP3    H279632   3.429   6.434  16.849  0.6905 -0.3488 -0.0803
19381TIP3   OH279633   2.353   2.816   2.509  0.3930 -0.1399  0.3714
19381TIP3    H179634   2.411   2.785   2.440 -0.1457  0.4428 -0.3564
19381TIP3    H279635   2.366   2.911   2.510  0.0991 -0.1018  0.8006
19382TIP3   OH279636   2.184   5.711   2.568  0.7546 -0.5526 -0.1121
19382TIP3    H179637   2.254   5.651   2.594  0.9936 -1.0261 -1.7301
19382TIP3    H279638   2.178   5.700   2.473 -0.3248  0.7858 -0.2189
19383TIP3   OH279639   1.134   2.796   6.467 -0.2688 -0.3320  0.2244
19383TIP3    H179640   1.093   2.821   6.384 -0.5282 -1.5604 -0.0375
19383TIP3    H279641   1.182   2.716   6.446  1.8080  0.7828  0.6712
19384TIP3   OH279642   4.150   4.277  12.425 -0.3989  0.4118 -0.3007
19384TIP3    H179643   4.085   4.210  12.400  0.9404 -0.3634 -1.7545
19384TIP3    H279644   4.161   4.264  12.519  0.3950 -1.9405 -0.6788
19385TIP3   OH279645   3.601   5.401   3.912  0.1885  0.3637  0.2485
19385TIP3    H179646   3.649   5.475   3.951  0.0634 -0.2571  1.5963
19385TIP3    H279647   3.666   5.332   3.903  0.3088  0.6262 -1.0346
19386TIP3   OH279648   0.287   6.466   3.336 -0.1199 -0.1489  0.1155
19386TIP3    H179649   0.226   6.534   3.365 -0.1019 -1.0187  2.2270
19386TIP3    H279650   0.243   6.384   3.356  0.9068 -0.7798 -0.1617
19387TIP3   OH279651   5.479   2.164  15.866  0.7616  0.0064 -0.4704
19387TIP3    H179652   5.407   2.189  15.924 -0.9237 -2.0176 -1.5777
19387TIP3    H279653   5.469   2.221  15.789  1.1368  0.6130 -0.0694
19388TIP3   OH279654   0.925   3.892   1.142  0.1101  0.2794  0.0119
19388TIP3    H179655   0.880   3.873   1.224 -2.2354 -2.7567 -1.8781
19388TIP3    H279656   0.855   3.906   1.078  1.8788  1.1317 -1.8021
19389TIP3   OH279657   0.352   2.096   1.052  0.1975  0.0344  0.0467
19389TIP3    H179658   0.294   2.148   1.108  0.7935  1.3983 -0.5781
19389TIP3    H279659   0.439   2.109   1.090  0.4256 -0.0366 -0.4481
19390TIP3   OH279660   2.971   6.576  17.046  0.3361  0.4126  0.1704
19390TIP3    H179661   3.047   6.592  16.989 -0.9518 -2.2690 -2.4576
19390TIP3    H279662   2.896   6.604  16.993 -0.7462  0.3449  1.6341
19391TIP3   OH279663   1.673   4.239  16.219 -0.2062  0.6288  0.5866
19391TIP3    H179664   1.750   4.258  16.166 -0.9458  0.6434 -0.5031
19391TIP3    H279665   1.607   4.301  16.188 -1.7679 -1.7383 -1.0371
19392TIP3   OH279666   0.370   4.412   4.749 -0.9882 -0.1012 -0.2621
19392TIP3    H179667   0.276   4.402   4.763 -0.6735  0.9898  3.1225
19392TIP3    H279668   0.400   4.463   4.824  2.7637 -2.8584  0.2527
19393TIP3   OH279669   4.213   6.063   2.045  0.4611  0.2032  0.1674
19393TIP3    H179670   4.130   6.098   2.011  1.3974  2.7871  0.4229
19393TIP3    H279671   4.190   6.026   2.130 -0.6487 -0.2482 -0.3108
19394TIP3   OH279672   4.569   2.056  14.346 -0.4708 -0.2573  0.5458
19394TIP3    H179673   4.574   2.112  14.423  1.7216 -1.1856  1.1290
19394TIP3    H279674   4.660   2.045  14.318 -1.2280  0.1186 -2.2355
19395TIP3   OH279675   5.275   5.856  13.174  0.3739 -0.3465 -0.5136
19395TIP3    H179676   5.352   5.887  13.223  1.2839 -0.8724 -1.5777
19395TIP3    H279677   5.300   5.868  13.082 -1.9143  2.1287 -0.8750
19396TIP3   OH279678   2.530   5.219  16.239  0.1314  0.2214  0.0531
19396TIP3    H179679   2.526   5.272  16.160 -1.7074  0.9874  0.6376
19396TIP3    H279680   2.445   5.174  16.242  1.2004 -1.8804  0.1776
19397TIP3   OH279681   0.887   1.313   1.848 -0.5512  0.3087  0.3433
19397TIP3    H179682   0.853   1.269   1.926 -2.7373  0.6799 -0.3640
19397TIP3    H279683   0.885   1.406   1.870  0.5282  0.2955  0.4929
19398TIP3   OH279684   2.473   5.364  14.486  0.4565 -0.0413 -0.3540
19398TIP3    H179685   2.392   5.390  14.531  0.7613  0.9794 -0.3782
19398TIP3    H279686   2.499   5.283  14.530 -1.8576 -1.7052 -1.9483
19399TIP3   OH279687   5.528   2.074  11.871 -0.1522  0.0059 -0.1477
19399TIP3    H179688   5.540   2.169  11.879 -1.9186  0.1877  0.4633
19399TIP3    H279689   5.609   2.043  11.829  1.2430  1.5231  1.3514
19400TIP3   OH279690   1.782   2.555  15.674 -0.3929  0.8422 -0.1091
19400TIP3    H179691   1.771   2.587  15.584  0.0657  1.5148  0.0733
19400TIP3    H279692   1.731   2.614  15.728 -1.1394  0.0917  0.0159
19401TIP3   OH279693   4.862   4.189   1.150 -0.4124  0.2830 -0.1367
19401TIP3    H179694   4.815   4.120   1.103 -0.9552 -0.5012  1.4904
19401TIP3    H279695   4.793   4.235   1.199  0.4208 -0.5210  1.8294
19402TIP3   OH279696   4.250   1.304  17.154 -0.0138  0.0679  0.1405
19402TIP3    H179697   4.195   1.227  17.140  0.7748 -0.5168  0.2314
19402TIP3    H279698   4.239   1.325  17.247 -1.4252  0.9930 -0.2258
19403TIP3   OH279699   2.763   2.816   4.526  0.1737 -0.2770 -0.6709
19403TIP3    H179700   2.704   2.792   4.597  0.6224 -0.7581 -0.4554
19403TIP3    H279701   2.789   2.733   4.486  1.5423 -0.1500 -0.0742
19404TIP3   OH279702   1.223   2.376   5.710 -0.0481  0.5181  0.5475
19404TIP3    H179703   1.146   2.323   5.732  0.4849 -0.1760  0.7523
19404TIP3    H279704   1.235   2.364   5.616 -0.8801  1.5598  0.2935
19405TIP3   OH279705   4.622   2.340   4.567 -0.0577 -0.5353  0.3196
19405TIP3    H179706   4.565   2.413   4.591 -1.5416 -1.3041 -0.7789
19405TIP3    H279707   4.674   2.323   4.646  0.4073  1.7614  0.5520
19406TIP3   OH279708   6.001   4.237   3.475  0.1879  0.1677 -0.4368
19406TIP3    H179709   6.057   4.179   3.527 -0.6531 -0.0377  0.2497
19406TIP3    H279710   5.973   4.305   3.537 -1.3461 -0.4324 -0.4451
19407TIP3   OH279711   5.202   1.241   3.421 -0.2800  0.0088  0.0521
19407TIP3    H179712   5.112   1.270   3.404 -0.2688 -0.5656 -1.0451
19407TIP3    H279713   5.195   1.146   3.430  0.0194  0.1037  1.3732
19408TIP3   OH279714   5.138   1.901  12.423  0.2270 -0.2355  0.0699
19408TIP3    H179715   5.055   1.872  12.386 -0.1547  0.5575  0.2764
19408TIP3    H279716   5.197   1.909  12.348 -0.1843  0.1699 -0.2162
19409TIP3   OH279717   3.315   0.172   0.485  0.1560  0.5956  0.3334
19409TIP3    H179718   3.224   0.202   0.492  0.5844  2.5977 -2.1796
19409TIP3    H279719   3.364   0.250   0.459  2.3318 -0.8656 -0.0240
19410TIP3   OH279720   5.495   6.373  12.917 -0.2895 -0.5980  0.1879
19410TIP3    H179721   5.404   6.367  12.888 -0.3842  0.3066  0.2893
19410TIP3    H279722   5.538   6.428  12.851  0.2222 -1.1576  0.0486
19411TIP3   OH279723   1.513   3.558   6.823  0.0585  0.0831  0.2144
19411TIP3    H179724   1.423   3.557   6.790  0.5726 -0.2399 -1.2188
19411TIP3    H279725   1.561   3.611   6.759  0.8556  0.4208  1.0737
19412TIP3   OH279726   6.016   6.108   4.759  0.0719  0.1835 -0.5983
19412TIP3    H179727   6.004   6.079   4.850 -0.2262  1.3093 -0.2757
19412TIP3    H279728   6.003   6.028   4.707  2.6590 -1.0172  0.4929
19413TIP3   OH279729   3.357   6.011   0.820 -0.8595 -0.2952 -0.8019
19413TIP3    H179730   3.367   5.923   0.856  1.0092 -0.6605 -2.1586
19413TIP3    H279731   3.352   5.998   0.725 -1.0168  1.0260 -0.9831
19414TIP3   OH279732   1.824   2.997  10.780 -0.0020 -0.4081  0.3077
19414TIP3    H179733   1.895   2.941  10.748  0.0898 -1.1084  1.7226
19414TIP3    H279734   1.753   2.985  10.716  0.4702 -1.1691 -0.0698
19415TIP3   OH279735   4.623   0.772  10.489  0.5822  0.5594  0.1014
19415TIP3    H179736   4.660   0.686  10.466 -0.3566  0.0792  0.3662
19415TIP3    H279737   4.546   0.751  10.541 -0.5499  1.5341 -1.1467
19416TIP3   OH279738   4.903   2.741  13.223  0.1270 -0.1081 -0.5908
19416TIP3    H179739   4.934   2.679  13.158 -0.1204 -0.4121 -0.4204
19416TIP3    H279740   4.855   2.807  13.173 -0.0795 -0.3521 -0.7146
19417TIP3   OH279741   4.420   3.425   4.053  0.3861  0.3647  0.0189
19417TIP3    H179742   4.481   3.470   3.994  1.5653  1.2958  1.9113
19417TIP3    H279743   4.448   3.333   4.050  0.3814  0.3838 -0.9044
19418TIP3   OH279744   3.603   6.420  15.919 -0.1916 -0.0962 -0.3231
19418TIP3    H179745   3.553   6.474  15.979  0.6933 -0.8175  1.0870
19418TIP3    H279746   3.538   6.385  15.858 -1.6106 -1.9756  2.1801
19419TIP3   OH279747   5.543   5.365   6.371  0.5119 -0.1038  0.2641
19419TIP3    H179748   5.630   5.386   6.406  0.4777 -0.3582  0.5059
19419TIP3    H279749   5.485   5.375   6.446  0.3017  0.2607  0.0549
19420TIP3   OH279750   3.890   0.475   3.233 -0.4671 -0.4039 -0.4463
19420TIP3    H179751   3.834   0.407   3.194 -2.8344  1.6610 -0.7461
19420TIP3    H279752   3.971   0.472   3.182 -1.2245 -1.7756 -1.6032
19421TIP3   OH279753   2.117   5.239   5.473  0.1309 -0.6703  0.5472
19421TIP3    H179754   2.132   5.324   5.431  0.3587 -0.2133  1.5431
19421TIP3    H279755   2.073   5.187   5.406 -0.3072  0.3395  0.0365
19422TIP3   OH279756   4.745   2.626  11.599  0.3551 -0.1432  0.4156
19422TIP3    H179757   4.751   2.596  11.508  1.6063 -1.1512  0.8182
19422TIP3    H279758   4.659   2.667  11.605 -1.1476 -3.0764 -0.3279
19423TIP3   OH279759   0.951   6.211  12.318  0.6709 -0.5897 -0.6301
19423TIP3    H179760   1.017   6.273  12.289  2.0804 -2.5929 -1.8355
19423TIP3    H279761   0.892   6.201  12.243  0.8916 -1.2771 -0.7192
19424TIP3   OH279762   6.051   3.694  10.529  0.1316  0.0940  0.2582
19424TIP3    H179763   6.137   3.713  10.567 -0.3512 -0.0928  1.4499
19424TIP3    H279764   6.045   3.753  10.454  0.6346  1.2544  1.1182
19425TIP3   OH279765   0.207   3.436   2.663  0.2629 -0.5347  0.5017
19425TIP3    H179766   0.254   3.396   2.736 -0.2774 -2.4165 -0.1467
19425TIP3    H279767   0.222   3.376   2.589 -0.4290  0.5529 -0.5469
19426TIP3   OH279768   2.872   1.458   0.309 -0.2689 -0.1667 -0.5012
19426TIP3    H179769   2.821   1.386   0.345  0.4278 -0.0726  0.6926
19426TIP3    H279770   2.811   1.532   0.304 -0.3732 -0.1886  0.4592
19427TIP3   OH279771   3.790   0.048   3.216  0.6457 -0.1101  0.1277
19427TIP3    H179772   3.804  -0.027   3.274  0.0478  1.4189  2.3105
19427TIP3    H279773   3.874   0.093   3.213  1.1314 -1.1056 -1.5552
19428TIP3   OH279774   1.213   0.628   1.523  0.0680 -0.2397 -0.2573
19428TIP3    H179775   1.291   0.670   1.557  0.8859 -1.4952 -0.5512
19428TIP3    H279776   1.179   0.688   1.457  0.7378  0.3336 -0.0760
19429TIP3   OH279777   5.144   6.135   5.971 -0.0966  0.5634 -0.1017
19429TIP3    H179778   5.108   6.222   5.987 -2.1162 -0.2269 -0.2399
19429TIP3    H279779   5.161   6.132   5.877  0.8927  1.1336  0.0509
19430TIP3   OH279780   1.889   6.569  15.197  0.1255 -0.0623  0.1990
19430TIP3    H179781   1.945   6.527  15.262 -0.9092 -0.0217  1.1359
19430TIP3    H279782   1.859   6.649  15.240 -0.4376  0.0446 -0.3867
19431TIP3   OH279783   6.556   3.022  17.233 -0.1065 -0.4250  0.3037
19431TIP3    H179784   6.536   3.097  17.290  0.3884 -0.8926  1.0945
19431TIP3    H279785   6.577   2.951  17.293 -1.6725 -1.5331 -0.4055
19432TIP3   OH279786   3.170   6.371   0.043 -0.2003  0.2287 -0.6502
19432TIP3    H179787   3.208   6.287   0.016  1.6845  1.5337 -2.1216
19432TIP3    H279788   3.215   6.391   0.126  1.3503  1.0841 -1.6746
19433TIP3   OH279789   2.975   5.584   2.597  0.1450 -0.3089  0.2390
19433TIP3    H179790   3.038   5.610   2.665  0.6652  1.4838 -0.8861
19433TIP3    H279791   3.026   5.529   2.537  0.0724 -0.6582  0.4971
19434TIP3   OH279792   5.771   2.436  16.817 -0.5969  0.0003 -0.3395
19434TIP3    H179793   5.853   2.407  16.776 -1.0609 -0.1941 -1.1619
19434TIP3    H279794   5.798   2.481  16.897  0.3383  0.3396 -0.8370
19435TIP3   OH279795   4.073   1.453  12.248 -0.1609 -0.0565  0.4659
19435TIP3    H179796   4.096   1.361  12.260 -1.6261 -0.4413  0.3443
19435TIP3    H279797   4.030   1.478  12.329 -1.4761 -0.0107 -0.2418
19436TIP3   OH279798   4.883   5.723   4.561  0.3134  0.1697  0.1322
19436TIP3    H179799   4.853   5.811   4.585  0.0530  0.4592 -1.2184
19436TIP3    H279800   4.828   5.698   4.487  1.4882 -0.4594 -0.5465
19437TIP3   OH279801   2.969   3.241   4.350 -0.1014 -0.9386 -0.3886
19437TIP3    H179802   2.955   3.241   4.445 -0.8626  1.7170 -0.4710
19437TIP3    H279803   2.889   3.204   4.314 -0.5296 -0.3296 -0.0726
19438TIP3   OH279804   6.686   4.222   6.692 -0.2160  0.2669 -0.3452
19438TIP3    H179805   6.642   4.307   6.692 -1.1088 -0.1776  0.5868
19438TIP3    H279806   6.659   4.180   6.611  0.7839  1.1454 -1.1445
19439TIP3   OH279807   0.947   4.531  11.846 -0.1258 -0.3768  0.3146
19439TIP3    H179808   1.000   4.602  11.883 -0.2823 -0.9889  1.7386
19439TIP3    H279809   0.884   4.576  11.790  0.5052  0.5255  0.3065
19440TIP3   OH279810   5.984   1.816   2.640 -0.4633 -0.0156 -0.6605
19440TIP3    H179811   6.069   1.811   2.684 -0.5980 -1.5743 -0.5572
19440TIP3    H279812   5.991   1.754   2.567 -2.0338 -1.2832  0.2527
19441TIP3   OH279813   4.652   5.788   1.398 -0.1711  0.3123  0.0026
19441TIP3    H179814   4.607   5.707   1.375  1.0961 -0.5261  0.3775
19441TIP3    H279815   4.655   5.787   1.494  0.7456  0.2858 -0.0229
19442TIP3   OH279816   4.959   0.503  10.390  0.2346 -0.4246 -0.2369
19442TIP3    H179817   5.003   0.533  10.469  0.5477 -1.5942  0.0542
19442TIP3    H279818   4.988   0.412  10.380 -0.7515 -0.6613 -1.0243
19443TIP3   OH279819   3.471   3.071   2.873 -0.2969  0.5879 -0.2450
19443TIP3    H179820   3.421   3.059   2.792  0.5677  0.0547 -0.7049
19443TIP3    H279821   3.560   3.089   2.843  0.2121 -0.5187  0.6035
19444TIP3   OH279822   2.003   5.685  14.099  0.3825 -0.0927 -0.4930
19444TIP3    H179823   1.952   5.736  14.036 -2.5330  0.2362  2.0108
19444TIP3    H279824   1.982   5.594  14.080 -0.3871  0.0004 -0.0952
19445TIP3   OH279825   1.421   3.362   4.146 -0.1053 -0.1031 -0.0554
19445TIP3    H179826   1.355   3.365   4.077  1.5956  0.3945 -1.6994
19445TIP3    H279827   1.481   3.293   4.119  0.7616  0.3140  0.7595
19446TIP3   OH279828   1.305   4.521   5.114  0.4555 -0.4325 -0.2487
19446TIP3    H179829   1.335   4.488   5.030 -1.8970 -1.6702 -0.6363
19446TIP3    H279830   1.218   4.483   5.126  0.1532  0.8592  2.0825
19447TIP3   OH279831   0.337   3.034   6.507  0.0866 -0.3130 -0.1767
19447TIP3    H179832   0.308   3.122   6.481 -0.5849 -0.1755  0.9662
19447TIP3    H279833   0.259   2.980   6.498  0.2987 -0.6241 -0.1209
19448TIP3   OH279834   3.637   6.077   0.156 -0.4354 -0.1558 -0.8771
19448TIP3    H179835   3.620   5.989   0.192  1.3062 -0.1328  0.0691
19448TIP3    H279836   3.696   6.061   0.082  2.0232  0.3931  0.9066
19449TIP3   OH279837   4.817   0.370   5.154 -1.0984  0.2129 -0.1300
19449TIP3    H179838   4.868   0.292   5.178 -1.1514 -0.5013 -2.2331
19449TIP3    H279839   4.871   0.444   5.183  0.2346 -0.5680 -0.5557
19450TIP3   OH279840   6.013   4.000   3.213  1.0122  0.6239  0.1266
19450TIP3    H179841   6.092   4.025   3.262  2.6387 -0.0109 -2.1024
19450TIP3    H279842   6.028   4.034   3.125 -0.8032 -0.3168 -0.5653
19451TIP3   OH279843   2.293   2.675  12.805  0.6594  0.1925 -0.4853
19451TIP3    H179844   2.315   2.593  12.761  0.1261  0.6762 -1.7026
19451TIP3    H279845   2.251   2.649  12.887  4.0074 -0.7318  0.9996
19452TIP3   OH279846   2.966   0.928   3.347 -0.6680 -0.1574  0.4686
19452TIP3    H179847   2.984   0.958   3.258 -2.1825 -0.1040  0.1665
19452TIP3    H279848   3.038   0.963   3.399  1.5691 -2.2042 -1.1261
19453TIP3   OH279849   1.483   1.795  16.085 -0.3079  0.0251 -0.1258
19453TIP3    H179850   1.493   1.764  15.995  0.6926 -0.9082  0.2851
19453TIP3    H279851   1.559   1.851  16.100  0.0062 -0.5240  0.3982
19454TIP3   OH279852   5.467   3.037   5.857  0.0675  0.6354 -0.7759
19454TIP3    H179853   5.416   3.096   5.912 -0.2693  0.7155 -1.1757
19454TIP3    H279854   5.546   3.020   5.909 -1.0314 -0.6983  0.4943
19455TIP3   OH279855   0.396   2.710  11.151 -0.3833 -0.1105 -0.1147
19455TIP3    H179856   0.433   2.714  11.063  0.6527 -1.8441  0.1985
19455TIP3    H279857   0.303   2.691  11.138 -0.2433 -0.2791 -0.8471
19456TIP3   OH279858   1.130   4.153   1.118 -0.7436 -0.6427 -0.0905
19456TIP3    H179859   1.064   4.089   1.090 -0.8435 -1.7117  2.4756
19456TIP3    H279860   1.082   4.215   1.173 -0.1626  0.2346 -0.5642
19457TIP3   OH279861   1.962   4.228   0.543  0.4106 -0.0835 -0.2787
19457TIP3    H179862   2.018   4.184   0.478  0.3473 -1.4444  0.5681
19457TIP3    H279863   1.981   4.321   0.532  1.0863 -0.3657 -1.6198
19458TIP3   OH279864   2.420   3.313  17.089 -0.6015 -0.1723 -0.0599
19458TIP3    H179865   2.447   3.398  17.054 -1.5539  1.2840  2.5483
19458TIP3    H279866   2.477   3.250  17.046  0.2271  1.8033 -1.9534
19459TIP3   OH279867   5.327   2.312  10.720 -0.2091 -0.4205  0.1382
19459TIP3    H179868   5.362   2.249  10.783  1.5039 -1.9008 -2.2012
19459TIP3    H279869   5.283   2.259  10.653 -2.2486  1.1268  0.1798
19460TIP3   OH279870   5.457   0.318   0.432 -0.9055  0.2114  0.3187
19460TIP3    H179871   5.406   0.366   0.367 -0.0101 -0.7183 -1.0971
19460TIP3    H279872   5.399   0.249   0.462 -0.3230 -1.2161 -1.7283
19461TIP3   OH279873   0.698   3.338  13.086 -0.2472 -0.1078 -0.0235
19461TIP3    H179874   0.742   3.260  13.052  0.2064  1.4095 -3.0849
19461TIP3    H279875   0.758   3.371  13.154  1.4334 -0.3526 -1.3387
19462TIP3   OH279876   2.928   0.887  13.012  0.2331 -0.0139 -0.2347
19462TIP3    H179877   2.846   0.851  12.977  1.1764 -0.8961 -1.5411
19462TIP3    H279878   2.974   0.922  12.936  1.6813 -0.7286  0.2878
19463TIP3   OH279879   1.028   6.422  15.422 -0.2974 -0.4807 -0.6106
19463TIP3    H179880   1.066   6.386  15.501 -1.5106  0.0682  0.2411
19463TIP3    H279881   1.103   6.447  15.368  0.5397 -0.5058  0.5295
19464TIP3   OH279882   4.949   2.794  11.007  0.2005  0.4898  0.2549
19464TIP3    H179883   4.930   2.887  10.999  1.8365  0.8854  0.9019
19464TIP3    H279884   5.038   2.784  10.974 -0.0861 -0.9085 -0.1538
19465TIP3   OH279885   2.233   5.837   3.735 -0.3804 -0.5122 -0.1088
19465TIP3    H179886   2.211   5.762   3.679 -0.0020 -0.3181 -0.5163
19465TIP3    H279887   2.299   5.803   3.795  1.8152  0.2067 -2.0518
19466TIP3   OH279888   1.932   3.804  16.439  0.0950  0.0115  0.6067
19466TIP3    H179889   1.942   3.723  16.489  0.7465  0.4945  1.2769
19466TIP3    H279890   1.897   3.867  16.502 -0.8250  0.1353 -0.0286
19467TIP3   OH279891   0.237   5.175  11.736 -0.0982 -0.3160  0.3079
19467TIP3    H179892   0.295   5.206  11.667  0.0865  1.6468  1.3119
19467TIP3    H279893   0.295   5.135  11.801  0.0427  0.5740  0.7447
19468TIP3   OH279894   1.410   1.042  15.946 -0.2463 -0.3359  0.2796
19468TIP3    H179895   1.461   1.101  15.890  0.1705 -0.8171  0.1393
19468TIP3    H279896   1.462   1.036  16.027 -0.8933  0.4294  0.7510
19469TIP3   OH279897   1.031   4.462   0.489  0.4380  0.3244 -0.2119
19469TIP3    H179898   0.978   4.516   0.548  1.6376  0.7031  0.5446
19469TIP3    H279899   0.998   4.373   0.500  0.0986  0.5279  0.3935
19470TIP3   OH279900   5.170   1.981   4.264 -0.2724 -0.1048 -0.4569
19470TIP3    H179901   5.085   2.026   4.272  0.5239  1.4655 -0.5827
19470TIP3    H279902   5.166   1.940   4.178 -1.2985 -0.8732 -0.0491
19471TIP3   OH279903   4.471   3.969   3.785  0.9011  0.1102  0.5113
19471TIP3    H179904   4.540   4.012   3.834  1.0547  0.4976 -0.0406
19471TIP3    H279905   4.422   3.919   3.851  0.4511  1.4670  1.2193
19472TIP3   OH279906   4.377   2.619   4.567 -0.0212  0.2080 -0.3136
19472TIP3    H179907   4.379   2.580   4.480 -1.0008  0.3346 -0.3990
19472TIP3    H279908   4.441   2.691   4.563 -3.2787  3.1442 -2.3648
19473TIP3   OH279909   1.412   1.396   3.412 -0.0947  0.2706 -0.5529
19473TIP3    H179910   1.348   1.326   3.396  1.0107 -0.2895 -2.8155
19473TIP3    H279911   1.490   1.350   3.445 -0.7661  0.9328  2.0580
19474TIP3   OH279912   2.412   3.533  15.060 -0.1940  0.7954 -0.0764
19474TIP3    H179913   2.426   3.608  15.118 -0.6370 -0.5239  1.7955
19474TIP3    H279914   2.318   3.535  15.041 -0.1491  0.9029 -0.2859
19475TIP3   OH279915   1.176   0.528   5.205  0.3113  0.2831  0.1620
19475TIP3    H179916   1.169   0.491   5.117 -0.4124  2.2494 -0.6313
19475TIP3    H279917   1.091   0.569   5.221  1.5189  2.7688  0.4515
19476TIP3   OH279918   2.978   3.261  10.689  0.3863 -0.4411  0.0779
19476TIP3    H179919   2.966   3.166  10.680 -1.9126  0.0002 -1.9678
19476TIP3    H279920   2.929   3.283  10.768 -0.8914 -0.6701 -0.6338
19477TIP3   OH279921   0.764   2.295   5.500  0.0312 -0.0840 -0.5996
19477TIP3    H179922   0.797   2.366   5.556  1.0614 -1.0893  0.0782
19477TIP3    H279923   0.786   2.215   5.547 -1.8671 -0.8455 -0.9670
19478TIP3   OH279924   4.745   3.910   1.942 -0.2308 -0.3792  0.1722
19478TIP3    H179925   4.805   3.836   1.943 -0.4300 -0.5356  1.1116
19478TIP3    H279926   4.724   3.923   1.850 -0.0528 -1.3738 -0.0116
19479TIP3   OH279927   4.307   2.149  13.517  0.1286  0.3924  0.2699
19479TIP3    H179928   4.315   2.112  13.605  0.5168  0.5342  0.2917
19479TIP3    H279929   4.354   2.232  13.521  0.7149  0.0876 -0.2547
19480TIP3   OH279930   3.128   0.266   4.513 -0.9130 -0.3673  0.7085
19480TIP3    H179931   3.153   0.178   4.483 -3.4165 -1.2555  1.1027
19480TIP3    H279932   3.060   0.250   4.579 -3.5394  1.9197 -1.3247
19481TIP3   OH279933   2.546   2.400   3.027  0.0826 -0.1729  0.1552
19481TIP3    H179934   2.498   2.421   3.107 -0.7218 -1.3727  0.0001
19481TIP3    H279935   2.621   2.349   3.057 -0.1262 -0.4762  0.1649
19482TIP3   OH279936   6.401   4.812  12.997  0.4361  0.4502  0.2860
19482TIP3    H179937   6.338   4.880  13.024  0.8596  1.2812 -0.7553
19482TIP3    H279938   6.472   4.818  13.061  0.1546  0.5285  0.5950
19483TIP3   OH279939   2.993   6.639  12.303  0.3586  0.0336  0.1319
19483TIP3    H179940   2.975   6.730  12.324 -0.8744  0.1718 -1.3723
19483TIP3    H279941   3.088   6.636  12.286  0.6716  0.6886  1.7098
19484TIP3   OH279942   2.481   6.115   2.094 -0.7036  0.9748 -0.7195
19484TIP3    H179943   2.394   6.154   2.080 -0.9530  1.4091  1.8319
19484TIP3    H279944   2.502   6.135   2.185  0.5789 -2.0989 -0.2854
19485TIP3   OH279945   2.928   3.792  17.103 -0.1004  0.5799  0.8663
19485TIP3    H179946   3.011   3.817  17.064 -0.9114  2.4404  0.3004
19485TIP3    H279947   2.952   3.736  17.178  1.5686 -0.3083 -0.3097
19486TIP3   OH279948   6.482   1.712   3.289 -0.6087 -0.0693 -0.1427
19486TIP3    H179949   6.415   1.653   3.323  0.5226 -0.5779  1.2546
19486TIP3    H279950   6.559   1.696   3.344  0.7218  0.3776 -1.8178
19487TIP3   OH279951   4.205   3.574  13.392  0.3932 -0.7914 -0.3217
19487TIP3    H179952   4.209   3.553  13.485 -0.8121 -2.9148 -0.7106
19487TIP3    H279953   4.114   3.599  13.377  0.8002  0.4424 -0.7536
19488TIP3   OH279954   3.817   5.030  13.927 -0.0593  0.4199 -0.1388
19488TIP3    H179955   3.829   4.938  13.901 -4.1405 -0.0422 -0.7103
19488TIP3    H279956   3.770   5.069  13.853  1.7124  3.0262  0.0723
19489TIP3   OH279957   3.154   2.191  13.352 -0.3006  0.2779  0.0142
19489TIP3    H179958   3.210   2.155  13.421 -1.6030  0.9278  1.4220
19489TIP3    H279959   3.066   2.165  13.376 -1.0398  2.5727 -0.0804
19490TIP3   OH279960   5.279   5.010  16.662 -0.4922 -0.2645  0.3102
19490TIP3    H179961   5.220   5.073  16.620  2.5347  0.5966 -2.9124
19490TIP3    H279962   5.360   5.058  16.677 -0.5536 -1.3455  4.9295
19491TIP3   OH279963   0.269   6.340  11.497 -0.5197 -0.3952  0.6773
19491TIP3    H179964   0.210   6.342  11.572  0.0419 -1.4599  1.1471
19491TIP3    H279965   0.263   6.251  11.463 -1.5798  0.3515 -1.1971
19492TIP3   OH279966   2.228   6.327  11.601  0.4095  0.0748 -0.1927
19492TIP3    H179967   2.309   6.321  11.550 -0.1827 -0.6863 -1.0580
19492TIP3    H279968   2.229   6.251  11.658  1.3753  1.2594  1.4126
19493TIP3   OH279969   2.516   5.124  14.154  0.2793 -0.0234  0.4820
19493TIP3    H179970   2.470   5.205  14.131  2.2112  0.6754 -1.0477
19493TIP3    H279971   2.446   5.061  14.172 -1.2718  1.4473 -0.2538
19494TIP3   OH279972   4.037   4.396  15.365 -0.2940  0.4220 -0.5717
19494TIP3    H179973   4.022   4.471  15.308 -1.0630  0.3897 -0.4063
19494TIP3    H279974   4.131   4.379  15.357 -0.1802  1.1865 -0.8704
19495TIP3   OH279975   5.008   4.836   3.200  0.5258 -0.6596 -0.1407
19495TIP3    H179976   4.958   4.897   3.255 -1.8653 -1.1634 -1.6812
19495TIP3    H279977   5.088   4.884   3.178 -0.9337  1.6511 -0.6392
19496TIP3   OH279978   0.121   5.923  15.487  0.0946 -1.1436 -0.5591
19496TIP3    H179979   0.174   5.926  15.408  1.4971  0.8304  0.3905
19496TIP3    H279980   0.163   5.858  15.543  0.0074 -1.4343 -0.8364
19497TIP3   OH279981   3.443   4.021  12.898 -0.0757 -0.5967 -0.0917
19497TIP3    H179982   3.379   4.083  12.933 -0.9071 -0.1789 -2.2289
19497TIP3    H279983   3.528   4.053  12.928 -0.7252 -0.0779  1.2119
19498TIP3   OH279984   1.435   3.430   3.061  0.0992  0.9407  0.9557
19498TIP3    H179985   1.362   3.403   3.117 -0.7026  0.7234 -0.1628
19498TIP3    H279986   1.462   3.350   3.017 -2.1597  1.8074 -2.2350
19499TIP3   OH279987   2.613   3.078  13.284  0.2718 -0.2002 -0.0495
19499TIP3    H179988   2.556   3.154  13.282  0.3471 -0.1711 -1.0488
19499TIP3    H279989   2.668   3.091  13.361 -0.3194  0.3145  0.2858
19500TIP3   OH279990   4.356   0.919   0.328 -0.3780 -0.0958  0.3450
19500TIP3    H179991   4.289   0.939   0.263 -0.1403  0.7448  0.3583
19500TIP3    H279992   4.314   0.941   0.412 -0.5272 -0.7569  0.4437
19501TIP3   OH279993   3.436   1.107   3.850  0.7661  0.6817  0.0584
19501TIP3    H179994   3.385   1.135   3.926  1.1991  2.0288 -0.1339
19501TIP3    H279995   3.400   1.159   3.777  0.5140 -0.4192 -0.6272
19502TIP3   OH279996   0.428   1.087   2.619 -0.2218  0.6199 -0.4000
19502TIP3    H179997   0.375   1.028   2.672  0.9856 -2.6994 -2.7177
19502TIP3    H279998   0.474   1.142   2.683 -0.2388 -1.9702  1.9165
19503TIP3   OH279999   0.442   0.070  15.468  0.9805 -0.2546  0.3184
19503TIP3    H180000   0.523   0.042  15.426  1.4361  1.6452 -0.1171
19503TIP3    H280001   0.377   0.068  15.398  0.7506 -1.2447  0.5438
19504TIP3   OH280002   2.494   0.193  12.898 -0.4795  0.3846 -0.3632
19504TIP3    H180003   2.404   0.213  12.925 -0.0702  0.7524  0.7482
19504TIP3    H280004   2.548   0.248  12.954  0.4625 -0.1122 -0.7818
19505TIP3   OH280005   4.715   5.631   1.139 -1.1313 -0.1442 -0.5033
19505TIP3    H180006   4.775   5.556   1.130 -1.0886  0.0251 -1.7212
19505TIP3    H280007   4.667   5.614   1.220 -0.6348 -1.1423 -0.4112
19506TIP3   OH280008   2.216   5.664  12.359  0.2343 -0.7565 -0.1658
19506TIP3    H180009   2.253   5.616  12.433 -0.1394  0.7806  1.0411
19506TIP3    H280010   2.124   5.640  12.359  0.1624 -0.4973  0.1038
19507TIP3   OH280011   2.030   2.157  11.446 -1.2372  0.2824 -0.1808
19507TIP3    H180012   1.942   2.178  11.415 -1.5089  0.5027  0.7200
19507TIP3    H280013   2.016   2.102  11.523 -0.6087  1.0207  0.4797
19508TIP3   OH280014   3.817   2.395   1.518  0.3516 -0.0207  0.0870
19508TIP3    H180015   3.895   2.448   1.501 -0.0298  1.2199  2.0556
19508TIP3    H280016   3.745   2.457   1.511 -0.1057 -0.2635  2.4172
19509TIP3   OH280017   3.434   5.270   1.632  0.2297 -0.5478  0.0508
19509TIP3    H180018   3.467   5.215   1.561  0.0555 -0.7162  0.1011
19509TIP3    H280019   3.507   5.329   1.652  0.7480 -1.3943  0.6500
19510TIP3   OH280020   3.682   5.833   0.272  0.0184 -0.1710  0.2597
19510TIP3    H180021   3.765   5.867   0.306 -0.1430  1.1969 -0.6690
19510TIP3    H280022   3.706   5.781   0.196  0.0746 -0.3112  0.3728
19511TIP3   OH280023   0.688   5.682  12.525 -0.0080 -0.1984  0.0189
19511TIP3    H180024   0.633   5.604  12.526 -1.7634  0.9786  1.8572
19511TIP3    H280025   0.734   5.681  12.609  1.2613 -0.1245 -0.6616
19512TIP3   OH280026   3.615   5.165   4.930 -0.1991 -0.0004 -0.9543
19512TIP3    H180027   3.559   5.178   4.853 -2.0344 -0.7095  0.2383
19512TIP3    H280028   3.688   5.112   4.897 -0.9588 -0.2907 -2.2238
19513TIP3   OH280029   2.966   3.902  16.191  0.0223 -0.1148  0.1049
19513TIP3    H180030   2.955   3.996  16.183 -0.7145 -0.0698  1.4379
19513TIP3    H280031   2.877   3.867  16.198  0.2772 -0.9286 -0.6350
19514TIP3   OH280032   3.350   6.778  15.481 -0.5252  0.4369  0.2531
19514TIP3    H180033   3.363   6.817  15.567 -0.0010  0.7948  0.0141
19514TIP3    H280034   3.346   6.683  15.498  1.8288  0.3525  0.4135
19515TIP3   OH280035   1.529   4.556   1.912 -0.1345 -0.4675 -0.1904
19515TIP3    H180036   1.606   4.583   1.963 -0.8502  0.2108  0.5453
19515TIP3    H280037   1.540   4.461   1.901  1.3679 -0.2058 -1.0527
19516TIP3   OH280038   0.539   3.115   3.601 -0.3034  0.0255  0.8224
19516TIP3    H180039   0.531   3.021   3.621 -1.9766  0.2452  1.2022
19516TIP3    H280040   0.545   3.119   3.506 -0.1638 -0.4688  0.8067
19517TIP3   OH280041   3.324   0.969  12.022 -0.0403  0.2116  0.5991
19517TIP3    H180042   3.234   1.001  12.023 -0.8772 -2.0084  0.3012
19517TIP3    H280043   3.376   1.039  12.062 -1.7784  1.8421  0.0427
19518TIP3   OH280044   2.389   2.469  15.438  0.0919  0.7619 -0.3097
19518TIP3    H180045   2.300   2.435  15.448  0.5880 -0.7765 -1.0016
19518TIP3    H280046   2.378   2.552  15.391 -0.8291 -0.4401 -2.2478
19519TIP3   OH280047   5.540   3.627  10.419  0.3630 -0.0104 -0.2371
19519TIP3    H180048   5.507   3.542  10.389 -0.1013  0.4205 -0.9615
19519TIP3    H280049   5.523   3.627  10.514 -1.2683  0.0021 -0.5193
19520TIP3   OH280050   6.409   3.569  12.617  0.0416  0.0332  0.4990
19520TIP3    H180051   6.493   3.614  12.620  0.2026  0.1415 -3.0724
19520TIP3    H280052   6.345   3.633  12.648  1.0391  0.5711  1.4444
19521TIP3   OH280053   3.132   2.047   3.082  0.0732  0.0291 -0.5967
19521TIP3    H180054   3.148   1.961   3.120  0.8987  0.3868 -0.1154
19521TIP3    H280055   3.037   2.060   3.090  0.2296  0.0947  1.3451
19522TIP3   OH280056   0.992   2.166  16.308 -0.0588 -0.1478 -0.4075
19522TIP3    H180057   1.016   2.120  16.228 -0.6674  0.6960 -1.0889
19522TIP3    H280058   1.058   2.234  16.318  0.6805 -0.9789  0.4454
19523TIP3   OH280059   0.749   3.088  12.961  0.1436  0.0603  0.0150
19523TIP3    H180060   0.818   3.055  12.904 -0.7388  1.6638 -2.0229
19523TIP3    H280061   0.677   3.110  12.902 -1.5657 -0.1697  1.9532
19524TIP3   OH280062   0.513   4.692   5.932 -0.1858 -0.4672 -0.4671
19524TIP3    H180063   0.521   4.719   6.024 -1.7646  0.1129 -0.4781
19524TIP3    H280064   0.453   4.756   5.894 -0.3841 -1.3357 -1.6332
19525TIP3   OH280065   4.082   2.051   6.362  0.6598 -0.0975 -0.0811
19525TIP3    H180066   3.994   2.027   6.331  0.3026  1.9032 -0.7165
19525TIP3    H280067   4.082   2.025   6.454 -1.3531  1.7435  0.4871
19526TIP3   OH280068   0.255   1.940   3.880 -0.2289  0.7750  0.8451
19526TIP3    H180069   0.218   1.948   3.968  1.0644 -0.3107  1.5163
19526TIP3    H280070   0.197   1.992   3.824 -1.1345  1.3770  2.3170
19527TIP3   OH280071   3.733   5.258   1.656 -0.0938 -0.3521  0.6360
19527TIP3    H180072   3.739   5.287   1.565  2.0426 -0.8535  0.5990
19527TIP3    H280073   3.729   5.339   1.707  0.7299 -0.0497  0.2200
19528TIP3   OH280074   5.309   1.453   4.131 -0.1030  0.3509  0.2153
19528TIP3    H180075   5.343   1.377   4.085  0.3619 -0.2734  1.5828
19528TIP3    H280076   5.362   1.460   4.210 -1.3937  0.9394  1.0593
19529TIP3   OH280077   1.108   5.005   2.507  0.2083 -0.2969  0.0994
19529TIP3    H180078   1.130   4.912   2.510 -1.3054 -0.6669  0.0791
19529TIP3    H280079   1.192   5.050   2.520  0.8055 -1.6657  1.1277
19530TIP3   OH280080   6.594   6.282   2.504  0.4867 -0.0931 -0.2747
19530TIP3    H180081   6.579   6.190   2.485 -2.5326  0.9640 -3.4874
19530TIP3    H280082   6.548   6.298   2.587 -1.2054 -0.9009 -1.0387
19531TIP3   OH280083   4.674   0.762   1.195 -0.3327  0.3433  0.3374
19531TIP3    H180084   4.608   0.716   1.143  0.4860  0.5122 -0.8613
19531TIP3    H280085   4.687   0.706   1.272 -1.8275  0.2869  0.5525
19532TIP3   OH280086   0.136   2.082  10.859  0.3873  0.5180 -0.0212
19532TIP3    H180087   0.112   2.056  10.948 -0.4898  1.5829  0.0636
19532TIP3    H280088   0.088   2.022  10.803 -1.5460  1.8110  0.1796
19533TIP3   OH280089   4.384   5.903   4.074  0.5589  0.1753 -0.0200
19533TIP3    H180090   4.383   5.954   3.993 -1.1841 -3.2393 -2.2393
19533TIP3    H280091   4.471   5.918   4.110  1.0399  2.5153 -2.0058
19534TIP3   OH280092   1.991   2.786  11.703 -0.6532 -0.0147 -0.1242
19534TIP3    H180093   1.967   2.851  11.637  0.4511 -0.0352 -0.5525
19534TIP3    H280094   1.920   2.722  11.700 -1.7170  1.1407  0.2645
19535TIP3   OH280095   6.352   0.730  11.043 -0.5266  0.0005 -0.1821
19535TIP3    H180096   6.435   0.757  11.082 -0.7907  1.0916 -0.3473
19535TIP3    H280097   6.327   0.804  10.988 -0.5536 -1.1821 -1.7966
19536TIP3   OH280098   3.329   1.102   5.022 -0.4478  0.3418 -0.1684
19536TIP3    H180099   3.419   1.132   5.011  0.6129 -3.1524 -1.6488
19536TIP3    H280100   3.323   1.075   5.113 -0.4407  1.7395  0.2721
19537TIP3   OH280101   6.374   3.536  16.155  0.0667 -0.1299 -0.7007
19537TIP3    H180102   6.465   3.529  16.185 -0.4434 -0.1535  0.9105
19537TIP3    H280103   6.373   3.490  16.072  1.6774  0.4248 -1.0587
19538TIP3   OH280104   2.288   4.936  14.337  0.0947 -0.0013  0.3351
19538TIP3    H180105   2.242   4.875  14.280 -1.9680 -0.7519  2.7089
19538TIP3    H280106   2.261   5.023  14.307 -3.1450 -0.4224  1.7835
19539TIP3   OH280107   0.839   2.768   3.310  0.4532 -0.5698  1.0254
19539TIP3    H180108   0.814   2.739   3.222 -0.5376  2.0817  0.3946
19539TIP3    H280109   0.763   2.748   3.364  0.4014 -0.6166  0.9359
19540TIP3   OH280110   2.519   4.600   5.320 -0.0245  0.2086 -0.3732
19540TIP3    H180111   2.512   4.515   5.278 -0.1629  0.0837 -0.0962
19540TIP3    H280112   2.431   4.620   5.351 -0.5987  1.7346 -2.9083
19541TIP3   OH280113   5.163   6.030   1.384  0.2974 -0.1946 -0.2989
19541TIP3    H180114   5.181   6.072   1.300 -1.6748  0.5811 -0.3627
19541TIP3    H280115   5.077   5.990   1.372  0.2041 -0.4664  1.2094
19542TIP3   OH280116   5.399   4.812   2.270  0.4746  0.0168 -0.0595
19542TIP3    H180117   5.462   4.815   2.342 -0.1610 -0.8847  0.5430
19542TIP3    H280118   5.331   4.752   2.300 -0.2950  0.3951 -1.0112
19543TIP3   OH280119   2.173   1.480  14.512 -0.6182  0.4249  0.2666
19543TIP3    H180120   2.156   1.548  14.577 -0.7481  0.8318 -0.1893
19543TIP3    H280121   2.218   1.526  14.441 -0.0255 -0.1147  0.2836
19544TIP3   OH280122   5.725   0.527  16.078  0.6403 -0.3098 -0.0407
19544TIP3    H180123   5.774   0.524  16.160  0.8265 -1.0838 -0.1688
19544TIP3    H280124   5.792   0.531  16.010  0.5114 -0.5185 -0.1824
19545TIP3   OH280125   1.119   6.432   3.001  0.0588 -0.0539  0.3575
19545TIP3    H180126   1.074   6.435   3.085  0.4666  0.7336  0.5543
19545TIP3    H280127   1.061   6.382   2.944 -2.0623  2.7290  0.0181
19546TIP3   OH280128   0.635   3.071  13.439 -0.1252  0.3914 -0.1510
19546TIP3    H180129   0.664   3.060  13.348  0.7424  0.7970  0.0673
19546TIP3    H280130   0.688   3.007  13.488 -0.3500  0.4083  0.1100
19547TIP3   OH280131   2.020   5.462  15.092 -0.0931  0.7028 -0.0277
19547TIP3    H180132   1.944   5.433  15.043  0.0975 -2.4408  1.4418
19547TIP3    H280133   2.095   5.425  15.045  0.3352  0.8906  0.4911
19548TIP3   OH280134   6.546   6.289  15.499  0.4132 -0.1333  0.0325
19548TIP3    H180135   6.563   6.375  15.537 -0.4251  0.1689 -0.2624
19548TIP3    H280136   6.632   6.257  15.472  1.0912 -0.5164  2.4953
19549TIP3   OH280137   5.547   0.932  11.442  0.3035  0.7219  0.1336
19549TIP3    H180138   5.637   0.900  11.446  1.6859  3.8238 -3.0308
19549TIP3    H280139   5.522   0.918  11.351 -1.6559  1.8661  0.4923
19550TIP3   OH280140   5.448   2.362   2.717 -0.0875 -0.5780  0.0165
19550TIP3    H180141   5.405   2.331   2.796 -0.5688 -1.6184 -0.6482
19550TIP3    H280142   5.387   2.426   2.680  0.7128  0.8940  1.1524
19551TIP3   OH280143   5.339   4.117  11.528 -0.5645 -0.0582 -0.0885
19551TIP3    H180144   5.355   4.205  11.495 -0.9159  0.4897  1.2074
19551TIP3    H280145   5.405   4.103  11.595  0.2651 -1.2584 -1.1119
19552TIP3   OH280146   3.294   5.221   6.383 -0.3500 -0.1340  0.6100
19552TIP3    H180147   3.319   5.149   6.324  1.4763  1.2051 -0.3200
19552TIP3    H280148   3.366   5.284   6.375 -2.7867  2.6963 -0.0846
19553TIP3   OH280149   6.140   2.244   2.372  0.2356 -0.1871 -0.4073
19553TIP3    H180150   6.192   2.301   2.315 -0.3480  0.7245 -0.0370
19553TIP3    H280151   6.051   2.276   2.363  0.0475 -0.4327  0.5496
19554TIP3   OH280152   5.979   6.707   0.561  0.3172  0.0086  0.0444
19554TIP3    H180153   5.897   6.745   0.593  0.2725 -1.2014  1.4015
19554TIP3    H280154   6.019   6.667   0.638  2.7769  1.6217 -0.3312
19555TIP3   OH280155   5.709   1.201   8.718  0.8903 -0.6366 -0.0830
19555TIP3    H180156   5.760   1.280   8.735 -0.1841  0.1195 -0.3119
19555TIP3    H280157   5.631   1.232   8.672 -0.5937 -1.5593  1.7483
19556TIP3   OH280158   0.078   2.144   2.342  0.0264 -0.0461  0.2608
19556TIP3    H180159   0.020   2.070   2.325 -0.9023  1.4499 -3.6490
19556TIP3    H280160   0.111   2.169   2.255  0.9149  3.5757  1.5509
19557TIP3   OH280161   1.673   6.620  16.957 -0.3365 -0.0733  0.3857
19557TIP3    H180162   1.614   6.657  16.892 -2.7188 -0.2355  2.3641
19557TIP3    H280163   1.693   6.532  16.924 -0.7856  0.1819 -0.5745
19558TIP3   OH280164   2.510   6.744   0.648 -0.3317  0.5010  0.4800
19558TIP3    H180165   2.478   6.790   0.570 -1.9193  0.0908  0.8673
19558TIP3    H280166   2.435   6.693   0.678  0.5942 -0.2019  1.6516
19559TIP3   OH280167   4.155   4.270   0.103 -0.5905 -0.0684  0.2127
19559TIP3    H180168   4.185   4.184   0.073  0.3570  0.3742 -0.1205
19559TIP3    H280169   4.127   4.315   0.023 -1.1698 -0.0914  0.3973
19560TIP3   OH280170   2.489   4.055  11.233 -0.5219  0.9097 -0.2461
19560TIP3    H180171   2.411   4.050  11.179 -0.4218  0.9266 -0.3916
19560TIP3    H280172   2.555   4.097  11.178 -0.1912  0.2134 -0.3885
19561TIP3   OH280173   6.294   2.766  12.036 -0.2457 -0.4133  0.1182
19561TIP3    H180174   6.245   2.829  11.983 -1.0906 -0.1220  1.2483
19561TIP3    H280175   6.384   2.800  12.034 -0.4362  0.0822 -0.3861
19562TIP3   OH280176   1.770   5.515   3.590 -0.0895  0.2187  0.4528
19562TIP3    H180177   1.811   5.548   3.670 -0.6075  1.9827  0.0022
19562TIP3    H280178   1.843   5.492   3.533  0.2903 -1.0756  1.4117
19563TIP3   OH280179   3.870   3.979   4.535 -0.1882 -0.3428  0.1966
19563TIP3    H180180   3.804   4.005   4.471  0.1312 -0.1347 -0.0452
19563TIP3    H280181   3.825   3.915   4.590 -0.9081  0.5199  0.6401
19564TIP3   OH280182   4.900   4.807  15.893 -0.1899  0.7223 -0.2945
19564TIP3    H180183   4.972   4.869  15.891  0.0263  0.4653 -0.5205
19564TIP3    H280184   4.939   4.726  15.927 -0.6196  0.9015  0.6537
19565TIP3   OH280185   6.005   0.993  15.474  0.2721 -0.1489 -0.0632
19565TIP3    H180186   5.999   0.915  15.529 -0.0544  0.6246  0.9967
19565TIP3    H280187   6.089   1.033  15.497 -0.1286  0.4906  0.2991
19566TIP3   OH280188   0.168   0.313   2.491  0.1440  0.4938 -0.5069
19566TIP3    H180189   0.167   0.222   2.521  0.9020  0.5219 -0.3718
19566TIP3    H280190   0.183   0.307   2.397 -0.2038  0.4627 -0.5585
19567TIP3   OH280191   1.797   6.327   2.962  0.8363  0.7509 -0.2798
19567TIP3    H180192   1.827   6.239   2.940  1.8179  1.3634 -1.4711
19567TIP3    H280193   1.868   6.363   3.016  0.2509  0.6742  0.5479
19568TIP3   OH280194   0.419   4.289   1.968 -0.1098 -0.3819  0.4202
19568TIP3    H180195   0.394   4.320   1.881 -0.2999 -0.1595  0.5555
19568TIP3    H280196   0.340   4.247   2.002 -0.4232  0.6779  1.0103
19569TIP3   OH280197   0.788   2.743  15.737 -0.3221  0.3556  0.2079
19569TIP3    H180198   0.756   2.659  15.770  2.4856 -0.5460  0.7428
19569TIP3    H280199   0.774   2.804  15.809  0.2398 -0.2820  0.8589
19570TIP3   OH280200   0.084   1.823   1.309  0.1908  0.3351  0.3252
19570TIP3    H180201   0.092   1.812   1.214  0.0022 -0.5515  0.3997
19570TIP3    H280202   0.007   1.878   1.321 -0.3936 -0.3999 -0.0104
19571TIP3   OH280203   3.471   6.076  15.308  0.3163  0.7363  0.4552
19571TIP3    H180204   3.540   6.115  15.255  0.5406 -0.9386 -0.5297
19571TIP3    H280205   3.402   6.054  15.246 -0.3217  0.6877  1.1671
19572TIP3   OH280206   0.820   5.624   2.804  0.0951 -0.6492 -0.0853
19572TIP3    H180207   0.739   5.652   2.847  0.7845  0.1924  0.6945
19572TIP3    H280208   0.792   5.590   2.719 -0.9746  0.5927 -0.2427
19573TIP3   OH280209   0.121   5.600  13.797 -0.2365  0.2119  0.0084
19573TIP3    H180210   0.073   5.537  13.743 -1.4045  0.2035  1.0448
19573TIP3    H280211   0.141   5.672  13.738 -0.5768 -0.2687 -0.6978
19574TIP3   OH280212   2.713   1.816   0.781  0.7050 -0.3063 -1.0471
19574TIP3    H180213   2.735   1.826   0.873 -0.8716  1.1321 -0.8150
19574TIP3    H280214   2.794   1.838   0.735  1.3782 -0.6282 -0.0455
19575TIP3   OH280215   2.985   4.132  14.823 -0.6735  0.1912  0.1385
19575TIP3    H180216   2.957   4.149  14.733  1.4964 -0.2943 -0.6600
19575TIP3    H280217   2.992   4.036  14.829 -0.6181  0.2277  0.7680
19576TIP3   OH280218   6.514   2.682  16.915  0.3834  0.4437 -0.4661
19576TIP3    H180219   6.606   2.704  16.932  0.0967  1.9654 -0.8081
19576TIP3    H280220   6.464   2.741  16.972 -0.3795 -0.7708  0.1409
19577TIP3   OH280221   4.802   3.027  10.377  0.3104 -0.1829  0.4972
19577TIP3    H180222   4.745   2.969  10.326 -0.0800 -0.1220  0.8666
19577TIP3    H280223   4.784   3.005  10.468 -0.5895  1.2308  0.6623
19578TIP3   OH280224   5.164   0.831  15.094  0.0539  0.0912 -0.1180
19578TIP3    H180225   5.107   0.759  15.068 -0.7701  0.9046 -0.6349
19578TIP3    H280226   5.237   0.790  15.139  0.0735 -1.1488 -1.2406
19579TIP3   OH280227   6.374   5.470   1.683  0.3883  0.4224  0.0950
19579TIP3    H180228   6.292   5.434   1.650  0.1883  0.0126  1.0127
19579TIP3    H280229   6.366   5.565   1.671 -1.4324  0.6576  2.8324
19580TIP3   OH280230   3.740   3.704   4.736  0.5627  0.0839 -0.1935
19580TIP3    H180231   3.687   3.631   4.769 -0.3184  0.9304  0.3072
19580TIP3    H280232   3.680   3.754   4.681  0.2890  2.0464  1.7971
19581TIP3   OH280233   4.488   6.491   3.664  0.3636  0.6882  0.2301
19581TIP3    H180234   4.399   6.508   3.633  0.2106  0.1710  0.3717
19581TIP3    H280235   4.526   6.577   3.679  0.7174  0.9846 -2.2057
19582TIP3   OH280236   3.272   3.648  15.318  0.5580  0.1287  0.7437
19582TIP3    H180237   3.294   3.736  15.348  0.5027 -0.2419  1.8830
19582TIP3    H280238   3.239   3.603  15.396  0.7250 -0.9522  0.2050
19583TIP3   OH280239   1.759   2.560   0.977  0.0273 -0.3974  0.6033
19583TIP3    H180240   1.795   2.612   0.905  1.2940 -0.8375  0.9172
19583TIP3    H280241   1.673   2.531   0.945  0.4590 -0.3560 -0.6092
19584TIP3   OH280242   0.163   4.176  16.358 -0.1320 -0.1415 -0.2964
19584TIP3    H180243   0.141   4.248  16.419  0.4926  0.2019 -0.4729
19584TIP3    H280244   0.221   4.216  16.294 -1.0453 -0.4319 -1.3110
19585TIP3   OH280245   1.288   6.582  16.403 -0.4574  0.1712  0.5367
19585TIP3    H180246   1.247   6.579  16.317 -0.6094 -2.0629  0.6601
19585TIP3    H280247   1.255   6.505  16.448 -0.9919  1.7310  2.9130
19586TIP3   OH280248   2.371   1.994  16.195  0.0561  0.0384  0.0062
19586TIP3    H180249   2.345   2.067  16.139 -1.2063 -1.2955 -1.1807
19586TIP3    H280250   2.309   1.998  16.269 -1.3820 -1.0651 -1.1061
19587TIP3   OH280251   0.861   6.609   1.077 -0.3431  0.3015 -0.4102
19587TIP3    H180252   0.924   6.602   1.148 -1.1315  0.7290  0.3486
19587TIP3    H280253   0.886   6.688   1.029  0.3790 -0.1617 -0.8022
19588TIP3   OH280254   6.702   2.649  12.796  0.0751 -0.6079  0.2300
19588TIP3    H180255   6.748   2.567  12.815  0.7928 -0.3556 -0.4305
19588TIP3    H280256   6.731   2.674  12.709 -0.8388 -0.1165  0.0546
19589TIP3   OH280257   6.148   2.964  11.890  0.4954 -0.6878 -0.1461
19589TIP3    H180258   6.132   3.042  11.837  1.7405 -2.5156 -3.3101
19589TIP3    H280259   6.068   2.954  11.942 -0.5508  1.4477 -1.2873
19590TIP3   OH280260   0.868   5.490  13.281  0.1422  0.4623 -0.0804
19590TIP3    H180261   0.931   5.441  13.333  0.1322 -0.4712 -0.9330
19590TIP3    H280262   0.783   5.472  13.321 -0.0982 -1.7716 -1.5280
19591TIP3   OH280263   4.521   2.370  13.425 -0.7667 -0.1208  0.1571
19591TIP3    H180264   4.605   2.401  13.390 -0.3409 -2.3085 -0.8716
19591TIP3    H280265   4.531   2.374  13.520 -0.0824  1.1087  0.0416
19592TIP3   OH280266   0.865   5.182   3.655  0.4159 -0.3411  0.4780
19592TIP3    H180267   0.792   5.230   3.615  0.7767  0.8963  1.2612
19592TIP3    H280268   0.929   5.173   3.584  1.3323  2.4200  0.9160
19593TIP3   OH280269   5.662   1.571  16.298  0.1935 -0.1490  0.1221
19593TIP3    H180270   5.622   1.586  16.212 -0.5197 -3.0911 -0.0856
19593TIP3    H280271   5.736   1.513  16.280  1.0372  0.5446  1.3027
19594TIP3   OH280272   6.812   3.850  14.030  0.1419  0.4336  0.0232
19594TIP3    H180273   6.796   3.845  14.124 -3.1926 -0.6177 -0.5404
19594TIP3    H280274   6.874   3.779  14.012  0.9891  0.7882  1.4185
19595TIP3   OH280275   2.248   2.720   1.487 -0.5754  0.3698 -0.1358
19595TIP3    H180276   2.209   2.724   1.400 -0.5191  0.2642 -0.1654
19595TIP3    H280277   2.298   2.638   1.488  0.3268  0.9080 -0.3826
19596TIP3   OH280278   5.369   4.780  16.390  0.1195  0.6865 -0.7353
19596TIP3    H180279   5.296   4.729  16.426 -0.1878  1.0057 -0.9060
19596TIP3    H280280   5.436   4.777  16.458  1.0748 -2.0177 -1.7250
19597TIP3   OH280281   0.500   4.576  16.158  0.1681  0.1105 -0.1414
19597TIP3    H180282   0.463   4.614  16.079  0.4578  2.2120  0.7116
19597TIP3    H280283   0.450   4.614  16.230  1.2864 -0.1566  0.8094
19598TIP3   OH280284   6.130   3.756   4.344  0.5737  0.0096 -0.1091
19598TIP3    H180285   6.223   3.773   4.352  0.1595  1.5952  1.8320
19598TIP3    H280286   6.097   3.760   4.434 -1.4320 -0.0679 -0.8131
19599TIP3   OH280287   2.818   3.956   4.825  0.3888  0.1572  0.7473
19599TIP3    H180288   2.905   3.927   4.796 -0.2521 -2.2299  1.0919
19599TIP3    H280289   2.835   4.030   4.883  2.1656  0.0337  0.4075
19600TIP3   OH280290   3.249   5.936   3.430 -0.6277  0.4553 -0.9268
19600TIP3    H180291   3.220   5.956   3.341  0.0880 -0.5248 -1.3940
19600TIP3    H280292   3.306   6.009   3.453 -0.7573  0.6799 -1.3013
19601TIP3   OH280293   1.089   4.462  17.147 -0.0346 -0.1106 -0.4683
19601TIP3    H180294   1.145   4.400  17.102  0.1540  1.1975 -2.0604
19601TIP3    H280295   1.030   4.495  17.079 -1.4525 -0.0151  0.7705
19602TIP3   OH280296   1.750   3.470   2.088  0.3388  0.3461  0.3890
19602TIP3    H180297   1.734   3.528   2.162  0.0905 -0.1733  0.7444
19602TIP3    H280298   1.669   3.420   2.079  1.2986 -1.4201  1.4126
19603TIP3   OH280299   6.487   0.706   1.025  0.0491 -0.2880 -0.0308
19603TIP3    H180300   6.472   0.757   1.105 -1.0998 -0.5967 -0.0417
19603TIP3    H280301   6.573   0.734   0.995  0.4495 -0.0896  1.2577
19604TIP3   OH280302   6.279   2.053  12.703 -0.1824  0.1384  0.2841
19604TIP3    H180303   6.312   2.027  12.789  0.8413 -0.3704 -0.2544
19604TIP3    H280304   6.259   2.146  12.712  0.6031  0.2521  0.8711
19605TIP3   OH280305   1.381   4.322  11.835 -0.2273  0.2971  0.0220
19605TIP3    H180306   1.456   4.292  11.888 -0.2287 -1.4472 -0.9136
19605TIP3    H280307   1.326   4.244  11.827 -1.0511  1.0009 -1.1626
19606TIP3   OH280308   3.005   0.709  15.636 -0.7871  0.0298  0.8785
19606TIP3    H180309   2.959   0.738  15.557  1.5983  0.6856 -0.2973
19606TIP3    H280310   3.074   0.651  15.603  1.5552  1.9738  2.2851
19607TIP3   OH280311   4.658   4.773   4.590 -0.0762 -0.3355 -0.7252
19607TIP3    H180312   4.600   4.828   4.536  1.1627  2.2986  0.5205
19607TIP3    H280313   4.655   4.814   4.677  0.6820 -2.4348  0.3076
19608TIP3   OH280314   4.411   4.047  14.642  0.2826  0.0415 -0.3773
19608TIP3    H180315   4.465   4.067  14.719  1.5482 -1.7813 -0.7642
19608TIP3    H280316   4.397   4.132  14.600  3.3700  0.4832 -0.5988
19609TIP3   OH280317   4.008   6.417  14.731 -0.2285  0.0087  0.0903
19609TIP3    H180318   3.949   6.454  14.665 -0.0584  3.7932  1.9652
19609TIP3    H280319   4.096   6.436  14.699 -0.0395 -1.7599 -0.5306
19610TIP3   OH280320   0.112   3.043  11.563 -0.2886 -0.4007  0.0394
19610TIP3    H180321   0.162   3.069  11.486 -0.4723 -0.9920 -0.2858
19610TIP3    H280322   0.087   2.952  11.546 -2.1992  0.1535 -0.1756
19611TIP3   OH280323   2.466   2.352  14.362 -0.1153  0.4414 -0.3342
19611TIP3    H180324   2.482   2.334  14.455  0.2613  2.3004 -0.0280
19611TIP3    H280325   2.491   2.270  14.318 -1.6677 -0.9600  1.3108
19612TIP3   OH280326   6.616   2.185  10.961 -0.0537  0.1046  0.2781
19612TIP3    H180327   6.599   2.277  10.983  1.3906  0.1599  1.2401
19612TIP3    H280328   6.647   2.188  10.870 -0.7946  0.4822  0.0388
19613TIP3   OH280329   4.578   1.858   0.465  0.2039  0.0666 -0.4039
19613TIP3    H180330   4.582   1.910   0.384  2.8375 -0.4342 -0.6410
19613TIP3    H280331   4.528   1.913   0.525 -0.3577  1.1843 -1.8358
19614TIP3   OH280332   5.957   4.977   5.031  0.3058  0.1372  0.3042
19614TIP3    H180333   5.982   5.019   4.949 -0.2182 -1.0481 -0.4810
19614TIP3    H280334   5.891   5.035   5.069  0.2596  0.4811 -0.2978
19615TIP3   OH280335   5.128   4.406  14.552 -0.2330  0.0795  0.2368
19615TIP3    H180336   5.186   4.474  14.586  1.5629  0.1833 -2.8637
19615TIP3    H280337   5.148   4.329  14.605  1.3802  0.6310  0.4651
19616TIP3   OH280338   2.542   5.118   0.424  0.4196 -0.3874  0.2055
19616TIP3    H180339   2.612   5.183   0.419 -1.0301  1.0717 -1.8498
19616TIP3    H280340   2.470   5.164   0.466 -0.4244 -0.8632 -0.7178
19617TIP3   OH280341   6.484   1.604  11.516 -0.0166 -0.1650 -0.1871
19617TIP3    H180342   6.487   1.598  11.611  0.1075  1.6265 -0.0769
19617TIP3    H280343   6.437   1.524  11.489 -0.3442 -0.5145  1.3764
19618TIP3   OH280344   1.793   5.925  16.067 -0.5480  0.2415 -0.2384
19618TIP3    H180345   1.730   5.856  16.086  0.3243 -0.2633  0.8242
19618TIP3    H280346   1.762   6.000  16.117  0.3069 -0.3285  1.1462
19619TIP3   OH280347   3.633   3.714  13.081 -0.7020 -0.1464  0.2453
19619TIP3    H180348   3.623   3.804  13.112 -0.0129  0.0241 -0.0067
19619TIP3    H280349   3.618   3.660  13.158  2.2505  0.3137  1.2377
19620TIP3   OH280350   4.708   4.597  12.746  0.2384 -0.2759 -0.9618
19620TIP3    H180351   4.783   4.610  12.687 -0.1111 -0.4505 -1.4462
19620TIP3    H280352   4.642   4.554  12.692 -0.4669  0.4877 -0.7231
19621TIP3   OH280353   3.009   2.815   4.092 -0.1670 -0.5409 -0.0958
19621TIP3    H180354   2.934   2.801   4.150 -1.2648 -1.2938 -1.6683
19621TIP3    H280355   3.031   2.727   4.059  0.6745 -0.1758 -0.5283
19622TIP3   OH280356   3.552   3.766  12.790 -0.0994 -0.3632 -0.3546
19622TIP3    H180357   3.522   3.850  12.824 -0.9724  0.2550 -2.5818
19622TIP3    H280358   3.646   3.778  12.775  0.5251 -0.9662  2.6658
19623TIP3   OH280359   4.810   4.290  16.222  0.7777 -0.0792 -0.4730
19623TIP3    H180360   4.870   4.238  16.168  1.0331 -0.0005 -0.2584
19623TIP3    H280361   4.866   4.342  16.279  0.4975 -1.0918  0.7560
19624TIP3   OH280362   1.668   5.490  12.138 -0.2601 -0.1111  0.2206
19624TIP3    H180363   1.594   5.550  12.139 -1.4534 -1.5589  0.9498
19624TIP3    H280364   1.684   5.470  12.230  1.8130  1.0990  0.1527
19625TIP3   OH280365   6.449   2.693  15.016  0.0821 -0.6925 -0.2023
19625TIP3    H180366   6.525   2.676  14.960 -0.8378  1.6749 -2.2741
19625TIP3    H280367   6.459   2.784  15.043 -2.2466 -0.1865 -0.9007
19626TIP3   OH280368   2.607   6.420   5.827 -0.1305  0.2071  0.3909
19626TIP3    H180369   2.575   6.407   5.917 -3.2064 -2.1187 -0.9446
19626TIP3    H280370   2.616   6.331   5.792 -2.2718  1.1222 -2.6865
19627TIP3   OH280371   6.299   1.096  14.117 -0.0627 -0.5906 -0.5241
19627TIP3    H180372   6.250   1.047  14.183 -2.5115  1.4621 -0.6939
19627TIP3    H280373   6.297   1.040  14.039 -1.4238 -0.9273 -0.2620
19628TIP3   OH280374   4.714   3.079   4.562  0.2897  0.4423  0.1254
19628TIP3    H180375   4.783   3.145   4.567 -1.1250  1.8248  1.9348
19628TIP3    H280376   4.632   3.128   4.573 -0.9656 -1.2397 -1.3732
19629TIP3   OH280377   5.065   1.378  11.427  0.5645 -0.0238 -0.7152
19629TIP3    H180378   5.049   1.299  11.478  1.6706  0.7913  0.9513
19629TIP3    H280379   5.022   1.362  11.343  1.2371 -2.5956 -0.6042
19630TIP3   OH280380   4.872   2.234  12.358  0.7284  0.5999  0.4320
19630TIP3    H180381   4.850   2.325  12.378  1.8507  1.7870 -3.2632
19630TIP3    H280382   4.951   2.240  12.303 -0.5470 -2.4412 -1.8734
19631TIP3   OH280383   0.760   3.307   5.740 -0.0229 -0.3401  0.0360
19631TIP3    H180384   0.727   3.348   5.820  1.5234  0.1350  0.4608
19631TIP3    H280385   0.731   3.216   5.745  2.8494 -1.2045  2.8186
19632TIP3   OH280386   5.760   1.799   4.926  0.3198  0.4295  0.0957
19632TIP3    H180387   5.685   1.741   4.909 -0.7535  1.2549  1.9764
19632TIP3    H280388   5.726   1.866   4.985  2.3009  1.3698  0.1913
19633TIP3   OH280389   3.827   0.923  11.716  0.0550 -0.0975  0.8698
19633TIP3    H180390   3.814   0.857  11.648  0.7154 -1.1693  1.7701
19633TIP3    H280391   3.751   0.913  11.773 -0.7392  1.1155  0.0608
19634TIP3   OH280392   2.171   5.871   5.668  0.5689 -0.5712  0.3780
19634TIP3    H180393   2.221   5.844   5.746  1.5686  0.6895  0.1848
19634TIP3    H280394   2.208   5.818   5.597 -0.3910 -1.7753  0.7481
19635TIP3   OH280395   1.445   0.454  10.505 -0.2026  0.1365  0.2216
19635TIP3    H180396   1.513   0.387  10.495  0.8164  1.4301 -1.8006
19635TIP3    H280397   1.494   0.535  10.519 -1.3214  1.1384 -1.6169
19636TIP3   OH280398   3.689   6.273   1.054  0.2724  0.2240 -0.5537
19636TIP3    H180399   3.638   6.219   1.114 -1.0750  0.7659 -1.2030
19636TIP3    H280400   3.648   6.259   0.969  0.1059  2.0529 -0.7773
19637TIP3   OH280401   3.574   3.834   5.647 -0.5019  0.4196  0.1859
19637TIP3    H180402   3.617   3.767   5.594 -1.7257  1.4643 -2.2007
19637TIP3    H280403   3.545   3.787   5.725 -0.0389 -1.5133 -0.7599
19638TIP3   OH280404   5.393   1.298  15.550  0.1295 -0.3276  0.5002
19638TIP3    H180405   5.486   1.313  15.533 -0.3698  0.2309 -1.8068
19638TIP3    H280406   5.370   1.362  15.617  1.5891 -1.0194  1.6869
19639TIP3   OH280407   1.377   1.166   3.233 -0.1703 -0.0605 -0.1486
19639TIP3    H180408   1.296   1.122   3.209 -0.1013 -0.4349  0.3045
19639TIP3    H280409   1.409   1.203   3.151 -1.0301  0.4736 -0.2503
19640TIP3   OH280410   6.356   2.609   3.101 -0.0660 -0.0858  0.0091
19640TIP3    H180411   6.333   2.520   3.129 -0.2746 -0.1934 -0.5065
19640TIP3    H280412   6.380   2.600   3.009 -0.2234  0.4163 -0.0813
19641TIP3   OH280413   4.356   5.171  11.977  0.1629  0.1490  0.3579
19641TIP3    H180414   4.353   5.118  12.057 -1.4202 -1.3246 -0.6438
19641TIP3    H280415   4.441   5.151  11.938  1.8167  2.4313  2.6693
19642TIP3   OH280416   2.880   2.998  11.695 -0.0127  0.3905  0.2149
19642TIP3    H180417   2.974   2.984  11.704 -0.1001 -0.6920 -0.4527
19642TIP3    H280418   2.872   3.071  11.634  0.4082  1.3380  1.2739
19643TIP3   OH280419   6.038   2.491   2.966 -0.0773  0.0244 -0.2491
19643TIP3    H180420   6.022   2.484   3.060  0.0380  0.6909 -0.1762
19643TIP3    H280421   5.970   2.437   2.926 -0.8504  0.6654  0.1768
19644TIP3   OH280422   1.809   4.069   2.200 -0.1537 -0.0100 -0.4170
19644TIP3    H180423   1.820   4.163   2.189 -0.0663  0.1768  1.2221
19644TIP3    H280424   1.738   4.060   2.263  1.4738 -0.9970  1.3229
19645TIP3   OH280425   6.768   5.611  12.235 -0.1412  0.9570  0.3968
19645TIP3    H180426   6.787   5.517  12.230 -3.2148  0.3288 -0.3263
19645TIP3    H280427   6.833   5.652  12.177  0.6006 -0.8085 -0.0374
19646TIP3   OH280428   0.034   6.148   1.384  0.0463 -0.1574  0.2178
19646TIP3    H180429   0.091   6.112   1.452 -1.5868  1.9281  2.8082
19646TIP3    H280430   0.093   6.188   1.321  1.5522 -0.7717  1.2197
19647TIP3   OH280431   5.100   2.984   2.047  0.3643  0.7749 -0.2768
19647TIP3    H180432   5.023   2.997   2.102  1.7418  1.7359  1.4570
19647TIP3    H280433   5.105   3.063   1.994 -0.6024  0.1216 -1.3651
19648TIP3   OH280434   0.999   5.908  16.296 -0.3127 -0.3389 -0.4857
19648TIP3    H180435   1.014   5.956  16.214  3.1809 -0.5550 -0.0601
19648TIP3    H280436   1.033   5.967  16.364 -0.5850 -1.3425  0.5275
19649TIP3   OH280437   2.616   6.153   5.406  0.4984  0.0532 -0.4869
19649TIP3    H180438   2.661   6.082   5.361 -0.2813 -1.4420  0.9987
19649TIP3    H280439   2.565   6.196   5.339  0.8127 -0.9459 -1.3819
19650TIP3   OH280440   2.191   1.874  16.689  0.1324  0.3456 -0.1015
19650TIP3    H180441   2.214   1.944  16.749 -1.2358 -0.9538  1.9986
19650TIP3    H280442   2.107   1.841  16.720 -1.2113  0.3771 -3.4275
19651TIP3   OH280443   4.771   3.083   5.357 -0.6831  0.1940  0.0193
19651TIP3    H180444   4.754   3.042   5.272 -0.5553 -2.3927  1.2039
19651TIP3    H280445   4.866   3.095   5.359 -0.7938  1.2313 -0.6200
19652TIP3   OH280446   6.583   0.817  17.172  0.3839  0.0300  0.2976
19652TIP3    H180447   6.612   0.784  17.087 -0.2472  1.1038 -0.3326
19652TIP3    H280448   6.576   0.738  17.227 -0.1571 -0.7782 -0.9138
19653TIP3   OH280449   2.821   3.474   4.985 -0.5374  1.0119  0.5316
19653TIP3    H180450   2.797   3.546   4.926  3.6462  0.6881 -1.7794
19653TIP3    H280451   2.791   3.395   4.940  0.6084  0.9333 -0.1372
19654TIP3   OH280452   1.469   2.168   5.777  0.0646  0.3775  0.3012
19654TIP3    H180453   1.523   2.093   5.803 -0.8773 -0.9514 -1.4813
19654TIP3    H280454   1.532   2.230   5.740  0.8395  0.4432  1.6952
19655TIP3   OH280455   0.873   5.091   4.108  0.0914  0.1501  0.2758
19655TIP3    H180456   0.796   5.140   4.135  0.3231  2.1961 -2.4315
19655TIP3    H280457   0.854   5.064   4.018  1.9832 -0.4473  0.0206
19656TIP3   OH280458   3.059   0.145   5.891 -0.0506 -0.7318  0.6389
19656TIP3    H180459   3.047   0.198   5.969  1.8128  1.9376 -0.8019
19656TIP3    H280460   3.075   0.057   5.924  2.3166  0.6211  3.3811
19657TIP3   OH280461   2.346   2.260  17.062  0.4035 -0.3861 -0.5101
19657TIP3    H180462   2.316   2.281  17.150 -1.9665  0.3132 -1.4449
19657TIP3    H280463   2.396   2.178  17.072 -0.0403 -0.4270  1.4219
19658TIP3   OH280464   5.444   1.627   5.782 -0.0939  0.0210 -0.1008
19658TIP3    H180465   5.469   1.534   5.788  1.6656  0.5041  0.5958
19658TIP3    H280466   5.414   1.649   5.870  0.5742  0.3967  0.0351
19659TIP3   OH280467   2.008   4.739  15.046  0.3504  0.0733  0.4421
19659TIP3    H180468   2.041   4.823  15.013 -0.7363  0.7534  1.0642
19659TIP3    H280469   1.954   4.762  15.121  1.8851 -1.3722  2.0408
19660TIP3   OH280470   5.237   6.650  10.646 -0.1592  0.7408  0.2941
19660TIP3    H180471   5.259   6.742  10.662  1.1761  0.4743  0.1067
19660TIP3    H280472   5.245   6.641  10.551  1.7925 -0.0470  0.4998
19661TIP3   OH280473   3.336   2.141  14.981  0.5348 -0.2006  0.3712
19661TIP3    H180474   3.264   2.199  15.006 -0.6665 -1.5191 -0.0076
19661TIP3    H280475   3.355   2.164  14.890 -0.6408 -1.1066 -0.1102
19662TIP3   OH280476   4.069   3.084   3.789 -0.5024  0.2119 -0.3930
19662TIP3    H180477   4.071   3.153   3.855  0.3150 -0.7185  0.5659
19662TIP3    H280478   4.136   3.022   3.817 -1.3619 -1.0755 -1.1428
19663TIP3   OH280479   2.245   5.866   1.380  0.8616 -0.1327  0.0953
19663TIP3    H180480   2.284   5.780   1.397  0.6977 -0.2768 -0.2551
19663TIP3    H280481   2.256   5.914   1.462  2.4845  0.0952 -0.2199
19664TIP3   OH280482   4.767   3.164  12.662  0.3446 -1.0090 -0.1721
19664TIP3    H180483   4.826   3.211  12.602 -0.6766 -0.0697 -0.4596
19664TIP3    H280484   4.790   3.196  12.749  1.2333 -1.7253 -0.1327
19665TIP3   OH280485   0.856   3.447   2.695 -0.0992 -0.4201 -0.0289
19665TIP3    H180486   0.796   3.493   2.635 -0.4495 -1.1243 -0.2292
19665TIP3    H280487   0.803   3.430   2.773  0.3723  0.5398  0.5075
19666TIP3   OH280488   0.965   5.928  12.877 -0.1040 -0.1123 -0.2684
19666TIP3    H180489   0.882   5.920  12.831 -0.7263  1.1958  0.6099
19666TIP3    H280490   0.996   6.015  12.856  1.1562 -0.6678 -0.7429
19667TIP3   OH280491   5.728   5.302  11.821  0.2203  0.0238  0.2577
19667TIP3    H180492   5.735   5.315  11.915  1.7195 -0.4903  0.2322
19667TIP3    H280493   5.636   5.278  11.806  0.1600 -0.6159  1.6703
19668TIP3   OH280494   1.124   0.403  12.276 -0.4616  0.1676  0.1574
19668TIP3    H180495   1.092   0.399  12.186 -0.6106 -0.5306  0.2364
19668TIP3    H280496   1.090   0.323  12.317 -0.9695  0.8230  1.0254
19669TIP3   OH280497   3.478   6.178   2.100  0.3526 -0.4962 -0.3170
19669TIP3    H180498   3.528   6.248   2.058  0.0439 -0.0771 -0.0035
19669TIP3    H280499   3.447   6.123   2.028  0.4605 -0.2133 -0.5788
19670TIP3   OH280500   4.989   5.967   0.117 -0.1243  0.2934 -0.0418
19670TIP3    H180501   4.894   5.979   0.126 -0.4950 -2.1187 -0.2561
19670TIP3    H280502   5.006   5.980   0.024 -0.2163  0.8317  0.0125
19671TIP3   OH280503   3.307   4.104   3.332  0.0367  0.6399 -0.5720
19671TIP3    H180504   3.308   4.026   3.388  0.6620  0.3724 -0.9611
19671TIP3    H280505   3.365   4.166   3.377 -1.0504  1.1650  0.1362
19672TIP3   OH280506   6.340   5.300  13.664  0.4691 -0.0648 -0.0316
19672TIP3    H180507   6.310   5.217  13.701  0.7579  0.1128  0.6027
19672TIP3    H280508   6.323   5.292  13.570  0.4166 -0.8085  0.0385
19673TIP3   OH280509   6.388   0.718   2.397 -0.0089  0.2610  0.5518
19673TIP3    H180510   6.356   0.754   2.480  0.2947 -0.6307  1.0636
19673TIP3    H280511   6.461   0.662   2.422 -0.6594 -0.9485 -0.2029
19674TIP3   OH280512   5.482   5.080   2.447  0.4656 -0.6276  0.5894
19674TIP3    H180513   5.453   5.114   2.532  0.9232 -0.8153  0.8268
19674TIP3    H280514   5.555   5.138   2.422  0.4383 -0.6738  0.4017
19675TIP3   OH280515   1.291   1.910  15.423 -0.4642  0.0454 -0.2534
19675TIP3    H180516   1.355   1.974  15.392 -1.7773  2.2070  1.3131
19675TIP3    H280517   1.341   1.853  15.481  0.0661  1.6883  0.9374
19676TIP3   OH280518   3.275   2.283  11.227  0.3661 -0.2935 -0.0674
19676TIP3    H180519   3.261   2.377  11.234  0.9937 -0.2076  0.1036
19676TIP3    H280520   3.188   2.244  11.237 -0.0915  0.3364 -1.4255
19677TIP3   OH280521   6.215   4.872   6.373  0.6240  0.1957  0.4330
19677TIP3    H180522   6.297   4.921   6.377  2.0279 -2.1483  2.1701
19677TIP3    H280523   6.189   4.860   6.464  0.0575 -1.7711  0.0440
19678TIP3   OH280524   3.489   1.506   3.469 -0.0766  0.2268 -0.1616
19678TIP3    H180525   3.532   1.475   3.389 -1.7530 -0.3536 -0.8634
19678TIP3    H280526   3.509   1.599   3.472  0.5367  0.1266 -0.9239
19679TIP3   OH280527   2.994   5.940   6.079  0.5900 -0.7219  0.0420
19679TIP3    H180528   2.914   5.940   6.027 -0.2406 -1.3713  1.3072
19679TIP3    H280529   2.984   5.867   6.139  1.5721 -0.0299  1.0667
19680TIP3   OH280530   1.781   6.568  14.649 -0.6918 -0.3652 -0.4071
19680TIP3    H180531   1.847   6.609  14.593 -2.0632  1.4032 -0.7743
19680TIP3    H280532   1.756   6.637  14.710 -1.6329 -1.2683  0.2272
19681TIP3   OH280533   2.523   6.199   2.384  0.1736 -0.1399  0.2709
19681TIP3    H180534   2.460   6.267   2.362  0.5109 -0.4630 -1.7979
19681TIP3    H280535   2.552   6.221   2.473 -2.2392  0.4385  0.9499
19682TIP3   OH280536   2.466   5.916   3.417 -0.4676  0.2944  0.0014
19682TIP3    H180537   2.415   5.989   3.453  2.1193  2.5234 -0.6342
19682TIP3    H280538   2.496   5.948   3.331  0.3738 -1.6912 -0.4785
19683TIP3   OH280539   3.573   2.372   2.513  0.0002  0.1952  0.4721
19683TIP3    H180540   3.498   2.433   2.509  0.5923  1.0648  2.1796
19683TIP3    H280541   3.533   2.287   2.530 -0.5139  1.1058  4.5215
19684TIP3   OH280542   3.570   5.183  13.752  0.4900  0.5512  0.0582
19684TIP3    H180543   3.517   5.191  13.673  0.4842  0.3728  0.0421
19684TIP3    H280544   3.513   5.213  13.823  0.9762  2.0614 -0.1723
19685TIP3   OH280545   3.704   1.076   5.561 -0.3742 -0.7508  0.2242
19685TIP3    H180546   3.634   1.066   5.496 -0.6465  0.1659  0.3698
19685TIP3    H280547   3.743   1.161   5.541 -1.6000  0.3410  2.3322
19686TIP3   OH280548   5.725   6.091  12.447  0.1644 -0.3901  0.3626
19686TIP3    H180549   5.750   6.000  12.459 -1.8135 -0.8181  1.4519
19686TIP3    H280550   5.721   6.102  12.352  2.0378 -0.9598  0.2083
19687TIP3   OH280551   3.966   4.340   0.298 -0.5280  0.5856  0.2257
19687TIP3    H180552   3.885   4.350   0.248 -0.4532  1.2137  0.2259
19687TIP3    H280553   4.035   4.340   0.231 -0.5034  0.4242  0.2523
19688TIP3   OH280554   5.986   1.443  12.232  0.6388  0.0735 -0.3518
19688TIP3    H180555   5.951   1.514  12.178 -0.8546  0.7292  1.4112
19688TIP3    H280556   6.036   1.488  12.301 -1.6698 -0.4397  1.7386
19689TIP3   OH280557   1.077   0.342   4.161  0.2320 -0.5186  0.0112
19689TIP3    H180558   1.140   0.338   4.089  0.5592  0.9401  0.1986
19689TIP3    H280559   1.105   0.417   4.213 -2.1837  0.7028 -0.4000
19690TIP3   OH280560   4.125   3.452  16.611  0.4581  0.1773  0.2831
19690TIP3    H180561   4.042   3.468  16.567 -0.6610 -3.1839  0.9718
19690TIP3    H280562   4.174   3.397  16.550  1.8276  1.4094  0.2537
19691TIP3   OH280563   1.476   1.530  12.040  0.5310 -0.2964 -0.4265
19691TIP3    H180564   1.492   1.470  12.113  1.2738 -0.5711 -0.8157
19691TIP3    H280565   1.518   1.612  12.066 -0.3911  0.0400  0.0560
19692TIP3   OH280566   4.642   5.704   1.713  0.1482 -0.3536  0.3664
19692TIP3    H180567   4.587   5.632   1.681 -1.1465  0.8077 -0.1276
19692TIP3    H280568   4.635   5.699   1.808 -0.1430 -0.7275  0.3275
19693TIP3   OH280569   2.082   2.619  15.346 -0.1401 -0.0023  0.0653
19693TIP3    H180570   2.085   2.527  15.320  0.4263 -0.1676  0.7207
19693TIP3    H280571   2.008   2.655  15.297 -0.4909 -0.8542 -0.0345
19694TIP3   OH280572   4.736   6.765  11.644 -0.2059  0.4047  1.1515
19694TIP3    H180573   4.736   6.670  11.657  0.7099  0.0480 -1.3228
19694TIP3    H280574   4.821   6.784  11.604 -1.3716  1.9485 -0.6493
19695TIP3   OH280575   3.383   1.937   6.153  0.5290 -0.3218 -0.7154
19695TIP3    H180576   3.317   1.951   6.221  0.6195 -2.0018 -0.2563
19695TIP3    H280577   3.365   2.005   6.088 -2.0268 -1.0450 -0.8432
19696TIP3   OH280578   2.064   6.115   5.700 -0.2741  0.1546 -0.0084
19696TIP3    H180579   2.088   6.023   5.692  1.8972  0.8820 -2.6272
19696TIP3    H280580   2.130   6.153   5.757  0.1984  0.5487 -0.8109
19697TIP3   OH280581   0.734   2.938  15.127 -1.1715 -0.0795  0.1054
19697TIP3    H180582   0.714   2.855  15.085 -3.5447  0.5263 -0.0399
19697TIP3    H280583   0.665   2.950  15.192 -0.3773  1.3681  0.7100
19698TIP3   OH280584   0.599   2.597  16.888 -0.1210 -0.1907 -0.1277
19698TIP3    H180585   0.594   2.669  16.951  0.7766  1.2987 -1.7131
19698TIP3    H280586   0.691   2.571  16.888 -0.4359 -1.3055  0.4060
19699TIP3   OH280587   5.641   2.153   5.178 -0.6083  0.4846  0.1937
19699TIP3    H180588   5.714   2.104   5.141  0.3389  1.8076  0.2290
19699TIP3    H280589   5.566   2.133   5.122 -0.0509 -0.3825 -0.2379
19700TIP3   OH280590   3.367   2.908  15.891 -0.1001 -0.5635 -0.2634
19700TIP3    H180591   3.449   2.956  15.875 -1.8024  2.0884 -1.4222
19700TIP3    H280592   3.344   2.870  15.807 -0.5260 -0.4881 -0.1850
19701TIP3   OH280593   1.693   3.940  13.429 -0.4398 -0.1957  0.0855
19701TIP3    H180594   1.687   3.845  13.427 -0.3842 -0.1910 -0.5516
19701TIP3    H280595   1.621   3.971  13.374 -0.2357  0.1182 -0.0100
19702TIP3   OH280596   1.563   0.763  13.671 -0.5339  0.1560  0.2158
19702TIP3    H180597   1.637   0.777  13.613 -0.4019 -1.8278 -0.1318
19702TIP3    H280598   1.486   0.772  13.614 -0.4955  0.2935  0.1828
19703TIP3   OH280599   0.433   4.403  12.687  0.2163 -0.0547  0.1866
19703TIP3    H180600   0.436   4.309  12.706  0.0424  0.2169  1.6575
19703TIP3    H280601   0.458   4.410  12.595  0.2188 -1.5432  0.0619
19704TIP3   OH280602   5.094   6.158  15.574  0.0530  0.4423 -0.2639
19704TIP3    H180603   5.024   6.093  15.579  0.7429 -0.2208  1.0549
19704TIP3    H280604   5.139   6.138  15.492 -0.7272  0.2852 -0.6624
19705TIP3   OH280605   3.048   2.859   1.520 -0.4585  0.5125 -0.2582
19705TIP3    H180606   3.109   2.892   1.585 -0.0096 -1.4750  0.3608
19705TIP3    H280607   3.074   2.903   1.439 -0.9381  2.8921  0.8396
19706TIP3   OH280608   0.530   6.477  12.933 -0.0684 -0.2044 -0.1662
19706TIP3    H180609   0.625   6.487  12.925  0.1954 -1.5685  1.1052
19706TIP3    H280610   0.504   6.546  12.994  0.3347 -0.8166  0.7072
19707TIP3   OH280611   3.343   1.417   2.807 -0.1544 -0.5905 -0.4254
19707TIP3    H180612   3.392   1.386   2.731 -0.6256  0.5861 -1.2349
19707TIP3    H280613   3.282   1.347   2.826  1.2546 -1.7094  0.0624
19708TIP3   OH280614   6.629   1.981  13.563 -0.0722  0.0480 -0.2648
19708TIP3    H180615   6.723   1.978  13.582 -0.1062  1.4257  0.1238
19708TIP3    H280616   6.616   2.065  13.520 -1.0003 -0.4939 -1.0374
19709TIP3   OH280617   0.031   4.485   1.539 -0.0830 -0.2263 -0.3384
19709TIP3    H180618  -0.020   4.557   1.504 -0.4557 -0.8485 -1.1096
19709TIP3    H280619   0.050   4.509   1.630  0.6988  1.3190 -0.8981
19710TIP3   OH280620   2.629   4.022  15.197  0.0835 -0.3062 -0.1091
19710TIP3    H180621   2.722   4.004  15.182  0.3925  0.6429  0.5917
19710TIP3    H280622   2.628   4.082  15.272 -1.0392  0.6633 -0.8853
19711TIP3   OH280623   6.128   3.363  15.496 -0.5472  0.1558 -0.1008
19711TIP3    H180624   6.192   3.313  15.547 -0.9522  0.1896  0.4492
19711TIP3    H280625   6.107   3.306  15.422  0.3389  0.2675 -0.4496
19712TIP3   OH280626   4.291   6.604   1.375 -0.1780 -1.0576  0.0722
19712TIP3    H180627   4.279   6.699   1.381 -0.7087 -1.1224  0.0735
19712TIP3    H280628   4.383   6.593   1.351  0.8433 -0.6244  3.4950
19713TIP3   OH280629   0.058   4.644   0.478 -0.0370  1.1420 -0.4061
19713TIP3    H180630   0.097   4.634   0.565  1.1831  1.6807 -0.8797
19713TIP3    H280631  -0.025   4.689   0.495 -1.0050 -0.9820  0.7210
19714TIP3   OH280632   4.928   3.868  12.476  0.3726 -0.0690 -0.2181
19714TIP3    H180633   4.952   3.959  12.459  2.2260 -0.1400  1.8777
19714TIP3    H280634   4.896   3.868  12.566  0.1353 -1.4618 -0.3000
19715TIP3   OH280635   6.328   1.751   1.634 -0.1720  0.0347 -0.5434
19715TIP3    H180636   6.299   1.662   1.614  1.3579 -0.4409 -0.7324
19715TIP3    H280637   6.363   1.746   1.723 -2.5048  1.0593  0.4627
19716TIP3   OH280638   1.425   2.791  12.601  0.7205 -0.3811  0.1328
19716TIP3    H180639   1.476   2.771  12.522 -0.3339 -0.4844 -0.5338
19716TIP3    H280640   1.370   2.866  12.576 -1.0368 -1.6267  0.1335
19717TIP3   OH280641   6.548   5.633   4.882 -0.4869  0.4906 -0.7816
19717TIP3    H180642   6.643   5.632   4.874 -0.2734 -2.0743  1.3655
19717TIP3    H280643   6.532   5.662   4.971 -1.6150 -1.1227 -0.4320
19718TIP3   OH280644   1.084   0.023  15.940 -0.1011 -0.3077  0.1748
19718TIP3    H180645   1.033   0.100  15.917 -0.0315 -0.3970 -0.2941
19718TIP3    H280646   1.133   0.049  16.018 -1.0524 -0.3122  0.7815
19719TIP3   OH280647   6.415   0.769   5.559  0.1745  0.6596  0.2618
19719TIP3    H180648   6.451   0.839   5.504 -2.1227  0.6958 -1.2817
19719TIP3    H280649   6.320   0.776   5.546 -0.0916 -3.1632 -0.4417
19720TIP3   OH280650   5.545   1.136  16.021 -0.0587  0.0168  0.1113
19720TIP3    H180651   5.550   1.087  15.938  1.4031  0.1739  0.1077
19720TIP3    H280652   5.631   1.175  16.031 -0.8660  1.6755  0.7057
19721TIP3   OH280653   0.786   5.998  13.564 -0.1164  0.1340  0.0864
19721TIP3    H180654   0.789   5.977  13.658 -0.6717  0.2475  0.1319
19721TIP3    H280655   0.781   5.913  13.521 -1.0855  0.1248  0.2159
19722TIP3   OH280656   3.943   0.647  13.922  0.0497  0.1083 -0.8414
19722TIP3    H180657   3.943   0.694  14.005  1.0070  0.4489 -1.0239
19722TIP3    H280658   4.018   0.683  13.874  0.0834 -0.7652 -1.4635
19723TIP3   OH280659   5.086   1.289  15.806  0.1637 -0.6758  0.2868
19723TIP3    H180660   5.179   1.303  15.792 -0.2175  1.7729  0.0087
19723TIP3    H280661   5.070   1.321  15.895 -0.6899  0.3823 -0.2420
19724TIP3   OH280662   4.994   0.005  10.750 -0.6819 -0.1370 -0.3509
19724TIP3    H180663   4.988  -0.090  10.763 -0.9708 -0.1918 -0.8879
19724TIP3    H280664   5.084   0.026  10.774 -1.1298 -0.2636  1.5626
19725TIP3   OH280665   1.412   2.901   1.513 -0.0381  0.4336 -0.6511
19725TIP3    H180666   1.491   2.930   1.559  0.4954 -1.6373 -0.1945
19725TIP3    H280667   1.370   2.839   1.573 -1.9953  1.4513 -0.9279
19726TIP3   OH280668   0.916   0.934  15.283 -0.3949 -0.0483  0.4549
19726TIP3    H180669   0.885   0.844  15.283  1.4509 -0.7268  2.7122
19726TIP3    H280670   0.952   0.948  15.196 -1.0557 -1.3393 -0.0325
19727TIP3   OH280671   1.975   1.753   4.306 -0.0914 -0.0011  0.6315
19727TIP3    H180672   1.928   1.673   4.282  0.4548  0.1089 -0.8510
19727TIP3    H280673   1.989   1.799   4.223  2.0235  0.3144  1.1296
19728TIP3   OH280674   0.020   1.880   4.578  0.1422 -0.4280 -0.3586
19728TIP3    H180675   0.105   1.924   4.577 -1.3956  2.7436  1.0727
19728TIP3    H280676  -0.036   1.937   4.525 -1.4566 -1.7254 -0.0767
19729TIP3   OH280677   5.789   1.938  14.702  0.4719 -0.5819 -0.1099
19729TIP3    H180678   5.729   2.005  14.735  2.0843  1.4680 -1.3110
19729TIP3    H280679   5.738   1.857  14.707 -1.0718  0.4825  2.5501
19730TIP3   OH280680   3.547   0.708  15.791  0.3499  0.2164 -0.2231
19730TIP3    H180681   3.495   0.789  15.791 -0.1556 -0.0818 -1.7073
19730TIP3    H280682   3.492   0.645  15.837 -0.7147 -0.1406 -1.9243
19731TIP3   OH280683   2.874   0.940   0.955  0.0861 -0.2397 -0.4777
19731TIP3    H180684   2.821   0.997   0.899 -0.2455  0.9829  1.0460
19731TIP3    H280685   2.810   0.893   1.009  0.4837  0.1026  0.2991
19732TIP3   OH280686   5.116   0.517   3.038  0.0218  0.2574  0.0012
19732TIP3    H180687   5.051   0.505   3.107  1.3541  1.6272  1.5137
19732TIP3    H280688   5.178   0.445   3.050  0.7123  0.9695  0.7788
19733TIP3   OH280689   1.937   1.335   3.817  0.3563 -0.7556  0.6592
19733TIP3    H180690   2.027   1.303   3.819  0.6150 -0.0004  1.3118
19733TIP3    H280691   1.903   1.305   3.732  1.7688  0.3874 -0.3383
19734TIP3   OH280692   2.447   4.922   6.557  0.3939  0.3485 -0.0077
19734TIP3    H180693   2.446   5.011   6.590 -1.8952  0.0918  0.7017
19734TIP3    H280694   2.364   4.912   6.510 -0.2979 -2.0149  1.6038
19735TIP3   OH280695   3.419   1.526   3.839 -0.3611 -0.3095  0.0415
19735TIP3    H180696   3.346   1.589   3.839  0.7311  0.9703 -0.1832
19735TIP3    H280697   3.386   1.452   3.788 -2.1673 -0.5239  1.4584
19736TIP3   OH280698   6.015   3.195  12.705  0.4282 -0.1796  0.4188
19736TIP3    H180699   6.017   3.236  12.791 -0.0253  0.9591 -0.1129
19736TIP3    H280700   5.929   3.151  12.701 -0.6619  1.9784 -0.4656
19737TIP3   OH280701   6.035   6.156  16.655 -0.4467 -0.0613  0.3294
19737TIP3    H180702   6.121   6.130  16.688  0.5549  0.2108 -2.0111
19737TIP3    H280703   6.040   6.251  16.647 -1.1793  0.0165  0.7720
19738TIP3   OH280704   0.924   3.470  14.813 -0.1301 -0.6229 -0.4914
19738TIP3    H180705   0.953   3.522  14.738  1.3298 -0.6234  0.0523
19738TIP3    H280706   0.914   3.533  14.884  0.5583 -0.9154 -0.1274
19739TIP3   OH280707   1.189   4.088  13.231  0.0190 -0.4432 -0.3881
19739TIP3    H180708   1.205   3.995  13.219 -0.7488 -0.4954 -1.0856
19739TIP3    H280709   1.129   4.092  13.306 -0.4459 -0.5485 -0.7549
19740TIP3   OH280710   6.194   6.810  12.862 -0.3507 -0.0318  0.6470
19740TIP3    H180711   6.196   6.904  12.880 -0.3670  0.3355 -1.1615
19740TIP3    H280712   6.285   6.787  12.845 -0.4989 -0.1095 -0.0419
19741TIP3   OH280713   2.077   2.481   5.552 -0.4446  0.2648 -0.2248
19741TIP3    H180714   2.167   2.509   5.572 -0.5926  0.2290  0.5165
19741TIP3    H280715   2.026   2.562   5.557 -0.5447  0.1931 -0.0993
19742TIP3   OH280716   4.674   2.642  15.643  0.1528 -0.0965  0.2009
19742TIP3    H180717   4.588   2.676  15.620  0.5272  1.4637  1.0756
19742TIP3    H280718   4.667   2.618  15.735  0.3474 -0.9995 -0.0091
19743TIP3   OH280719   4.436   3.987   6.233  0.3409  0.3752 -0.4619
19743TIP3    H180720   4.416   3.999   6.140 -0.7828  0.6889 -0.1910
19743TIP3    H280721   4.389   4.058   6.276  0.4570 -0.0690  0.3947
19744TIP3   OH280722   0.024   2.097   1.588 -0.3300  0.0482 -0.0420
19744TIP3    H180723   0.119   2.095   1.574 -0.5003 -2.8806 -1.0607
19744TIP3    H280724   0.009   2.033   1.658 -1.5687  0.4209  0.0403
19745TIP3   OH280725   2.589   5.653   1.808  0.4510 -0.8584 -0.7217
19745TIP3    H180726   2.609   5.707   1.731  0.8239  0.9820  0.6498
19745TIP3    H280727   2.674   5.625   1.841  0.3742 -0.1926  0.0471
19746TIP3   OH280728   6.238   3.526  11.944  0.8228 -0.7662 -0.2473
19746TIP3    H180729   6.183   3.573  11.882  1.8290  1.6838  0.6529
19746TIP3    H280730   6.296   3.593  11.980 -0.7216 -1.7719  4.4660
19747TIP3   OH280731   1.617   2.210   2.307  0.7306  0.5331 -0.2484
19747TIP3    H180732   1.603   2.305   2.303 -0.9805  0.2755 -0.8525
19747TIP3    H280733   1.589   2.186   2.396 -1.8700  0.1686 -1.1192
19748TIP3   OH280734   3.748   3.658  10.907 -0.1864 -0.6630  0.4901
19748TIP3    H180735   3.655   3.682  10.905  0.3692  1.6450  1.2099
19748TIP3    H280736   3.785   3.698  10.829  0.9398  1.6939  2.1871
19749TIP3   OH280737   0.485   1.911   3.202  0.1909 -0.0018  0.4738
19749TIP3    H180738   0.484   1.921   3.107 -2.1655 -3.2074  0.0469
19749TIP3    H280739   0.473   1.999   3.236  2.2234  1.3660 -2.1424
19750TIP3   OH280740   2.463   3.497   0.907 -0.6325 -0.5319 -0.5040
19750TIP3    H180741   2.368   3.486   0.900 -0.7937 -0.2642  1.0644
19750TIP3    H280742   2.486   3.455   0.990  0.5019  0.1323 -0.4693
19751TIP3   OH280743   0.658   0.295  14.169 -0.0860 -0.3650 -0.0951
19751TIP3    H180744   0.615   0.288  14.254 -0.4135  0.2118 -0.2109
19751TIP3    H280745   0.630   0.379  14.135 -0.5077 -0.9064 -1.0858
19752TIP3   OH280746   3.485   5.303  11.523  0.1199  0.1863 -0.0500
19752TIP3    H180747   3.447   5.356  11.453 -2.4455 -0.6650  0.6341
19752TIP3    H280748   3.448   5.216  11.510 -1.1418  0.2355  2.8937
19753TIP3   OH280749   6.646   6.005   2.445 -0.7339 -0.1914 -0.3979
19753TIP3    H180750   6.616   6.003   2.354 -0.0786  0.6983 -0.6384
19753TIP3    H280751   6.598   5.934   2.487 -1.1202 -0.5475 -1.4136
19754TIP3   OH280752   6.010   3.741   3.777  0.0015 -0.4093 -1.0229
19754TIP3    H180753   6.076   3.706   3.836 -0.1516 -0.1853 -0.7149
19754TIP3    H280754   5.995   3.672   3.713 -0.7854 -1.1671 -0.0329
19755TIP3   OH280755   6.131   1.173   5.428 -0.0066 -0.1866  0.0101
19755TIP3    H180756   6.217   1.142   5.457 -0.7036 -2.7360 -0.5570
19755TIP3    H280757   6.071   1.143   5.496 -0.8061 -0.7905 -0.9603
19756TIP3   OH280758   2.792   5.170  16.889 -0.3025  0.0056 -0.3853
19756TIP3    H180759   2.698   5.175  16.873 -0.2556  1.8809 -0.0897
19756TIP3    H280760   2.806   5.217  16.971  0.5607 -2.5495  0.9897
19757TIP3   OH280761   4.334   2.652  12.534  0.7340  0.2790 -0.1710
19757TIP3    H180762   4.395   2.579  12.543  0.7728  0.0615 -1.8841
19757TIP3    H280763   4.380   2.727  12.571  0.7122 -0.5551  1.5613
19758TIP3   OH280764   2.542   1.127   5.614 -0.3115  0.1772 -0.3451
19758TIP3    H180765   2.603   1.187   5.572 -0.8032  1.2909  0.5143
19758TIP3    H280766   2.465   1.180   5.634 -1.3031 -1.0554 -0.7948
19759TIP3   OH280767   5.276   2.832   0.338 -0.3721 -0.2010  0.1858
19759TIP3    H180768   5.260   2.848   0.245 -3.0829 -0.7977  0.5281
19759TIP3    H280769   5.294   2.738   0.344  1.6763  0.1611  0.0388
19760TIP3   OH280770   2.803   0.531   5.166  0.2779  0.0718  0.0625
19760TIP3    H180771   2.888   0.508   5.130  0.1873  1.0610 -0.8095
19760TIP3    H280772   2.776   0.608   5.116 -1.2892 -0.4492  0.0877
19761TIP3   OH280773   4.877   0.627   4.925 -0.1914 -0.4689 -0.2908
19761TIP3    H180774   4.816   0.569   4.881  0.4685 -1.2417 -0.2072
19761TIP3    H280775   4.941   0.651   4.858  1.7621 -2.9535  0.5764
19762TIP3   OH280776   5.989   2.611   6.424  0.3177  0.2745 -0.5690
19762TIP3    H180777   5.948   2.690   6.390  0.9547  1.1402  0.6811
19762TIP3    H280778   6.075   2.638   6.454  0.1763 -0.6868  0.7762
19763TIP3   OH280779   4.384   5.493  12.954 -0.4383 -0.0437 -0.1872
19763TIP3    H180780   4.387   5.408  12.996 -1.3182  0.1484  0.2732
19763TIP3    H280781   4.305   5.535  12.988 -0.1707  0.8455 -0.6184
19764TIP3   OH280782   4.216   4.334   0.474 -0.4430 -0.5949 -0.2073
19764TIP3    H180783   4.251   4.251   0.442 -0.7285 -0.6845 -0.2960
19764TIP3    H280784   4.134   4.345   0.425 -1.2603 -1.0973  1.0506
19765TIP3   OH280785   4.310   4.951   3.743 -0.4665 -0.5187  0.8257
19765TIP3    H180786   4.363   5.029   3.723 -2.4449  0.1097 -2.3607
19765TIP3    H280787   4.365   4.878   3.716  0.8404 -0.1980  2.5099
19766TIP3   OH280788   4.401   4.247  13.804  0.0072  0.1535 -0.1859
19766TIP3    H180789   4.441   4.300  13.873 -0.5302 -0.3190  0.4838
19766TIP3    H280790   4.475   4.199  13.765  0.4289  1.0326 -0.4919
19767TIP3   OH280791   1.602   6.365  13.414  0.3199  0.1622  0.2731
19767TIP3    H180792   1.520   6.403  13.381 -0.9101 -1.9082  0.8104
19767TIP3    H280793   1.661   6.367  13.339 -0.4913  0.9311 -0.3629
19768TIP3   OH280794   1.166   6.700   2.174  0.1802  0.0895 -0.5287
19768TIP3    H180795   1.093   6.731   2.120  0.0843  1.3918  0.3210
19768TIP3    H280796   1.230   6.772   2.171 -0.1649  0.5387  1.7073
19769TIP3   OH280797   0.852   6.033   1.300 -0.0734  0.3642  0.1602
19769TIP3    H180798   0.880   5.987   1.220 -0.4243  0.2641  0.0934
19769TIP3    H280799   0.763   6.001   1.315 -0.2159  0.8161  0.2704
19770TIP3   OH280800   0.434   6.422  15.963  0.2836  0.4982 -0.3668
19770TIP3    H180801   0.458   6.412  16.055 -2.6362  2.4365  0.6727
19770TIP3    H280802   0.433   6.333  15.929 -0.7078 -0.4595  2.0417
19771TIP3   OH280803   2.562   0.500   0.668  0.4100  0.3699  0.3355
19771TIP3    H180804   2.532   0.584   0.703 -0.0033 -0.0504  1.0002
19771TIP3    H280805   2.540   0.504   0.575 -2.9588 -0.4574  1.0459
19772TIP3   OH280806   6.733   2.716  12.107 -0.5797  0.4887 -0.2540
19772TIP3    H180807   6.785   2.744  12.182  0.0588  1.5655 -1.0792
19772TIP3    H280808   6.676   2.791  12.089  1.0823  1.2872 -2.4375
19773TIP3   OH280809   4.463   4.483   5.111 -0.0964 -0.8375  0.1495
19773TIP3    H180810   4.476   4.401   5.158  1.9710 -0.7175 -0.1913
19773TIP3    H280811   4.414   4.538   5.172 -1.6673 -2.3707  0.3060
19774TIP3   OH280812   6.209   6.226   3.636  0.6066  0.0344  0.1279
19774TIP3    H180813   6.176   6.310   3.669  0.2606 -0.1655  0.2992
19774TIP3    H280814   6.268   6.195   3.705  0.0005 -0.3121  0.4970
19775TIP3   OH280815   6.491   3.946   1.433  0.5215 -0.2958  0.2121
19775TIP3    H180816   6.440   4.002   1.491  0.2602  0.0037 -0.3063
19775TIP3    H280817   6.543   3.892   1.492  1.9207  1.5408  0.6972
19776TIP3   OH280818   0.099   0.035  10.667  0.5453 -0.0038 -0.6550
19776TIP3    H180819   0.107   0.049  10.572 -0.2613  0.4695 -0.6608
19776TIP3    H280820   0.045   0.108  10.697  0.2680 -0.5101  0.0758
19777TIP3   OH280821   2.336   3.123  14.980 -0.1534  0.2091 -0.6352
19777TIP3    H180822   2.292   3.178  14.916 -1.8190 -1.8445 -1.2796
19777TIP3    H280823   2.312   3.161  15.065 -2.3260 -0.2418 -1.0218
19778TIP3   OH280824   4.894   4.888   0.300  0.1143 -0.1660 -0.7269
19778TIP3    H180825   4.820   4.914   0.245 -1.4041 -0.6482  1.0230
19778TIP3    H280826   4.918   4.801   0.267 -0.0733  0.0021 -1.3217
19779TIP3   OH280827   5.253   6.357   3.847 -0.4310 -0.7926 -0.1918
19779TIP3    H180828   5.244   6.453   3.841 -1.9083 -0.9202 -0.1966
19779TIP3    H280829   5.303   6.343   3.927  1.6757  0.0701 -1.3100
19780TIP3   OH280830   6.352   1.869   2.653  0.2286 -0.3901  0.5804
19780TIP3    H180831   6.416   1.838   2.588  4.1722  3.1257  2.5796
19780TIP3    H280832   6.307   1.941   2.610  0.2852 -0.4042  0.4974
19781TIP3   OH280833   2.159   5.083  14.045 -0.9061 -0.2807  0.2081
19781TIP3    H180834   2.145   5.178  14.054 -3.0720 -0.4089 -1.4237
19781TIP3    H280835   2.084   5.044  14.091 -1.2840 -1.1573 -1.1426
19782TIP3   OH280836   5.446   4.994   3.366 -0.0159 -0.2718  0.2382
19782TIP3    H180837   5.363   5.039   3.382 -0.8354 -1.7717  0.3389
19782TIP3    H280838   5.469   4.956   3.451 -0.1776 -1.3910 -0.2054
19783TIP3   OH280839   1.881   2.791  16.800 -0.4675 -0.3027 -0.0672
19783TIP3    H180840   1.798   2.826  16.832 -0.1855  0.4397 -0.1435
19783TIP3    H280841   1.856   2.727  16.734 -0.9599  1.3500 -1.5251
19784TIP3   OH280842   2.042   4.506   1.354  0.6343 -0.2742  0.1486
19784TIP3    H180843   1.961   4.476   1.312  0.7871  0.2834 -0.5648
19784TIP3    H280844   2.111   4.482   1.292  0.9336 -0.0223  0.3852
19785TIP3   OH280845   4.328   1.787   5.759 -0.1566  0.2726  0.3457
19785TIP3    H180846   4.420   1.759   5.764 -0.6791 -1.7225 -0.7772
19785TIP3    H280847   4.295   1.777   5.849  1.4051  3.6065  1.3811
19786TIP3   OH280848   4.585   2.262   2.409  0.0955  0.4961 -0.4228
19786TIP3    H180849   4.641   2.294   2.480  1.1608  0.4414 -1.2355
19786TIP3    H280850   4.527   2.335   2.390 -0.2025  0.5153  0.5048
19787TIP3   OH280851   6.320   2.267   1.482  0.7394 -0.2640  0.5174
19787TIP3    H180852   6.326   2.172   1.493  0.6104 -0.3843 -0.3734
19787TIP3    H280853   6.381   2.287   1.411  0.3285  0.2412  0.3019
19788TIP3   OH280854   0.068   3.703   5.089 -0.5844  0.2757 -0.5898
19788TIP3    H180855   0.141   3.765   5.096 -1.0155  0.8069 -0.7640
19788TIP3    H280856   0.034   3.697   5.178  0.5508 -1.0617 -0.2192
19789TIP3   OH280857   1.806   1.000  16.225 -0.2035  0.1318  0.4026
19789TIP3    H180858   1.719   0.973  16.255  0.1941 -2.1301 -0.3693
19789TIP3    H280859   1.789   1.062  16.155 -1.2568 -1.8059 -1.1027
19790TIP3   OH280860   4.300   4.129   4.632  0.5001 -0.0052  0.4466
19790TIP3    H180861   4.347   4.178   4.699 -0.7178  1.0886  0.5311
19790TIP3    H280862   4.208   4.137   4.658  0.0941 -0.2750 -0.8994
19791TIP3   OH280863   1.960   2.530   4.956  0.0708  0.1300 -0.3456
19791TIP3    H180864   1.875   2.552   4.918 -0.3578 -2.4260 -1.0083
19791TIP3    H280865   1.962   2.573   5.041 -1.8774  0.2449 -0.3557
19792TIP3   OH280866   0.114   0.456   4.134 -0.4207  0.2109  0.8305
19792TIP3    H180867   0.188   0.396   4.146  0.1754  0.7314 -0.1617
19792TIP3    H280868   0.099   0.494   4.220 -1.6052 -2.2729  1.7755
19793TIP3   OH280869   3.216   0.126  10.895  0.0808 -0.1712  0.3992
19793TIP3    H180870   3.219   0.095  10.805 -0.9550 -1.7063  0.8670
19793TIP3    H280871   3.305   0.115  10.928  0.0480 -1.3193  0.1127
19794TIP3   OH280872   6.537   3.794  17.162  0.0853  0.4663  0.2430
19794TIP3    H180873   6.455   3.796  17.114  0.7621  0.4230 -0.9498
19794TIP3    H280874   6.547   3.882  17.198 -0.3847  0.5271  0.2169
19795TIP3   OH280875   5.142   0.206  14.871  0.0487 -0.4450 -0.0845
19795TIP3    H180876   5.112   0.216  14.961  2.9997 -0.6494  0.9737
19795TIP3    H280877   5.098   0.127  14.839  0.6622 -1.6122  1.9022
19796TIP3   OH280878   5.512   1.841   3.864 -0.3331 -0.1820 -0.2720
19796TIP3    H180879   5.605   1.823   3.871 -0.4928 -1.6176 -1.7033
19796TIP3    H280880   5.472   1.792   3.935  0.0441  0.8966  0.7011
19797TIP3   OH280881   1.123   5.942   2.220  0.2940  0.3733  0.1868
19797TIP3    H180882   1.081   5.978   2.142 -1.6334  0.0462  1.0355
19797TIP3    H280883   1.146   5.852   2.196 -0.9597  0.0349  0.2093
19798TIP3   OH280884   5.147   4.704   0.601  0.0837 -0.3425  0.4839
19798TIP3    H180885   5.093   4.771   0.559  1.1948 -0.5039 -1.2687
19798TIP3    H280886   5.110   4.694   0.688 -1.6723  0.7358 -0.1165
19799TIP3   OH280887   4.651   3.594  15.617  0.8101 -0.4639  0.0207
19799TIP3    H180888   4.719   3.653  15.584 -0.2271  2.0381  2.1841
19799TIP3    H280889   4.699   3.517  15.647  2.4079  0.1438 -0.8873
19800TIP3   OH280890   2.903   5.313   2.179 -0.4207  0.3252 -0.0798
19800TIP3    H180891   2.900   5.231   2.131  0.5276 -0.0838  0.5263
19800TIP3    H280892   2.851   5.297   2.258 -0.2236  0.2872  0.0457
19801TIP3   OH280893   5.895   0.319  11.033  0.5848  0.0124  0.8851
19801TIP3    H180894   5.948   0.309  10.954 -0.4860  0.7304  0.0634
19801TIP3    H280895   5.939   0.386  11.084 -0.7404  2.2727 -0.8526
19802TIP3   OH280896   6.318   3.216  15.689 -0.3120  0.4861 -0.4058
19802TIP3    H180897   6.374   3.291  15.667  1.6460 -0.5062  0.9868
19802TIP3    H280898   6.307   3.222  15.784  1.6194 -2.1037  0.0355
19803TIP3   OH280899   6.226   2.486  15.978  0.1855  0.2261 -0.1440
19803TIP3    H180900   6.257   2.455  15.893  0.2918 -0.4240  0.1320
19803TIP3    H280901   6.161   2.554  15.957 -0.4474 -0.5661 -0.7548
19804TIP3   OH280902   4.554   4.925   1.307  0.3721 -0.2334 -0.0798
19804TIP3    H180903   4.577   4.958   1.221 -1.3712 -0.9301 -0.8425
19804TIP3    H280904   4.589   4.836   1.308 -1.6206 -1.0700 -1.0027
19805TIP3   OH280905   6.130   4.578  10.123 -0.1918  0.2774  0.0706
19805TIP3    H180906   6.173   4.528  10.192  0.4043 -0.0463 -0.5335
19805TIP3    H280907   6.184   4.656  10.112 -0.6164  0.6232  0.3715
19806TIP3   OH280908   3.380   5.649  17.192  0.3638  0.0499 -0.0367
19806TIP3    H180909   3.431   5.691  17.124 -0.2505 -0.3454 -0.7631
19806TIP3    H280910   3.444   5.611  17.251  0.9049  0.6124 -0.2674
19807TIP3   OH280911   4.981   4.016  12.022 -0.1741  0.0467  0.1656
19807TIP3    H180912   5.057   4.067  12.052 -1.6280  2.2888  0.1787
19807TIP3    H280913   4.919   4.021  12.094 -1.1094 -0.0522 -0.6255
19808TIP3   OH280914   6.629   2.571   0.191  0.0337 -0.3309 -0.1591
19808TIP3    H180915   6.543   2.543   0.224 -0.6165  1.9822  0.2682
19808TIP3    H280916   6.681   2.491   0.187 -1.9187 -1.6660  0.2842
19809TIP3   OH280917   3.121   0.027   6.428  0.1775  0.2356  0.4776
19809TIP3    H180918   3.190  -0.018   6.477 -0.1471  1.4947  2.1659
19809TIP3    H280919   3.051   0.040   6.492 -1.0121  0.3057 -0.8191
19810TIP3   OH280920   0.971   3.164  10.855 -0.8990  0.5366 -0.4697
19810TIP3    H180921   0.955   3.116  10.774  2.6465 -1.2471 -0.2201
19810TIP3    H280922   1.039   3.227  10.831  1.5265 -1.2469  1.4425
19811TIP3   OH280923   4.344   3.614  15.394 -0.8614 -0.5395  0.3153
19811TIP3    H180924   4.408   3.591  15.461  0.1431  0.4197 -0.3094
19811TIP3    H280925   4.301   3.693  15.428 -0.3899 -0.0847 -0.1412
19812TIP3   OH280926   3.362   0.413   4.565 -0.5189 -0.2232  0.2323
19812TIP3    H180927   3.288   0.353   4.568 -2.3716  1.9976 -0.0733
19812TIP3    H280928   3.392   0.420   4.656 -2.0376  0.5038  0.6830
19813TIP3   OH280929   3.090   0.609  12.433 -0.0225 -0.2988  0.4987
19813TIP3    H180930   3.151   0.575  12.498  0.3255 -1.7206 -0.5268
19813TIP3    H280931   3.067   0.532  12.380 -0.0509  0.8672 -1.2235
19814TIP3   OH280932   3.660   6.405   2.047 -0.1355 -0.5284  0.5883
19814TIP3    H180933   3.704   6.385   1.964  1.4292  0.0321  1.2557
19814TIP3    H280934   3.726   6.384   2.114 -0.2533  2.0488  1.5424
19815TIP3   OH280935   0.671   2.590  15.967  0.2433 -0.0112 -0.3862
19815TIP3    H180936   0.704   2.613  16.054 -0.0131  1.6030 -0.6889
19815TIP3    H280937   0.695   2.498  15.955  2.3941  0.4121  0.4279
19816TIP3   OH280938   5.445   5.949  13.672 -0.3220 -0.0977  0.2702
19816TIP3    H180939   5.479   6.025  13.719  0.0226  0.3379 -0.6790
19816TIP3    H280940   5.357   5.974  13.645 -0.1533  0.0175 -0.1714
19817TIP3   OH280941   0.319   1.969  15.267 -0.1679 -0.5452 -0.1251
19817TIP3    H180942   0.261   1.899  15.297 -0.6063 -1.0509 -2.0552
19817TIP3    H280943   0.309   1.969  15.172  1.1427  1.0055 -0.2878
19818TIP3   OH280944   4.672   6.708  10.863  0.4103  0.1749  0.6242
19818TIP3    H180945   4.582   6.726  10.890  0.4648  1.9280 -0.2727
19818TIP3    H280946   4.664   6.636  10.800 -0.4942  1.0231 -0.2532
19819TIP3   OH280947   1.424   0.263   5.741 -0.0092  0.2204 -0.0023
19819TIP3    H180948   1.350   0.203   5.734  0.3805 -0.2376 -0.2070
19819TIP3    H280949   1.491   0.214   5.789 -0.1857  0.9721  1.0057
19820TIP3   OH280950   1.621   5.585  13.044  0.2734 -0.0028 -0.3943
19820TIP3    H180951   1.601   5.557  13.133  1.0946  0.9159  0.0791
19820TIP3    H280952   1.645   5.503  12.999 -0.3897 -0.5033  0.1534
19821TIP3   OH280953   6.018   2.127   3.122 -0.0131  0.0954 -0.7022
19821TIP3    H180954   5.935   2.174   3.125 -0.2340 -0.2301 -1.5895
19821TIP3    H280955   5.996   2.041   3.086  0.6565 -0.1079 -0.6402
19822TIP3   OH280956   4.655   5.288  16.497  0.4842  0.5714  0.0715
19822TIP3    H180957   4.690   5.352  16.435 -0.2943  2.1351  1.2234
19822TIP3    H280958   4.721   5.219  16.499  2.3316  2.2808  0.2958
19823TIP3   OH280959   4.390   2.969   1.600 -0.0079 -0.5200  0.4063
19823TIP3    H180960   4.306   3.009   1.619  1.1710  1.4315  1.7025
19823TIP3    H280961   4.413   2.921   1.680 -0.6512 -2.4809 -0.5495
19824TIP3   OH280962   3.305   1.648   1.528 -0.5696 -0.0734  0.1262
19824TIP3    H180963   3.345   1.608   1.605  1.9804 -0.9372 -1.5770
19824TIP3    H280964   3.346   1.734   1.521  0.9303 -0.8917 -1.5326
19825TIP3   OH280965   2.906   1.558  15.168 -0.5293  0.0980  0.4060
19825TIP3    H180966   2.996   1.590  15.173 -0.0091 -1.2631  0.0448
19825TIP3    H280967   2.901   1.513  15.083 -1.6108  0.3560  0.3254
19826TIP3   OH280968   3.186   5.333   6.151  0.5751 -0.2436  0.0685
19826TIP3    H180969   3.173   5.425   6.171  1.2545 -0.1550  0.1326
19826TIP3    H280970   3.223   5.296   6.232  2.9905  0.0399 -0.8753
19827TIP3   OH280971   0.821   6.515  12.275 -0.9071  0.2988 -0.4043
19827TIP3    H180972   0.767   6.442  12.308  0.2231 -0.1472  0.4788
19827TIP3    H280973   0.891   6.472  12.226  0.0072  0.7597  0.4771
19828TIP3   OH280974   0.244   0.016   2.578 -0.2877  0.5747  0.4100
19828TIP3    H180975   0.334   0.037   2.552 -0.5288  0.9812 -0.1181
19828TIP3    H280976   0.249  -0.074   2.610  0.0225  0.0305 -1.1160
19829TIP3   OH280977   2.208   6.617  11.950 -0.0253  0.4704 -0.5231
19829TIP3    H180978   2.268   6.684  11.984  0.7246 -0.0915 -0.7416
19829TIP3    H280979   2.192   6.642  11.860 -1.3090  1.4616 -0.0319
19830TIP3   OH280980   6.399   6.067  15.760 -0.9091 -0.1236  0.3398
19830TIP3    H180981   6.381   6.123  15.685  0.8710 -0.6733 -0.5221
19830TIP3    H280982   6.464   6.115  15.812  0.1980 -1.1085 -0.1076
19831TIP3   OH280983   4.455   3.790   5.846  0.1950 -0.0899 -0.1735
19831TIP3    H180984   4.530   3.793   5.906 -0.6159 -1.7448  0.9510
19831TIP3    H280985   4.379   3.786   5.904 -0.6875  0.0835 -1.3156
19832TIP3   OH280986   4.001   0.211  13.662 -0.3931 -0.1677 -0.3084
19832TIP3    H180987   3.988   0.259  13.744  0.3993 -0.0354 -0.2625
19832TIP3    H280988   4.084   0.165  13.674 -0.8156 -1.0215 -0.6130
19833TIP3   OH280989   5.479   6.539  12.057  0.0188  0.0946 -0.3599
19833TIP3    H180990   5.560   6.590  12.066  0.0720 -0.2654  1.2714
19833TIP3    H280991   5.445   6.563  11.971  0.5964  2.0962 -0.0524
19834TIP3   OH280992   4.724   6.020  12.143  0.7476  0.6211 -0.5008
19834TIP3    H180993   4.679   5.940  12.170  1.7572  0.3123  0.2729
19834TIP3    H280994   4.654   6.086  12.139 -0.0214 -0.2010 -0.7683
19835TIP3   OH280995   4.474   2.379  12.826 -0.0246 -0.0176 -0.1280
19835TIP3    H180996   4.478   2.342  12.914 -0.3470 -2.0868 -0.9576
19835TIP3    H280997   4.562   2.366  12.790  0.3337  1.5443  0.1667
19836TIP3   OH280998   2.078   4.533   2.995 -0.3640 -0.3606 -0.4141
19836TIP3    H180999   1.996   4.498   3.031  0.1395 -0.4486  0.6717
19836TIP3    H281000   2.137   4.538   3.070 -0.0356  1.6952 -0.7737
19837TIP3   OH281001   5.344   5.328  11.410 -0.4208 -0.1188 -0.3063
19837TIP3    H181002   5.297   5.398  11.364 -1.4073 -0.2082  0.5541
19837TIP3    H281003   5.435   5.340  11.384 -0.8008  0.5315 -1.3902
19838TIP3   OH281004   2.000   4.606  13.069 -0.0303  0.2093 -0.2865
19838TIP3    H181005   2.003   4.698  13.094  1.4090  0.0195  0.3174
19838TIP3    H281006   1.926   4.570  13.117 -0.6347  1.0603 -0.5718
19839TIP3   OH281007   4.179   0.183   1.824  0.6191 -0.1639  0.0351
19839TIP3    H181008   4.230   0.241   1.880 -2.0372  2.2310  0.0437
19839TIP3    H281009   4.116   0.142   1.883  0.5266 -0.8303 -0.5158
19840TIP3   OH281010   3.375   4.510  13.876 -0.4881  0.4891  0.1252
19840TIP3    H181011   3.428   4.589  13.890 -1.8269  1.5946 -0.9410
19840TIP3    H281012   3.374   4.498  13.781 -1.9397  0.3417  0.1522
19841TIP3   OH281013   0.449   4.465   2.759 -0.3762  0.3219 -0.0317
19841TIP3    H181014   0.412   4.477   2.672 -1.7628  1.3184  0.6797
19841TIP3    H281015   0.523   4.526   2.761  1.5549 -1.8771 -1.5513
19842TIP3   OH281016   4.784   3.602  13.772  0.1299 -0.4387 -0.5208
19842TIP3    H181017   4.738   3.628  13.692  1.3315 -2.3080 -1.8604
19842TIP3    H281018   4.726   3.538  13.813 -1.1939  1.6272  0.9516
19843TIP3   OH281019   0.777   5.649  16.698 -0.1507  0.1085  0.2246
19843TIP3    H181020   0.775   5.690  16.784 -1.7265  0.1137  0.2080
19843TIP3    H281021   0.748   5.559  16.713 -2.0078  0.5600 -0.5134
19844TIP3   OH281022   3.549   4.736  13.855  0.0846 -0.2789 -0.3814
19844TIP3    H181023   3.535   4.828  13.875 -0.4221 -0.1604 -1.2630
19844TIP3    H281024   3.596   4.736  13.772  0.7545 -0.8028 -0.0103
19845TIP3   OH281025   5.396   2.865  11.401  0.2029  0.4094  0.2204
19845TIP3    H181026   5.462   2.813  11.446 -0.8983 -0.8733  0.4051
19845TIP3    H281027   5.383   2.820  11.318  1.4834  2.1844 -0.9851
19846TIP3   OH281028   2.813   1.527  14.472 -0.0552  0.1825 -0.4579
19846TIP3    H181029   2.762   1.608  14.478  1.2492  0.9875 -0.0890
19846TIP3    H281030   2.756   1.466  14.426 -2.2046  0.3741  1.8540
19847TIP3   OH281031   1.581   4.058   1.766 -0.5659  0.6409 -0.0965
19847TIP3    H181032   1.504   4.035   1.818 -0.0373  0.0597  0.4339
19847TIP3    H281033   1.632   4.115   1.823  1.0778 -1.7236  0.8575
19848TIP3   OH281034   1.494   0.566   0.745 -0.2816 -0.2344 -0.4038
19848TIP3    H181035   1.494   0.641   0.804 -0.0775 -1.3227  1.0235
19848TIP3    H281036   1.574   0.575   0.694 -1.7522  2.1294 -2.4024
19849TIP3   OH281037   0.802   2.293   3.424  0.1443 -0.2883  0.5346
19849TIP3    H181038   0.736   2.337   3.478 -0.2808 -0.7153  0.3659
19849TIP3    H281039   0.834   2.362   3.366 -0.7294 -0.2556  0.0706
19850TIP3   OH281040   2.967   5.525  15.617  0.4800  0.5837  0.3332
19850TIP3    H181041   2.969   5.438  15.657  2.7582 -0.1406 -1.2667
19850TIP3    H281042   3.041   5.571  15.657 -0.8255  1.8719  1.3074
19851TIP3   OH281043   5.509   0.226   4.155  0.3333 -0.0593 -0.5726
19851TIP3    H181044   5.489   0.142   4.197 -0.0221  0.2644 -0.0915
19851TIP3    H281045   5.602   0.241   4.174  0.1369  0.1568  0.2254
19852TIP3   OH281046   0.375   5.080   4.063  0.0313 -0.0441 -0.8294
19852TIP3    H181047   0.395   5.005   4.008 -3.5498 -1.2018 -0.6667
19852TIP3    H281048   0.338   5.145   4.003 -3.6454 -1.2140  0.0410
19853TIP3   OH281049   5.979   0.200   0.680 -0.3672  0.8590  0.0417
19853TIP3    H181050   5.922   0.124   0.688  0.2242  0.3885 -0.1767
19853TIP3    H281051   6.040   0.192   0.753  0.1842  0.6993 -0.4321
19854TIP3   OH281052   2.024   4.142  15.040  0.5768  0.4068 -0.5048
19854TIP3    H181053   1.956   4.195  14.999 -1.1387 -0.4105  1.2166
19854TIP3    H281054   1.994   4.131  15.130  3.7151  1.2463  0.6893
19855TIP3   OH281055   3.049   3.861  13.542  0.5638 -0.3501  0.2024
19855TIP3    H181056   3.073   3.832  13.630  0.3838 -1.2116 -0.0294
19855TIP3    H281057   3.041   3.780  13.491 -0.6204  0.0596 -0.2772
19856TIP3   OH281058   3.611   0.377  15.583 -0.4108  0.0163 -0.5750
19856TIP3    H181059   3.626   0.294  15.538 -1.8373 -0.8864  0.5478
19856TIP3    H281060   3.650   0.364  15.670 -0.8103  0.4354 -0.3325
19857TIP3   OH281061   0.320   3.536   1.433 -0.6581 -0.3589  0.0459
19857TIP3    H181062   0.257   3.543   1.361 -0.6495  1.4517  0.1949
19857TIP3    H281063   0.371   3.617   1.428 -0.6182 -0.2397  2.0462
19858TIP3   OH281064   1.910   3.850   5.508 -0.5948  0.1787 -0.2978
19858TIP3    H181065   1.819   3.855   5.479 -0.1676 -2.5552 -2.2795
19858TIP3    H281066   1.912   3.776   5.568  0.3338  0.2327 -0.2565
19859TIP3   OH281067   6.097   6.209  12.056 -0.8373 -0.0715 -0.0990
19859TIP3    H181068   6.104   6.113  12.052 -1.0643 -0.1461  1.1291
19859TIP3    H281069   6.049   6.226  12.137 -1.6888  1.0423 -0.8247
19860TIP3   OH281070   4.763   2.735  15.321  0.2444  0.1262 -0.1145
19860TIP3    H181071   4.675   2.721  15.286 -0.9149  1.2586  2.2221
19860TIP3    H281072   4.766   2.682  15.401  0.6382  2.2390  1.3347
19861TIP3   OH281073   2.565   6.624  13.655  0.0033 -0.2180  0.1509
19861TIP3    H181074   2.585   6.541  13.699 -1.4223  0.0795  1.4059
19861TIP3    H281075   2.469   6.626  13.650  0.0689  0.6452 -1.2922
19862TIP3   OH281076   6.429   0.447   0.953  0.0220  0.4308 -0.0583
19862TIP3    H181077   6.340   0.442   0.988  2.4772  0.0089  6.8414
19862TIP3    H281078   6.448   0.541   0.949 -0.4402  0.4973 -0.9394
19863TIP3   OH281079   0.916   6.681  11.384  0.0971  0.4643  0.1715
19863TIP3    H181080   0.938   6.613  11.447 -0.4411 -0.1603 -0.3082
19863TIP3    H281081   0.854   6.738  11.430 -1.2325 -0.6747 -0.1927
19864TIP3   OH281082   6.298   2.659  12.746  0.0207  0.0024 -0.2196
19864TIP3    H181083   6.349   2.722  12.795  0.0382 -0.2503  0.0903
19864TIP3    H281084   6.210   2.695  12.743 -0.1929 -0.4231  0.7926
19865TIP3   OH281085   4.980   4.185  14.011  0.6028 -0.8623  0.1372
19865TIP3    H181086   4.904   4.220  13.964  0.9972 -0.2710 -0.0688
19865TIP3    H281087   4.956   4.192  14.104  0.2985 -0.9249  0.0640
19866TIP3   OH281088   2.270   4.725   4.028 -0.4527 -0.7795  0.0399
19866TIP3    H181089   2.345   4.706   4.085  0.7898  1.1609 -0.8498
19866TIP3    H281090   2.194   4.719   4.085  0.5496 -1.1565  1.3690
19867TIP3   OH281091   5.536   0.644  17.009 -0.2455 -0.7388 -0.1045
19867TIP3    H181092   5.472   0.579  17.038 -1.8240 -1.2902 -4.3628
19867TIP3    H281093   5.489   0.727  17.012 -0.1809 -0.6939 -0.2857
19868TIP3   OH281094   4.611   6.243   5.280 -0.1409 -0.1115 -0.2052
19868TIP3    H181095   4.674   6.202   5.340  0.7060  0.3237 -0.7809
19868TIP3    H281096   4.644   6.332   5.269 -1.6207  0.5562  0.5546
19869TIP3   OH281097   0.736   4.359   3.348 -0.1673  0.3172  0.0510
19869TIP3    H181098   0.778   4.386   3.429 -0.1180  3.2072 -0.8673
19869TIP3    H281099   0.650   4.327   3.374  0.9226 -1.5543  1.4894
19870TIP3   OH281100   2.993   2.283  12.885 -0.6721 -0.2425  0.2939
19870TIP3    H181101   3.012   2.367  12.843  1.3919 -1.0661 -0.4900
19870TIP3    H281102   2.947   2.306  12.965  0.9570  1.7100  0.7077
19871TIP3   OH281103   4.745   1.916   3.144  0.2007  0.2748  0.0390
19871TIP3    H181104   4.700   1.937   3.063 -0.2118 -4.4407 -1.0766
19871TIP3    H281105   4.675   1.907   3.209  0.1369 -0.2375 -0.0987
19872TIP3   OH281106   6.368   3.547   4.425 -0.1895  0.1789  0.4106
19872TIP3    H181107   6.436   3.558   4.491  0.3845 -2.4118  0.2677
19872TIP3    H281108   6.414   3.511   4.349 -1.3342  0.5011 -0.4469
19873TIP3   OH281109   1.780   4.166  11.522 -0.1502 -0.2345 -0.2818
19873TIP3    H181110   1.815   4.146  11.435 -0.3317 -0.1001 -0.3861
19873TIP3    H281111   1.752   4.258  11.516 -1.1825 -0.5465 -0.4255
19874TIP3   OH281112   3.293   6.438   3.492 -0.2281 -0.0894 -0.8564
19874TIP3    H181113   3.287   6.408   3.582  2.9601 -2.6518 -1.3650
19874TIP3    H281114   3.360   6.506   3.494  1.0351 -1.2760 -1.4638
19875TIP3   OH281115   2.695   2.723   3.726  0.2132 -0.1798 -0.5252
19875TIP3    H181116   2.635   2.744   3.799  1.1198 -1.6301  0.6721
19875TIP3    H281117   2.760   2.793   3.728 -0.3131  0.3192 -0.5723
19876TIP3   OH281118   5.419   1.210   3.999 -0.5410  0.5595  0.3392
19876TIP3    H181119   5.505   1.185   4.034  0.4100 -0.3533 -2.5395
19876TIP3    H281120   5.438   1.281   3.938 -1.6087 -0.6922 -1.4921
19877TIP3   OH281121   1.316   0.258   1.870 -0.4252 -0.1360  0.7434
19877TIP3    H181122   1.328   0.342   1.825 -0.2513 -0.1068  0.8425
19877TIP3    H281123   1.223   0.239   1.861 -0.8523  1.0459  2.4156
19878TIP3   OH281124   6.171   4.574  14.425 -0.1504 -0.1050  0.4454
19878TIP3    H181125   6.261   4.572  14.391 -0.5219  0.4877 -0.5947
19878TIP3    H281126   6.181   4.603  14.516  0.4277  3.5604 -0.7019
19879TIP3   OH281127   6.584   3.177   3.486  0.1518  0.0057  0.2791
19879TIP3    H181128   6.577   3.194   3.392 -1.6652  0.3377  0.4649
19879TIP3    H281129   6.629   3.092   3.491 -2.3363 -1.4680 -1.0111
19880TIP3   OH281130   6.061   6.006   5.362 -0.1793 -0.0881  0.2355
19880TIP3    H181131   6.044   6.056   5.442  2.9881  1.6386 -0.0797
19880TIP3    H281132   6.091   5.921   5.393 -2.4165 -0.6952  0.8132
19881TIP3   OH281133   2.538   2.289   6.241 -0.3350  0.0908  0.4484
19881TIP3    H181134   2.581   2.326   6.164 -1.1059 -1.2034 -0.6095
19881TIP3    H281135   2.601   2.227   6.277 -1.1481 -1.5644 -0.9164
19882TIP3   OH281136   3.391   6.662  11.474  0.0600 -0.5392 -0.6545
19882TIP3    H181137   3.442   6.583  11.489 -0.7304 -1.0015 -0.3711
19882TIP3    H281138   3.318   6.657  11.536 -0.9681 -0.4644 -1.8197
19883TIP3   OH281139   5.635   5.092  15.997  0.0491  0.0361 -0.7110
19883TIP3    H181140   5.680   5.019  16.041  0.0818 -0.0169 -0.8318
19883TIP3    H281141   5.614   5.058  15.910  0.2920  0.2600 -0.8575
19884TIP3   OH281142   3.210   6.021   2.367  0.1238 -0.2809  0.2916
19884TIP3    H181143   3.246   6.034   2.454  0.8353  0.5140 -0.1095
19884TIP3    H281144   3.260   5.946   2.332  0.8593  0.3276  0.0255
19885TIP3   OH281145   1.285   2.950   4.202 -0.6073  0.2614  0.7755
19885TIP3    H181146   1.356   2.898   4.240  0.9072  1.0591 -0.8489
19885TIP3    H281147   1.300   2.944   4.108 -2.6467  0.5646  0.4170
19886TIP3   OH281148   3.583   0.342   1.290  0.2654 -0.1441  0.6066
19886TIP3    H181149   3.496   0.369   1.321 -0.7799 -1.0487 -1.4339
19886TIP3    H281150   3.567   0.262   1.241  2.0895  0.3266 -0.8190
19887TIP3   OH281151   6.076   2.603   5.801 -0.1202  0.3399  0.1098
19887TIP3    H181152   6.140   2.571   5.737 -0.7038 -0.7844  0.0702
19887TIP3    H281153   6.004   2.541   5.795 -1.9368  2.4749 -0.9619
19888TIP3   OH281154   3.002   2.764  17.042  0.1576  0.1383 -0.2000
19888TIP3    H181155   2.955   2.802  16.968 -1.0925 -0.4162  0.2909
19888TIP3    H281156   2.947   2.691  17.070  1.6769 -0.9827 -0.0624
19889TIP3   OH281157   3.262   0.040   4.522 -0.8446 -0.6025  0.2499
19889TIP3    H181158   3.326  -0.031   4.514 -0.0278  0.2451 -1.0244
19889TIP3    H281159   3.227   0.031   4.611  0.5620 -1.4845  0.7396
19890TIP3   OH281160   3.334   5.802   0.638  0.5503 -0.0108  0.1591
19890TIP3    H181161   3.374   5.720   0.668  0.1752 -0.4654 -0.5403
19890TIP3    H281162   3.393   5.834   0.570  0.4824  0.0760  0.1410
19891TIP3   OH281163   4.150   6.305  16.090  0.1862 -0.1781 -0.2625
19891TIP3    H181164   4.101   6.282  16.011 -1.0719  0.9493  0.1491
19891TIP3    H281165   4.092   6.281  16.162 -1.0026  3.6588  0.1900
19892TIP3   OH281166   1.257   3.310   6.480 -0.1540  0.1251  0.3302
19892TIP3    H181167   1.185   3.328   6.419  0.2463  0.2317 -0.1174
19892TIP3    H281168   1.215   3.302   6.566 -0.7804 -0.4355 -0.0182
19893TIP3   OH281169   4.638   0.207  15.674  0.6317 -0.1864  0.0308
19893TIP3    H181170   4.649   0.298  15.646 -2.4875 -0.0778 -0.9914
19893TIP3    H281171   4.566   0.209  15.737  1.4787 -1.7667  1.0897
19894TIP3   OH281172   0.597   1.804  14.285  0.4088  0.3126 -0.1455
19894TIP3    H181173   0.638   1.768  14.363 -0.8252 -0.3844  0.1908
19894TIP3    H281174   0.549   1.881  14.315  1.2639  0.9896 -0.4968
19895TIP3   OH281175   0.109   0.791   2.867 -0.0948  0.6488  0.3860
19895TIP3    H181176   0.111   0.857   2.797 -1.9805 -0.4831 -0.7774
19895TIP3    H281177   0.176   0.728   2.843  0.1140  0.9148  0.2636
19896TIP3   OH281178   1.945   1.899  14.564  0.6422 -0.2561 -0.4517
19896TIP3    H181179   1.911   1.868  14.480  0.2250 -0.1215 -0.3330
19896TIP3    H281180   1.911   1.988  14.573  0.7534 -0.2404 -0.1744
19897TIP3   OH281181   2.614   0.130  16.734 -0.1395  0.1083  0.0811
19897TIP3    H181182   2.549   0.135  16.664  0.8353  0.2584 -0.8255
19897TIP3    H281183   2.671   0.205  16.720 -0.2018  0.3849  1.3070
19898TIP3   OH281184   3.649   5.616  15.139 -0.0205 -0.9238  0.1475
19898TIP3    H181185   3.662   5.522  15.148  1.1419 -0.5486  3.1097
19898TIP3    H281186   3.730   5.648  15.097 -0.0277 -1.1295 -0.0206
19899TIP3   OH281187   4.410   1.531   3.871 -0.4880 -0.0363  0.7510
19899TIP3    H181188   4.405   1.458   3.809  0.3959  0.7198 -0.2247
19899TIP3    H281189   4.456   1.495   3.946 -1.9871 -1.1021  1.2010
19900TIP3   OH281190   1.065   4.398  10.789  0.0636 -0.4779 -0.2063
19900TIP3    H181191   1.079   4.304  10.794  0.1281 -0.5232 -1.0970
19900TIP3    H281192   0.982   4.408  10.742  1.6404 -0.0669 -3.0839
19901TIP3   OH281193   1.379   4.605   1.624  0.2872  0.2294  0.0920
19901TIP3    H181194   1.331   4.685   1.602  0.8464  0.8614  1.1200
19901TIP3    H281195   1.326   4.564   1.692  0.0173 -0.2637 -0.4126
19902TIP3   OH281196   6.125   1.422  16.428  0.1214  0.3065 -0.3271
19902TIP3    H181197   6.039   1.380  16.430  0.4735 -0.4480 -0.7911
19902TIP3    H281198   6.110   1.506  16.384 -0.4563  0.3556 -0.0342
19903TIP3   OH281199   4.760   2.261  14.027 -0.0355  0.1535  0.2093
19903TIP3    H181200   4.831   2.202  14.054  0.1877  0.5260  0.4399
19903TIP3    H281201   4.702   2.206  13.975  0.9240  0.0775 -0.7964
19904TIP3   OH281202   3.285   5.687  13.075 -0.3554  0.7421 -0.6683
19904TIP3    H181203   3.334   5.671  12.995  1.4770 -0.1755  0.5889
19904TIP3    H281204   3.349   5.677  13.145 -2.3125 -0.4919  1.0405
19905TIP3   OH281205   6.444   5.730  15.150  0.1126  0.2522  0.2365
19905TIP3    H181206   6.487   5.711  15.234 -1.1318  1.7017  1.2294
19905TIP3    H281207   6.512   5.714  15.084  1.6326  0.7340  1.6456
19906TIP3   OH281208   5.437   2.866   3.642 -0.0117 -0.4827  0.7030
19906TIP3    H181209   5.353   2.822   3.632  0.5357 -1.7864  1.7221
19906TIP3    H281210   5.496   2.799   3.676  0.9250  0.9389  1.9748
19907TIP3   OH281211   2.880   3.493   2.617 -0.1526  0.5781  0.3321
19907TIP3    H181212   2.844   3.404   2.624  0.2039  0.2734 -1.4684
19907TIP3    H281213   2.973   3.483   2.635 -0.0019  0.4812 -0.4863
19908TIP3   OH281214   0.044   5.793   0.219  0.0336 -0.1971  0.2694
19908TIP3    H181215   0.104   5.844   0.165  2.3468 -0.4374  2.4769
19908TIP3    H281216  -0.019   5.857   0.252  1.1717  0.7334  0.6843
19909TIP3   OH281217   4.932   3.272   4.898 -0.5707 -0.0903  0.9495
19909TIP3    H181218   4.988   3.195   4.910 -0.9718 -0.5947 -0.3805
19909TIP3    H281219   4.992   3.340   4.866 -0.2802  0.0744  1.8145
19910TIP3   OH281220   0.496   4.867  16.495  0.2755 -0.8811 -0.1562
19910TIP3    H181221   0.510   4.959  16.517  1.2221 -1.5290  2.0251
19910TIP3    H281222   0.535   4.857  16.408  2.5630  0.1537  0.7249
19911TIP3   OH281223   2.008   3.750   4.901  0.1305  0.5367 -0.0828
19911TIP3    H181224   1.979   3.841   4.910 -1.4581  0.1198 -0.8968
19911TIP3    H281225   2.004   3.733   4.807 -1.5858 -1.0080  0.2425
19912TIP3   OH281226   1.866   3.074  11.660  0.1061  0.3171  0.4570
19912TIP3    H181227   1.781   3.032  11.668  0.2844 -0.9489 -3.1442
19912TIP3    H281228   1.850   3.154  11.610  0.7609  1.0183  1.3549
19913TIP3   OH281229   4.277   5.743   4.483 -0.7544  0.2322  0.5451
19913TIP3    H181230   4.274   5.650   4.504  0.7478  0.0203 -0.1021
19913TIP3    H281231   4.211   5.783   4.540 -0.8084 -1.1039  1.4390
19914TIP3   OH281232   1.907   0.199   2.450 -0.1102  0.1666 -0.2248
19914TIP3    H181233   1.884   0.230   2.363  1.6150  1.2818 -0.3127
19914TIP3    H281234   1.840   0.236   2.507 -1.3414 -0.7126 -1.0878
19915TIP3   OH281235   6.097   0.689   3.955 -0.2022  0.0991  0.1166
19915TIP3    H181236   6.062   0.753   3.894  2.0018  0.3656 -0.9306
19915TIP3    H281237   6.083   0.728   4.042  0.0628  1.4604 -0.4427
19916TIP3   OH281238   3.873   5.586   0.835  0.4319 -0.0938  0.5290
19916TIP3    H181239   3.870   5.600   0.741  0.0030  0.0008  0.5543
19916TIP3    H281240   3.937   5.516   0.847  0.1890 -0.3856  0.1343
19917TIP3   OH281241   0.861   6.681   2.568 -0.2053 -0.5745  0.4902
19917TIP3    H181242   0.874   6.768   2.529  0.6290 -0.4925  0.9424
19917TIP3    H281243   0.772   6.656   2.542 -0.2851  0.2215 -0.0184
19918TIP3   OH281244   1.666   5.480  16.055  1.0788  0.2031 -0.1517
19918TIP3    H181245   1.713   5.467  15.973 -0.8594  0.0376 -1.2642
19918TIP3    H281246   1.661   5.393  16.094  0.2505 -0.0687 -0.8490
19919TIP3   OH281247   6.182   1.742   5.735  0.4689  0.3068  0.1973
19919TIP3    H181248   6.241   1.731   5.660  1.0550 -0.1320  0.7199
19919TIP3    H281249   6.101   1.774   5.696  0.6714 -0.1980 -0.6624
19920TIP3   OH281250   2.245   5.805  14.795  0.0834 -0.1253  0.0370
19920TIP3    H181251   2.186   5.848  14.733 -2.6487 -0.2253  2.4710
19920TIP3    H281252   2.242   5.713  14.771  0.0904  0.0117 -0.5052
19921TIP3   OH281253   3.672   3.049  13.292 -0.5902 -0.0608 -0.0327
19921TIP3    H181254   3.704   2.990  13.224  0.4526  0.7692 -0.2860
19921TIP3    H281255   3.664   3.134  13.247 -1.2033  0.1907  0.5429
19922TIP3   OH281256   0.087   1.392   5.898 -0.4659 -0.3357 -0.6336
19922TIP3    H181257   0.065   1.465   5.840 -0.1531 -0.5033 -0.9614
19922TIP3    H281258   0.088   1.432   5.985  1.8322  0.5328 -1.0226
19923TIP3   OH281259   4.552   5.283  11.202 -0.5473  0.7582 -0.2634
19923TIP3    H181260   4.629   5.281  11.145  0.5996  0.3759  1.2709
19923TIP3    H281261   4.479   5.298  11.142  0.4909 -0.7362 -1.9537
19924TIP3   OH281262   4.525   0.992   1.321  0.1065 -0.2806  0.0403
19924TIP3    H181263   4.600   0.949   1.279 -0.3912 -1.6244  0.5017
19924TIP3    H281264   4.528   1.082   1.289  2.6582  0.0132  1.0359
19925TIP3   OH281265   0.537   2.183   2.042  0.5012  0.0078  0.2087
19925TIP3    H181266   0.548   2.273   2.074  1.0430  0.5486 -1.4742
19925TIP3    H281267   0.549   2.128   2.120 -1.0830  1.4380  1.5028
19926TIP3   OH281268   4.692   1.891  14.009  0.4574 -0.6002  0.3671
19926TIP3    H181269   4.605   1.929  13.999  1.2208  0.3894 -3.0516
19926TIP3    H281270   4.677   1.804  14.046 -1.6530  1.0696  3.6116
19927TIP3   OH281271   4.916   3.821   2.557  0.8913  0.9247 -0.0200
19927TIP3    H181272   4.875   3.834   2.471  2.1381 -1.3474 -1.0005
19927TIP3    H281273   4.845   3.790   2.612  1.0214 -2.1419 -1.4867
19928TIP3   OH281274   1.613   3.715  12.149 -0.2804 -0.6129 -0.1173
19928TIP3    H181275   1.622   3.777  12.077  1.8839  0.1519  0.7676
19928TIP3    H281276   1.571   3.765  12.219  0.2283 -0.5416  0.1346
19929TIP3   OH281277   2.580   0.431   1.446 -0.3239 -0.2108 -0.0724
19929TIP3    H181278   2.658   0.394   1.488  0.3177 -0.1035 -1.1474
19929TIP3    H281279   2.508   0.376   1.476  0.3409 -1.0910 -0.0536
19930TIP3   OH281280   4.691   2.368  11.716 -0.4208  0.3359 -0.0231
19930TIP3    H181281   4.746   2.433  11.673  1.1295 -0.9451 -0.0237
19930TIP3    H281282   4.664   2.309  11.646  2.2196 -1.8343  0.7039
19931TIP3   OH281283   2.509   1.309   0.209 -0.0670 -0.4747 -0.2735
19931TIP3    H181284   2.563   1.332   0.285 -0.1829 -1.9709  0.2687
19931TIP3    H281285   2.498   1.214   0.214 -1.9420 -0.3236 -0.9106
19932TIP3   OH281286   1.676   3.587   6.198  0.7421  0.0297  0.3657
19932TIP3    H181287   1.638   3.633   6.273 -0.3378 -0.3652  0.0760
19932TIP3    H281288   1.687   3.496   6.228  0.2993 -0.1303  0.0454
19933TIP3   OH281289   2.322   2.262   0.050  0.7089 -0.0306 -0.3286
19933TIP3    H181290   2.302   2.288   0.140 -2.8887  0.5126 -1.2035
19933TIP3    H281291   2.417   2.270   0.043  0.9095  1.2339  3.0140
19934TIP3   OH281292   0.905   3.758   4.563  0.0668  0.4755 -0.4307
19934TIP3    H181293   0.919   3.811   4.642 -1.3524  0.2776 -0.0200
19934TIP3    H281294   0.930   3.669   4.589 -1.5069  0.1925  0.1778
19935TIP3   OH281295   0.102   1.346  16.566  0.0720  0.3787 -0.0275
19935TIP3    H181296   0.134   1.318  16.480 -3.1448  1.0452 -1.5173
19935TIP3    H281297   0.109   1.268  16.621  4.2831  0.5348 -0.1792
19936TIP3   OH281298   0.507   6.219   0.763  0.4341  0.0179 -0.3001
19936TIP3    H181299   0.440   6.151   0.753 -0.4816  1.0791 -1.4820
19936TIP3    H281300   0.550   6.198   0.846 -1.3854 -0.6377  0.4932
19937TIP3   OH281301   3.557   0.938   4.076  0.4032  0.6593 -1.0804
19937TIP3    H181302   3.497   0.998   4.120  1.8493  1.3065  0.0702
19937TIP3    H281303   3.505   0.860   4.060 -0.2585  0.4583  1.6898
19938TIP3   OH281304   3.939   3.467   0.455 -0.4293 -0.2949 -0.3275
19938TIP3    H181305   3.987   3.546   0.430  2.6669 -0.6744  3.8551
19938TIP3    H281306   3.989   3.395   0.417 -0.4083 -0.4562  0.0013
19939TIP3   OH281307   4.454   0.387  14.847 -0.3051  0.7192  0.6573
19939TIP3    H181308   4.500   0.471  14.837  1.1047  0.2359  2.7107
19939TIP3    H281309   4.388   0.404  14.914 -2.5584  1.1510 -1.6047
19940TIP3   OH281310   2.457   4.607  13.453 -0.6062  0.0977  0.1535
19940TIP3    H181311   2.489   4.643  13.536  2.2493 -1.2905 -0.2928
19940TIP3    H281312   2.447   4.513  13.470 -1.9257  0.1089 -0.5196
19941TIP3   OH281313   6.543   0.048  16.427  0.1568 -0.2270  0.2454
19941TIP3    H181314   6.577  -0.005  16.355 -0.8469  0.3618 -0.6867
19941TIP3    H281315   6.451   0.061  16.405  0.1692  1.0980  0.9527
19942TIP3   OH281316   3.958   5.151  12.000 -0.8959  0.2577  0.0022
19942TIP3    H181317   4.021   5.162  11.929 -0.3736  1.4253  0.6345
19942TIP3    H281318   3.910   5.234  12.002 -1.1466  0.0952  0.7930
19943TIP3   OH281319   4.609   0.821  14.404 -0.2220 -0.1496 -0.1460
19943TIP3    H181320   4.656   0.851  14.481 -0.1976  0.6658 -0.4765
19943TIP3    H281321   4.551   0.893  14.381  2.0271  0.9185 -2.7621
19944TIP3   OH281322   1.091   5.519  16.758  0.2719 -0.4062  0.1302
19944TIP3    H181323   1.016   5.560  16.716 -0.9980 -2.2364  0.5521
19944TIP3    H281324   1.072   5.426  16.756  1.5813 -0.7571  2.0595
19945TIP3   OH281325   5.058   0.044   6.339 -0.6362 -0.1023  0.2239
19945TIP3    H181326   5.085   0.130   6.373 -1.4580 -0.2852  1.3993
19945TIP3    H281327   4.962   0.050   6.335 -0.7093 -1.0533  0.5430
19946TIP3   OH281328   2.629   6.796   5.600 -0.5895 -0.3413 -0.6462
19946TIP3    H181329   2.657   6.887   5.591 -2.3658  0.1395 -1.5791
19946TIP3    H281330   2.639   6.759   5.512 -1.8256 -0.4454 -0.7562
19947TIP3   OH281331   1.596   2.380  11.567 -0.4077  0.1598  0.0156
19947TIP3    H181332   1.511   2.416  11.595 -1.2353 -0.5737 -1.4716
19947TIP3    H281333   1.657   2.453  11.574 -1.2026  0.7432  0.9488
19948TIP3   OH281334   2.364   0.848   3.574 -0.0152 -0.3369  0.4476
19948TIP3    H181335   2.336   0.760   3.599 -0.7217 -0.2718 -0.0999
19948TIP3    H281336   2.451   0.835   3.535  0.0231 -0.7512  0.6701
19949TIP3   OH281337   1.410   3.993   3.693  0.1440 -0.2804 -0.3368
19949TIP3    H181338   1.352   4.049   3.744 -0.5386 -1.2123 -0.0779
19949TIP3    H281339   1.355   3.958   3.624  1.0240  0.8434 -1.6443
19950TIP3   OH281340   1.057   2.171   3.421  0.1298  0.9504 -0.1277
19950TIP3    H181341   1.069   2.168   3.326  0.0119  0.8858 -0.1408
19950TIP3    H281342   0.967   2.200   3.433 -0.8432 -1.9061 -0.0923
19951TIP3   OH281343   2.230   6.311  16.407 -0.7275 -0.1112  0.1764
19951TIP3    H181344   2.273   6.283  16.326  0.9109  1.4933  0.4579
19951TIP3    H281345   2.229   6.233  16.462 -0.3830 -0.8036 -0.7992
19952TIP3   OH281346   5.753   6.760  14.578 -0.2730 -0.5882  0.3948
19952TIP3    H181347   5.802   6.720  14.650 -0.3975 -0.2492  0.6733
19952TIP3    H281348   5.693   6.691  14.548  0.5329 -1.0765 -0.1054
19953TIP3   OH281349   3.827   2.756  17.013 -0.5224  0.2390 -0.2978
19953TIP3    H181350   3.811   2.676  17.065 -1.8535  0.2089 -0.7264
19953TIP3    H281351   3.845   2.823  17.078 -1.5308  0.0556  0.1808
19954TIP3   OH281352   4.521   3.807  12.619  0.0689  0.5248 -0.2200
19954TIP3    H181353   4.616   3.818  12.614  0.2415 -0.9660 -0.4630
19954TIP3    H281354   4.490   3.885  12.664  1.2891  1.5674 -1.1703
19955TIP3   OH281355   3.254   5.237   1.272  0.1265 -0.8482  0.2378
19955TIP3    H181356   3.167   5.255   1.307  0.0793  0.2236 -0.4350
19955TIP3    H281357   3.240   5.167   1.209 -0.0441 -1.5845  1.0746
19956TIP3   OH281358   0.102   5.733   3.426  0.3295  0.3778 -0.0851
19956TIP3    H181359   0.131   5.795   3.493 -2.4913  1.0488  0.5613
19956TIP3    H281360   0.118   5.647   3.464 -0.8518  0.7566  1.3019
19957TIP3   OH281361   5.876   6.518  11.524  0.0544  0.1346  0.2337
19957TIP3    H181362   5.912   6.509  11.612  0.5894 -1.7773 -0.1714
19957TIP3    H281363   5.796   6.570  11.536  0.6450  0.7448  1.6956
19958TIP3   OH281364   6.590   5.033   2.305 -0.2872  0.1667 -0.1590
19958TIP3    H181365   6.604   4.986   2.387  1.8011 -0.9163 -1.1096
19958TIP3    H281366   6.542   4.971   2.250  0.5964 -0.0776 -0.6617
19959TIP3   OH281367   1.507   5.425   5.701  0.5775  0.5493  0.3089
19959TIP3    H181368   1.524   5.485   5.774  0.8648 -0.2677  0.9211
19959TIP3    H281369   1.584   5.367   5.700 -0.5040 -0.9339  0.8574
19960TIP3   OH281370   5.988   2.211  14.090 -0.6054 -0.4106 -0.2171
19960TIP3    H181371   6.009   2.171  14.005 -2.2049  0.2493 -0.9413
19960TIP3    H281372   5.947   2.294  14.067  0.4381  0.5101  1.2471
19961TIP3   OH281373   5.795   0.246   4.188 -0.3074 -0.1327  0.4337
19961TIP3    H181374   5.801   0.152   4.207  0.0178 -0.0526  0.7506
19961TIP3    H281375   5.811   0.288   4.272 -0.1481  0.2112  0.2339
19962TIP3   OH281376   6.353   1.928   5.201 -0.4293 -0.0271 -0.3509
19962TIP3    H181377   6.269   1.955   5.239 -0.5235 -1.1740  0.2633
19962TIP3    H281378   6.418   1.984   5.244 -0.9517  1.5209 -1.5082
19963TIP3   OH281379   1.092   4.889   4.742 -0.2284 -0.0970  0.0444
19963TIP3    H181380   1.158   4.958   4.731 -0.9206  0.1655 -2.9041
19963TIP3    H281381   1.141   4.812   4.769  0.9970  0.7080  0.1275
19964TIP3   OH281382   4.081   4.037  12.715  0.3789 -0.3889  0.5709
19964TIP3    H181383   4.113   3.965  12.770 -1.9292 -0.8945  1.3295
19964TIP3    H281384   4.099   4.116  12.766 -0.0277 -0.7094  1.2236
19965TIP3   OH281385   0.453   2.132  12.409  0.0197 -0.2860 -0.1221
19965TIP3    H181386   0.393   2.071  12.364 -0.3887 -0.2737  0.4004
19965TIP3    H281387   0.518   2.075  12.450 -1.5135 -0.5200  2.0655
19966TIP3   OH281388   5.507   4.262   4.250  0.3692  0.1455  1.0579
19966TIP3    H181389   5.515   4.166   4.253 -0.5685  0.0503  0.9155
19966TIP3    H281390   5.415   4.278   4.272  0.6365  1.0414  1.5145
19967TIP3   OH281391   3.035   4.094  12.488 -0.5903  0.6542  0.6467
19967TIP3    H181392   3.056   4.049  12.406  0.9347 -0.0030  1.3596
19967TIP3    H281393   2.981   4.168  12.463  0.1408  0.6442 -0.9850
19968TIP3   OH281394   5.650   0.898  12.205  0.0830 -0.2237  0.2711
19968TIP3    H181395   5.583   0.830  12.213  0.9475 -1.1656 -0.4048
19968TIP3    H281396   5.704   0.870  12.132 -0.0351  1.6262 -0.5535
19969TIP3   OH281397   6.250   1.803  12.525 -0.1955 -0.0135  0.2732
19969TIP3    H181398   6.280   1.748  12.597 -1.3726 -1.4189 -0.2829
19969TIP3    H281399   6.267   1.893  12.554  0.4081 -0.6143  1.7985
19970TIP3   OH281400   1.736   1.711  14.928  0.1964 -0.0850  0.0103
19970TIP3    H181401   1.727   1.786  14.869  1.3601 -0.1020 -0.1960
19970TIP3    H281402   1.721   1.746  15.015 -1.6288 -0.0758 -0.2919
19971TIP3   OH281403   1.410   5.395  12.310 -0.4196  0.1738 -0.1235
19971TIP3    H181404   1.388   5.303  12.302 -2.6648  0.4884  1.8914
19971TIP3    H281405   1.501   5.396  12.339  0.4082 -1.3110 -2.5306
19972TIP3   OH281406   1.785   6.021   4.599  0.3928  0.2902  0.5253
19972TIP3    H181407   1.701   6.060   4.620 -0.7156 -1.3311 -0.7199
19972TIP3    H281408   1.763   5.940   4.553  2.6082  1.5966 -3.1081
19973TIP3   OH281409   3.155   5.405   2.495 -0.2978 -0.1918  0.3703
19973TIP3    H181410   3.251   5.401   2.488 -0.3603 -0.3345 -0.4370
19973TIP3    H281411   3.126   5.316   2.475 -0.8455  0.8084 -3.5848
19974TIP3   OH281412   5.742   5.070   2.685  0.1344 -0.5501 -0.0384
19974TIP3    H181413   5.719   5.052   2.777 -1.0083 -2.9228 -0.7273
19974TIP3    H281414   5.742   5.165   2.678 -1.5834 -0.3536  2.0079
19975TIP3   OH281415   0.792   5.568   3.525 -0.1178 -0.1459  0.0458
19975TIP3    H181416   0.748   5.652   3.540 -0.1926 -0.0050 -0.9444
19975TIP3    H281417   0.881   5.582   3.558 -0.2935  0.1421  0.4010
19976TIP3   OH281418   3.450   2.957   6.743 -0.2362  0.2106 -0.1102
19976TIP3    H181419   3.482   2.960   6.653 -0.7140  3.0111 -0.2161
19976TIP3    H281420   3.357   2.978   6.737 -0.6265 -1.1100  0.9099
19977TIP3   OH281421   6.357   1.329  15.327 -0.1735 -1.1812  0.4289
19977TIP3    H181422   6.362   1.270  15.252  0.1201  0.6232 -1.0270
19977TIP3    H281423   6.359   1.417  15.288  0.9026 -0.1992  2.6019
19978TIP3   OH281424   0.030   4.293   6.223  0.1480  0.1335  0.2393
19978TIP3    H181425   0.005   4.360   6.159 -0.9660 -1.7208 -1.3239
19978TIP3    H281426  -0.053   4.252   6.248  0.7555 -0.2807  1.6293
19979TIP3   OH281427   3.010   2.990   5.884  0.1386  0.0798 -0.3046
19979TIP3    H181428   3.068   2.917   5.862  1.7216  1.2674 -0.2454
19979TIP3    H281429   3.015   2.996   5.980  2.2249  1.9553 -0.4794
19980TIP3   OH281430   1.832   4.720   3.103  0.1831  0.3245  0.2360
19980TIP3    H181431   1.836   4.787   3.171 -1.5464  0.6408  0.0264
19980TIP3    H281432   1.848   4.637   3.150  1.7433  0.7875  0.5764
19981TIP3   OH281433   3.542   5.203   3.147  0.2689 -0.0882  0.1273
19981TIP3    H181434   3.569   5.117   3.180  3.2647  1.2819  1.4210
19981TIP3    H281435   3.553   5.196   3.052  1.3012 -0.8848  0.2951
19982TIP3   OH281436   1.017   5.344  17.024 -0.2615 -0.6885  0.0316
19982TIP3    H181437   1.023   5.308  16.935  0.1037 -0.9634  0.1723
19982TIP3    H281438   1.001   5.438  17.010  1.1060 -0.4910 -0.3379
19983TIP3   OH281439   5.600   2.133   3.841 -0.3963  0.7709  0.0161
19983TIP3    H181440   5.572   2.042   3.852  1.0768  0.3868  0.7783
19983TIP3    H281441   5.696   2.129   3.842 -0.2974  2.1909 -1.1504
19984TIP3   OH281442   0.267   2.199   2.141 -0.3021 -0.0677 -0.0770
19984TIP3    H181443   0.236   2.215   2.052 -0.4099  2.6225  0.3996
19984TIP3    H281444   0.363   2.208   2.135 -0.3714  0.9591  0.2149
19985TIP3   OH281445   3.625   0.819   5.732  0.5016  0.1724 -0.1701
19985TIP3    H181446   3.569   0.888   5.767 -1.4772 -1.0346 -0.8640
19985TIP3    H281447   3.582   0.792   5.650  1.3828 -1.6698 -0.0505
19986TIP3   OH281448   0.489   3.187   4.029  0.3900 -0.4392  0.3299
19986TIP3    H181449   0.453   3.246   3.963 -0.7364 -0.8149  0.6095
19986TIP3    H281450   0.558   3.138   3.983 -0.2679 -0.5674 -0.5182
19987TIP3   OH281451   1.205   1.243   3.680  0.2897  0.2553  0.3518
19987TIP3    H181452   1.248   1.207   3.757  1.9185  1.9271  0.2520
19987TIP3    H281453   1.111   1.241   3.701  0.6751  0.1244  2.1048
19988TIP3   OH281454   2.703   3.595  12.930 -0.2425 -0.2389  0.0199
19988TIP3    H181455   2.687   3.592  13.024 -3.4300  0.2497 -0.4700
19988TIP3    H281456   2.746   3.512  12.910  2.6746  0.6536  2.2480
19989TIP3   OH281457   4.221   5.898   6.133 -0.3546  0.2796 -0.0741
19989TIP3    H181458   4.191   5.858   6.214  0.1440 -0.9399 -0.4736
19989TIP3    H281459   4.170   5.854   6.065  0.4061  0.1076 -0.5405
19990TIP3   OH281460   5.449   3.964   2.451  0.1779 -0.9189 -0.3777
19990TIP3    H181461   5.541   3.966   2.477 -0.0989 -1.0539  0.6585
19990TIP3    H281462   5.412   3.889   2.498 -0.1434 -1.7196 -1.9023
19991TIP3   OH281463   6.460   5.046   1.193 -0.6252  0.3178  0.4393
19991TIP3    H181464   6.549   5.039   1.160 -0.7560  0.6363  0.0150
19991TIP3    H281465   6.463   5.118   1.256 -0.8893  1.2570 -0.6128
19992TIP3   OH281466   0.487   5.899   5.601  0.1370 -0.2739  0.3820
19992TIP3    H181467   0.535   5.835   5.548  0.8149  0.5466  0.0028
19992TIP3    H281468   0.396   5.891   5.571  0.3459 -0.5195 -0.1954
19993TIP3   OH281469   3.761   2.117  14.742 -0.0689 -0.7681 -0.3466
19993TIP3    H181470   3.716   2.201  14.733 -3.3309 -2.6489 -2.8241
19993TIP3    H281471   3.766   2.103  14.836 -4.0534 -0.0485  0.0718
19994TIP3   OH281472   3.875   6.303  11.228  0.0012 -0.1145 -0.3149
19994TIP3    H181473   3.836   6.388  11.248 -0.8892 -0.6706  0.3530
19994TIP3    H281474   3.810   6.239  11.259  0.9794 -1.0387 -0.1460
19995TIP3   OH281475   3.713   2.594  11.835 -0.0454 -0.3487 -0.2481
19995TIP3    H181476   3.716   2.525  11.901  0.2206  0.1878  0.3015
19995TIP3    H281477   3.806   2.612  11.816 -0.1160 -0.2130 -0.4645
19996TIP3   OH281478   2.790   3.525   2.326 -0.3722 -0.0438  0.0161
19996TIP3    H181479   2.729   3.596   2.348  0.3407  0.4288  0.4625
19996TIP3    H281480   2.866   3.540   2.382  0.2409 -0.5178 -0.6809
19997TIP3   OH281481   4.995   6.316   0.906 -0.5969 -0.3012  0.1278
19997TIP3    H181482   4.939   6.261   0.961 -0.8840 -0.0749  0.0627
19997TIP3    H281483   5.078   6.269   0.901 -0.6108 -0.3784  0.6577
19998TIP3   OH281484   2.564   1.718   2.744  0.1506  0.3497 -0.3769
19998TIP3    H181485   2.519   1.723   2.660 -1.4713 -2.6317  0.2345
19998TIP3    H281486   2.503   1.754   2.807 -0.3308 -1.1638  0.0586
19999TIP3   OH281487   1.022   1.531   2.080 -0.0273 -0.2982  0.4694
19999TIP3    H181488   1.026   1.588   2.157  0.5626 -0.3619  0.4875
19999TIP3    H281489   1.103   1.480   2.084  1.0473  1.1939 -1.3285
20000TIP3   OH281490   1.197   3.905  11.383 -0.6549 -0.0846  0.0431
20000TIP3    H181491   1.159   3.870  11.302 -0.8818  0.8622 -0.2672
20000TIP3    H281492   1.128   3.960  11.420 -0.5206 -0.4532  0.8404
20001TIP3   OH281493   3.515   0.254   6.004 -0.1940 -0.5984  0.1175
20001TIP3    H181494   3.564   0.217   6.077  2.1575  1.2806 -0.4674
20001TIP3    H281495   3.464   0.180   5.971  1.4296 -2.3653  1.4070
20002TIP3   OH281496   4.142   6.665   1.612  0.5958 -0.6591  0.5599
20002TIP3    H181497   4.065   6.719   1.631  0.3325 -1.3512  1.5142
20002TIP3    H281498   4.137   6.648   1.518  0.7281  1.0417  0.2447
20003TIP3   OH281499   4.588   5.076   1.024  0.0988  0.0646  0.0971
20003TIP3    H181500   4.627   5.014   0.962  1.1040  0.1756  0.6023
20003TIP3    H281501   4.585   5.159   0.977 -1.2216 -0.3462 -0.5715
20004TIP3   OH281502   0.404   2.715  14.826 -0.0714 -0.4686 -0.2833
20004TIP3    H181503   0.467   2.681  14.889  1.1565 -0.1178 -1.2955
20004TIP3    H281504   0.446   2.793  14.790 -2.1394  1.1971  0.8087
20005TIP3   OH281505   2.851   4.200  15.633  0.3591  0.2485  0.0652
20005TIP3    H181506   2.808   4.182  15.717 -0.5956  1.1271 -0.2203
20005TIP3    H281507   2.933   4.243  15.656  0.0782  0.5335  0.5577
20006TIP3   OH281508   6.618   0.090  16.711  0.4013 -0.1822 -0.5119
20006TIP3    H181509   6.557   0.157  16.740  0.3474 -0.0168 -1.0196
20006TIP3    H281510   6.601   0.079  16.618  2.1631  0.9327 -1.0026
20007TIP3   OH281511   0.726   3.907   1.702  0.1913 -0.2569  0.6892
20007TIP3    H181512   0.670   3.984   1.693  0.0271 -0.5466 -1.0026
20007TIP3    H281513   0.814   3.938   1.676  0.2710 -0.4473  0.7307
20008TIP3   OH281514   1.178   2.088  12.008 -0.6592 -0.7027 -0.1965
20008TIP3    H181515   1.149   1.998  12.012 -0.5263 -0.7234  0.4065
20008TIP3    H281516   1.254   2.086  11.950 -0.2410 -1.1021  0.3468
20009TIP3   OH281517   0.068   0.482  14.313 -0.4680  0.0619 -0.2092
20009TIP3    H181518   0.042   0.463  14.223  0.3697 -0.9690 -0.2439
20009TIP3    H281519   0.157   0.517  14.306 -0.4036 -0.0109  0.2069
20010TIP3   OH281520   0.184   1.536  12.263 -0.2595  0.1291 -0.1659
20010TIP3    H181521   0.126   1.589  12.317 -2.3153 -2.4907  0.3051
20010TIP3    H281522   0.265   1.529  12.314  1.2506  5.2442 -1.5991
20011TIP3   OH281523   5.670   6.394  14.216  1.0533  0.3991 -0.0982
20011TIP3    H181524   5.609   6.433  14.280 -0.8904  1.4067 -2.4835
20011TIP3    H281525   5.716   6.469  14.179  2.2272 -0.1986  0.1258
20012TIP3   OH281526   5.816   1.509  14.740  0.3543 -0.6168  0.0001
20012TIP3    H181527   5.889   1.450  14.718  1.0531  0.4857 -0.7045
20012TIP3    H281528   5.762   1.510  14.662 -1.4352 -2.8365  1.1346
20013TIP3   OH281529   1.308   6.702  12.337 -0.1260 -0.0113 -0.2794
20013TIP3    H181530   1.215   6.718  12.324 -0.2152 -0.0253  0.3479
20013TIP3    H281531   1.326   6.623  12.285 -0.7638 -0.8319  0.7337
20014TIP3   OH281532   5.360   1.352   5.569  0.5975  0.3055  0.0939
20014TIP3    H181533   5.412   1.424   5.532  0.8091 -0.4479 -1.0750
20014TIP3    H281534   5.404   1.273   5.538  0.9138 -0.3552  2.1189
20015TIP3   OH281535   5.768   6.379   1.093 -0.2824 -0.1056  0.4628
20015TIP3    H181536   5.757   6.357   1.001 -0.7396  1.9900 -0.0095
20015TIP3    H281537   5.792   6.471   1.093 -1.4500  0.2362  2.4907
20016TIP3   OH281538   0.817   0.822   3.895 -0.1049  0.5377 -0.6696
20016TIP3    H181539   0.884   0.786   3.837  2.1273  1.4193  1.2481
20016TIP3    H281540   0.788   0.748   3.948  1.2385  0.6575  0.2445
20017TIP3   OH281541   0.741   0.439  17.072 -0.2154  0.6506  0.0269
20017TIP3    H181542   0.658   0.461  17.030 -1.8888 -2.8224  1.3479
20017TIP3    H281543   0.801   0.420  17.000 -1.3784  0.4213 -0.8824
20018TIP3   OH281544   4.759   5.554  11.693  0.0852 -0.1084  0.3144
20018TIP3    H181545   4.779   5.474  11.645 -1.7306  0.7735 -2.0265
20018TIP3    H281546   4.664   5.560  11.691  0.1532  1.6990  1.1398
20019TIP3   OH281547   3.607   4.537  12.078  0.2672  0.5727 -0.5381
20019TIP3    H181548   3.659   4.542  12.158 -0.8947  0.1465  0.2547
20019TIP3    H281549   3.530   4.486  12.102  0.4120 -0.4734 -2.2064
20020TIP3   OH281550   0.962   0.408  16.877 -0.2877  0.5554 -0.2067
20020TIP3    H181551   0.958   0.408  16.781  0.7248  1.5637 -0.2662
20020TIP3    H281552   1.039   0.355  16.898  0.2683  1.4401 -0.0007
20021TIP3   OH281553   4.759   1.956   4.551 -1.1013 -0.0656  0.3037
20021TIP3    H181554   4.835   1.898   4.555 -1.0868 -0.1637 -1.2013
20021TIP3    H281555   4.683   1.897   4.548 -1.2396  0.0301  1.5756
20022TIP3   OH281556   6.486   6.086  14.031 -0.1187  0.0255 -0.1378
20022TIP3    H181557   6.403   6.097  13.985 -0.0048  2.1099  0.0965
20022TIP3    H281558   6.550   6.133  13.977  0.3872  0.7706  1.0627
20023TIP3   OH281559   4.112   5.804   2.243 -0.5791  0.3343  0.1840
20023TIP3    H181560   4.055   5.881   2.251 -1.0326  0.1305 -1.0172
20023TIP3    H281561   4.154   5.797   2.329 -0.8090  1.7047  0.4260
20024TIP3   OH281562   0.961   2.793  15.122  0.2850  0.3627 -0.0512
20024TIP3    H181563   0.908   2.870  15.142 -1.1446 -0.3528 -1.0351
20024TIP3    H281564   0.924   2.724  15.177  1.6621  0.3965  0.9417
20025TIP3   OH281565   2.325   1.125   3.615  0.3084  0.0998  0.3757
20025TIP3    H181566   2.284   1.187   3.555  2.8115  1.7823  0.3237
20025TIP3    H281567   2.338   1.046   3.564 -0.7545  0.3472 -0.2715
20026TIP3   OH281568   4.721   0.325  12.809 -0.0449  0.1262 -0.3972
20026TIP3    H181569   4.697   0.266  12.737  0.1345 -1.2646  0.6482
20026TIP3    H281570   4.671   0.293  12.884 -1.0329  2.2222 -0.1322
20027TIP3   OH281571   2.158   2.178  14.469 -0.1405 -0.3542 -0.1537
20027TIP3    H181572   2.135   2.254  14.416 -0.5918 -1.1338 -1.0846
20027TIP3    H281573   2.254   2.177  14.469 -0.1373 -0.1964 -0.7427
20028TIP3   OH281574   5.624   5.793  16.490  0.6530 -0.2303  0.1590
20028TIP3    H181575   5.638   5.828  16.403 -1.3332 -1.2360 -0.5869
20028TIP3    H281576   5.619   5.870  16.547  2.9325  0.3845 -0.4445
20029TIP3   OH281577   4.437   6.201  16.059  0.0918  0.0775 -0.0947
20029TIP3    H181578   4.349   6.227  16.083  0.7615  0.4238  2.0638
20029TIP3    H281579   4.469   6.272  16.003 -0.2420  1.0061  0.8735
20030TIP3   OH281580   6.436   1.074   3.444  0.6698  0.1023 -0.1305
20030TIP3    H181581   6.429   1.119   3.360 -1.1768 -1.8536 -1.1004
20030TIP3    H281582   6.370   1.004   3.439 -1.4601  1.6239  4.0152
20031TIP3   OH281583   4.214   2.363   5.442  0.3753 -0.0844 -0.3214
20031TIP3    H181584   4.149   2.365   5.512 -0.8925  1.5048 -1.4886
20031TIP3    H281585   4.296   2.388   5.484  0.0058 -0.9585  0.9433
20032TIP3   OH281586   2.510   3.721  15.240  0.0110  0.3581 -0.3925
20032TIP3    H181587   2.523   3.806  15.199 -1.2454  0.3313 -0.8655
20032TIP3    H281588   2.531   3.735  15.332 -1.2513  1.4657 -0.2537
20033TIP3   OH281589   4.229   6.794   2.466 -0.0837  0.3821 -0.0372
20033TIP3    H181590   4.177   6.769   2.542 -1.6480 -0.5125 -1.3918
20033TIP3    H281591   4.319   6.773   2.491 -0.7315 -1.1192  1.0777
20034TIP3   OH281592   4.162   2.573   1.640 -0.2836  0.1408  0.3648
20034TIP3    H181593   4.203   2.498   1.683  2.0238  2.3345  2.1687
20034TIP3    H281594   4.108   2.613   1.707 -0.1018  1.0833 -0.0441
20035TIP3   OH281595   1.230   1.044  15.622  0.3472  0.6139 -0.4898
20035TIP3    H181596   1.185   1.003  15.548 -0.8195 -0.7735  0.9420
20035TIP3    H281597   1.271   0.971  15.669 -1.6404  1.0376  2.0166
20036TIP3   OH281598   4.601   4.364  10.978  0.3485  0.1638 -0.3917
20036TIP3    H181599   4.634   4.451  10.956 -0.6556  0.6535 -0.0302
20036TIP3    H281600   4.553   4.377  11.060  2.1261 -1.1957  0.8797
20037TIP3   OH281601   4.783   5.794  15.689 -0.1955  0.2941  0.5843
20037TIP3    H181602   4.720   5.819  15.757 -1.9208 -1.1588 -0.4328
20037TIP3    H281603   4.840   5.730  15.732  0.9531  1.9836  1.6552
20038TIP3   OH281604   5.631   6.638  11.669  0.4033  0.0321  0.5266
20038TIP3    H181605   5.659   6.685  11.747 -1.5054  0.5914  0.8870
20038TIP3    H281606   5.540   6.614  11.686  0.1043 -0.2509 -1.3292
20039TIP3   OH281607   2.726   2.791  11.222 -0.2509  0.2484 -0.5881
20039TIP3    H181608   2.811   2.780  11.264  0.0323 -0.8137 -1.4089
20039TIP3    H281609   2.745   2.793  11.128 -0.9564  1.7735 -0.7171
20040TIP3   OH281610   3.362   2.265  14.715  0.5547  0.0558  0.7965
20040TIP3    H181611   3.393   2.192  14.661 -2.2961  1.0090 -2.2666
20040TIP3    H281612   3.428   2.333  14.702  0.6623 -0.2506 -0.3100
20041TIP3   OH281613   0.922   4.802  13.364  0.1920  0.1858 -0.3628
20041TIP3    H181614   0.913   4.745  13.288 -0.0690  0.7353 -0.7548
20041TIP3    H281615   0.871   4.759  13.433  1.9955 -1.2860  0.0733
20042TIP3   OH281616   3.061   5.670   3.704 -0.1459  0.0221 -0.6446
20042TIP3    H181617   3.013   5.601   3.659  0.3193 -2.3628  2.3505
20042TIP3    H281618   3.132   5.694   3.645 -0.2642 -2.1247 -1.6788
20043TIP3   OH281619   5.434   5.799  14.798 -0.5769 -0.1682 -0.1843
20043TIP3    H181620   5.411   5.824  14.888 -0.2972  1.3671 -0.5140
20043TIP3    H281621   5.350   5.775  14.758 -0.5014 -2.3556  0.9149
20044TIP3   OH281622   1.067   0.777  13.129  0.3484 -0.4976 -0.5339
20044TIP3    H181623   1.065   0.692  13.084  3.0933 -0.1070 -1.4734
20044TIP3    H281624   1.158   0.786  13.158 -0.7202  0.5805  2.6032
20045TIP3   OH281625   2.139   3.455   5.781  0.3606 -0.7508 -0.1324
20045TIP3    H181626   2.116   3.411   5.863 -1.4917 -3.8905 -2.2215
20045TIP3    H281627   2.231   3.431   5.767 -0.3117 -3.0934 -0.6802
20046TIP3   OH281628   6.338   2.997  13.240 -1.2218 -0.2757  0.3016
20046TIP3    H181629   6.306   3.032  13.156 -0.3913  2.0186  0.9005
20046TIP3    H281630   6.260   2.994  13.295 -1.0551  2.3447  0.7707
20047TIP3   OH281631   6.738   0.252   1.584  0.1308  0.2749 -0.2785
20047TIP3    H181632   6.643   0.259   1.576 -0.0574 -1.0773  0.5036
20047TIP3    H281633   6.772   0.326   1.535 -1.3415  1.0245 -0.1928
20048TIP3   OH281634   3.972   4.192   2.478 -0.4184 -0.1992  0.1641
20048TIP3    H181635   4.005   4.158   2.561 -1.4529  0.0779  0.6939
20048TIP3    H281636   3.926   4.273   2.501  0.6983  0.7695 -0.8901
20049TIP3   OH281637   1.865   2.122   0.788  0.0238  0.0675  0.1494
20049TIP3    H181638   1.879   2.039   0.742  1.1589 -0.1911  0.9372
20049TIP3    H281639   1.785   2.158   0.749  0.1770 -0.8293 -1.0194
20050TIP3   OH281640   6.784   3.017   0.997  0.5644 -0.7323 -0.4332
20050TIP3    H181641   6.872   3.037   1.031 -0.4088 -0.7466  2.2365
20050TIP3    H281642   6.787   2.924   0.975  1.6816 -0.3674 -1.8466
20051TIP3   OH281643   0.158   0.030  15.849 -0.3356 -0.1429  0.1488
20051TIP3    H181644   0.201   0.043  15.933 -0.1161 -0.7459  0.1325
20051TIP3    H281645   0.068   0.005  15.871  0.5793 -3.4713  0.2759
20052TIP3   OH281646   2.850   1.665  12.858  0.3685 -0.1798  0.8100
20052TIP3    H181647   2.784   1.671  12.928 -1.6118 -2.0650 -0.8484
20052TIP3    H281648   2.911   1.598  12.890 -0.1254 -0.5145  1.0748
20053TIP3   OH281649   2.814   3.339  12.985 -0.1846 -0.1585  0.0530
20053TIP3    H181650   2.792   3.305  13.072 -1.2470  1.0683  0.2775
20053TIP3    H281651   2.899   3.301  12.965  1.2291  1.4720  2.7098
20054TIP3   OH281652   1.489   4.543   6.581 -0.1803  0.1651 -0.3785
20054TIP3    H181653   1.521   4.633   6.594  0.9578 -0.3968  0.7558
20054TIP3    H281654   1.566   4.488   6.596 -1.2564 -1.1027  0.5425
20055TIP3   OH281655   6.659   2.426  14.161 -0.1266  0.8823 -0.4689
20055TIP3    H181656   6.577   2.466  14.129  0.0741  0.5445 -1.4231
20055TIP3    H281657   6.716   2.424  14.084 -0.9603 -3.4386 -1.0760
20056TIP3   OH281658   1.886   5.098  13.050  0.3755 -0.4438 -0.0415
20056TIP3    H181659   1.891   5.024  12.988  1.6380  0.1751 -0.7031
20056TIP3    H281660   1.960   5.084  13.109  0.6200  0.2894 -0.1703
20057TIP3   OH281661   1.977   3.450   4.752 -0.4247 -0.6512 -0.0910
20057TIP3    H181662   1.982   3.546   4.755 -0.6537 -0.6497  0.2966
20057TIP3    H281663   1.901   3.432   4.697  0.4983 -0.6260 -1.3918
20058TIP3   OH281664   5.337   1.803   4.994  0.2010  0.0595 -0.4395
20058TIP3    H181665   5.264   1.743   5.013  0.9840 -0.1003  2.3804
20058TIP3    H281666   5.393   1.754   4.934 -1.7896  0.0435 -2.3435
20059TIP3   OH281667   2.947   6.199   3.989 -0.4070  0.2638  0.0554
20059TIP3    H181668   3.007   6.147   4.043  1.7180  2.5826  0.0319
20059TIP3    H281669   2.945   6.153   3.905  1.3785  0.1530  0.0493
20060TIP3   OH281670   0.668   2.866   4.158 -0.0127 -0.1953 -0.5322
20060TIP3    H181671   0.699   2.957   4.163  0.3516 -0.3873  0.8330
20060TIP3    H281672   0.710   2.822   4.231 -2.0385 -0.9219  0.2255
20061TIP3   OH281673   2.271   1.980  14.187 -0.0835 -0.6130 -0.1266
20061TIP3    H181674   2.225   1.914  14.237 -0.5275 -1.3022 -1.4254
20061TIP3    H281675   2.203   2.028  14.140  0.3078  0.1278  0.0475
20062TIP3   OH281676   6.553   0.283  12.686  0.0708  1.0773 -0.2694
20062TIP3    H181677   6.553   0.285  12.782 -0.0980  0.4917 -0.2590
20062TIP3    H281678   6.567   0.375  12.661  0.2571  1.2121  0.3123
20063TIP3   OH281679   6.568   3.145   3.223 -0.3376 -0.2241 -0.1686
20063TIP3    H181680   6.576   3.051   3.239 -0.5619 -0.2439 -0.1731
20063TIP3    H281681   6.612   3.158   3.139  2.6674  0.2032  1.4078
20064TIP3   OH281682   2.363   6.417   5.172  0.2041 -0.1183  0.3476
20064TIP3    H181683   2.273   6.387   5.182 -0.7744  2.7474  0.5487
20064TIP3    H281684   2.407   6.390   5.252 -0.7042 -0.7205  0.6459
20065TIP3   OH281685   0.825   4.960  11.561 -0.1636  0.2743  0.8121
20065TIP3    H181686   0.907   4.986  11.520  0.2541 -2.0119  0.1483
20065TIP3    H281687   0.845   4.877  11.606 -2.2972 -0.7656 -0.0714
20066TIP3   OH281688   2.022   0.327   1.582  0.1444  0.1633 -0.0716
20066TIP3    H181689   2.056   0.395   1.523 -0.4567 -0.8237 -1.5519
20066TIP3    H281690   1.947   0.369   1.625  1.7192  1.5331  1.4360
20067TIP3   OH281691   0.937   0.318  16.627 -0.6773 -0.7704  0.7752
20067TIP3    H181692   0.867   0.253  16.629 -0.8125 -0.5932  3.0061
20067TIP3    H281693   1.002   0.281  16.567 -2.9804 -0.5544 -1.9745
20068TIP3   OH281694   2.887   2.811   1.778  0.3479  0.2592 -0.1585
20068TIP3    H181695   2.866   2.719   1.761 -0.6495  0.5699 -0.6317
20068TIP3    H281696   2.942   2.837   1.705  1.6075 -0.2793  0.5746
20069TIP3   OH281697   5.142   2.004   5.055  0.4589 -0.1479 -0.1666
20069TIP3    H181698   5.105   2.004   5.143  1.6805  0.8940  0.3547
20069TIP3    H281699   5.212   1.938   5.059 -0.6001 -1.3421 -0.8535
20070TIP3   OH281700   6.800   5.564  15.553  0.1129 -0.6521  0.1216
20070TIP3    H181701   6.890   5.539  15.533  0.4188  1.2067 -0.9960
20070TIP3    H281702   6.798   5.569  15.649  1.5580  0.4728  0.1166
20071TIP3   OH281703   6.051   5.497   4.451 -0.6865  0.1842  0.3484
20071TIP3    H181704   6.013   5.472   4.367  1.2373 -0.6421 -0.2997
20071TIP3    H281705   6.090   5.583   4.436  1.5215 -0.8740 -0.2395
20072TIP3   OH281706   4.317   5.852   3.754 -0.1426 -0.1282  0.7906
20072TIP3    H181707   4.357   5.919   3.808  0.2767 -0.0090  0.3342
20072TIP3    H281708   4.363   5.771   3.777 -0.4931 -0.2180  1.1751
20073TIP3   OH281709   0.400   0.135   1.111 -0.0492 -0.0721 -0.0140
20073TIP3    H181710   0.450   0.216   1.116  0.0768 -0.1843  0.6552
20073TIP3    H281711   0.465   0.069   1.085 -0.6497  0.4645 -3.0273
20074TIP3   OH281712   1.076   2.506  14.042 -0.1366  0.1566 -0.1596
20074TIP3    H181713   1.035   2.441  13.985  0.2135  0.3264 -0.6105
20074TIP3    H281714   1.020   2.509  14.119 -1.7987  1.4727 -1.3775
20075TIP3   OH281715   4.638   3.697   5.503  0.2033  0.4740 -0.2031
20075TIP3    H181716   4.560   3.738   5.540 -0.3233 -1.1252  0.5034
20075TIP3    H281717   4.640   3.727   5.412 -1.6912 -0.1104 -0.4611
20076TIP3   OH281718   0.264   0.627   5.949 -0.7313  0.0062 -0.7660
20076TIP3    H181719   0.307   0.671   6.023 -0.2270  2.2425 -2.3551
20076TIP3    H281720   0.190   0.683   5.927  0.8716  1.0263 -3.8787
20077TIP3   OH281721   4.720   2.922  10.629  0.2350 -0.3115 -0.0339
20077TIP3    H181722   4.800   2.873  10.645 -0.2621 -1.0389  0.2644
20077TIP3    H281723   4.660   2.894  10.698 -0.9087 -1.1984 -1.3407
20078TIP3   OH281724   5.281   1.501   3.235  0.1457  0.2425 -0.1197
20078TIP3    H181725   5.229   1.479   3.313 -0.1269  0.7924 -0.1415
20078TIP3    H281726   5.222   1.552   3.180 -0.4981 -2.3954 -1.9192
20079TIP3   OH281727   3.708   3.167  12.867  0.1223  0.1543 -0.0424
20079TIP3    H181728   3.767   3.162  12.942 -1.0070  0.3704  0.8726
20079TIP3    H281729   3.696   3.261  12.851 -1.4575  0.1576  0.9875
20080TIP3   OH281730   5.584   1.793   5.284  0.1465  0.3730  0.4575
20080TIP3    H181731   5.636   1.713   5.276  0.3456  0.4969  0.5189
20080TIP3    H281732   5.493   1.764   5.274  0.1123 -0.0802  1.9972
20081TIP3   OH281733   2.864   3.374  16.140  0.1477 -0.1856 -0.3936
20081TIP3    H181734   2.959   3.362  16.141  0.2697  0.5181 -1.8083
20081TIP3    H281735   2.833   3.317  16.071 -0.1786  1.3801 -1.5633
20082TIP3   OH281736   3.688   1.691   2.498 -0.4523 -0.0654  0.2111
20082TIP3    H181737   3.593   1.695   2.500 -0.4123  0.7886  0.5497
20082TIP3    H281738   3.714   1.756   2.433 -0.0584  0.5015  0.9245
20083TIP3   OH281739   4.446   3.105  16.742 -0.6546  0.0846 -0.3452
20083TIP3    H181740   4.506   3.030  16.736  0.3539  0.9185 -1.0524
20083TIP3    H281741   4.390   3.086  16.816  0.0924 -1.0247 -0.0548
20084TIP3   OH281742   2.453   4.182  15.606  0.2985 -0.1859  0.1211
20084TIP3    H181743   2.393   4.173  15.531 -0.2903 -3.8473  0.9251
20084TIP3    H281744   2.536   4.208  15.567 -0.4678 -0.2274 -1.6076
20085TIP3   OH281745   1.899   1.723   1.559  0.1075  0.3788 -0.7731
20085TIP3    H181746   1.983   1.692   1.593  0.5702  1.4827 -0.8737
20085TIP3    H281747   1.838   1.713   1.632  0.6674  0.9574 -0.2218
20086TIP3   OH281748   1.895   1.673   6.568 -0.0409  0.3278 -0.3187
20086TIP3    H181749   1.810   1.703   6.600 -0.2144  1.1131 -1.4869
20086TIP3    H281750   1.925   1.611   6.634 -0.1996  2.2061  1.5490
20087TIP3   OH281751   0.743   1.559   2.619 -0.6067 -0.1240 -0.1198
20087TIP3    H181752   0.791   1.513   2.688 -0.4225  0.2937  0.0296
20087TIP3    H281753   0.651   1.556   2.648 -0.4797  0.3906  0.3334
20088TIP3   OH281754   2.330   4.418   1.219 -0.1015  0.1684 -0.2286
20088TIP3    H181755   2.405   4.394   1.165  0.6844 -1.2286  1.4448
20088TIP3    H281756   2.283   4.336   1.234 -1.1145  0.7795  0.0074
20089TIP3   OH281757   3.715   4.739   2.617 -0.5245  0.3816 -0.1691
20089TIP3    H181758   3.733   4.833   2.617 -0.5562  0.3896  0.4635
20089TIP3    H281759   3.787   4.700   2.666 -0.2088  0.0132 -0.9159
20090TIP3   OH281760   2.329   4.101  13.450  0.7861  0.0692  0.2858
20090TIP3    H181761   2.256   4.068  13.398  0.2596 -0.3524  1.2686
20090TIP3    H281762   2.337   4.039  13.522  0.5210  1.4261  1.5276
20091TIP3   OH281763   5.813   6.496   2.319  0.3129  0.0055  0.5736
20091TIP3    H181764   5.780   6.425   2.264  1.0627  0.4125 -0.4069
20091TIP3    H281765   5.904   6.472   2.338  0.9853  1.3403 -0.8544
20092TIP3   OH281766   2.982   0.084  13.531 -0.0147  0.7910 -0.1585
20092TIP3    H181767   2.944   0.003  13.497  0.1989  0.4542  0.3931
20092TIP3    H281768   2.910   0.148  13.528 -0.8771 -0.0500  1.6374
20093TIP3   OH281769   2.744   2.469  12.240 -0.5511  0.3996 -0.0503
20093TIP3    H181770   2.694   2.471  12.159  1.0900  0.4204 -1.0725
20093TIP3    H281771   2.726   2.382  12.277 -3.5490  1.4294  1.0359
20094TIP3   OH281772   6.452   0.658   0.333 -0.2661  0.1085 -0.3706
20094TIP3    H181773   6.381   0.620   0.280  1.6117 -2.2378 -1.3129
20094TIP3    H281774   6.421   0.651   0.423 -1.1460 -1.1833 -0.7517
20095TIP3   OH281775   1.870   6.436   0.004  0.4908 -0.0628  0.0844
20095TIP3    H181776   1.965   6.441   0.009  0.5163 -1.2632  0.8620
20095TIP3    H281777   1.842   6.526  -0.014  1.7507  0.3225  0.0380
20096TIP3   OH281778   1.760   0.073   4.306 -0.1140 -0.4396 -0.1119
20096TIP3    H181779   1.787   0.164   4.289 -1.8690 -0.1495 -1.4450
20096TIP3    H281780   1.714   0.078   4.390 -0.8934  0.0691 -0.5547
20097TIP3   OH281781   0.287   1.434   1.264 -0.1019 -0.1706  0.6031
20097TIP3    H181782   0.329   1.513   1.296  1.5160 -0.1499 -1.4396
20097TIP3    H281783   0.205   1.465   1.224  0.3083  0.4265  0.2108
20098TIP3   OH281784   5.414   5.762   3.499 -0.6661 -0.1035  0.0763
20098TIP3    H181785   5.374   5.849   3.492 -0.9006 -0.0342  2.2077
20098TIP3    H281786   5.490   5.774   3.555  1.7274 -0.4974 -2.9466
20099TIP3   OH281787   6.108   0.287  15.004 -0.2623 -0.0625 -0.4455
20099TIP3    H181788   6.103   0.194  15.026 -1.1820  0.0297 -0.2410
20099TIP3    H281789   6.197   0.300  14.971 -0.2633 -1.0935 -0.8444
20100TIP3   OH281790   0.989   0.073   4.257  0.1033 -0.2421  0.1353
20100TIP3    H181791   0.989   0.164   4.228 -1.5443 -1.1084 -2.8096
20100TIP3    H281792   1.078   0.042   4.238  0.5216  0.6084  0.6925
20101TIP3   OH281793   1.314   3.672   1.155 -0.0706 -0.4047  0.2954
20101TIP3    H181794   1.245   3.690   1.219  1.1206 -0.6751  1.6919
20101TIP3    H281795   1.268   3.636   1.080 -1.6888  1.4538  0.3349
20102TIP3   OH281796   3.819   2.620   1.201 -0.3238 -0.0766 -0.8232
20102TIP3    H181797   3.868   2.627   1.282 -4.2736  1.9517  1.5646
20102TIP3    H281798   3.834   2.703   1.156  2.7726 -1.6449 -2.7987
20103TIP3   OH281799   2.887   0.196   1.944 -0.1162 -0.3989  0.5208
20103TIP3    H181800   2.967   0.248   1.938 -0.3314  0.1438  2.0148
20103TIP3    H281801   2.817   0.259   1.926 -0.2256 -0.7769 -0.3657
20104TIP3   OH281802   3.685   5.431   5.948  0.1102  0.5000  0.5486
20104TIP3    H181803   3.637   5.504   5.987  1.0094  0.2536  2.1238
20104TIP3    H281804   3.653   5.353   5.994 -0.1621 -0.0101 -0.4805
20105TIP3   OH281805   3.301   1.075  16.844 -0.2645  0.0513  0.3811
20105TIP3    H181806   3.218   1.029  16.847  0.4467 -1.1537  2.3008
20105TIP3    H281807   3.357   1.029  16.906  2.3247 -0.0820 -1.9467
20106TIP3   OH281808   1.155   6.208   1.997 -0.6846  0.4523 -0.3253
20106TIP3    H181809   1.100   6.134   1.971 -0.6234  0.7060 -1.1642
20106TIP3    H281810   1.146   6.211   2.093 -1.1068 -0.3066 -0.3325
20107TIP3   OH281811   0.492   1.516   2.896  0.0576  0.0088  0.2030
20107TIP3    H181812   0.499   1.437   2.949  0.4147 -0.5407 -0.6537
20107TIP3    H281813   0.537   1.583   2.948  1.3046 -0.7640  0.1371
20108TIP3   OH281814   3.424   2.825   5.620  0.2822  0.1030 -0.0174
20108TIP3    H181815   3.441   2.745   5.572 -0.3749 -0.6005  0.9025
20108TIP3    H281816   3.394   2.796   5.706  3.0455  1.2855  1.4484
20109TIP3   OH281817   6.535   3.335   4.961  0.4070 -0.4330 -0.1179
20109TIP3    H181818   6.547   3.430   4.972  0.0648 -0.6832  2.8784
20109TIP3    H281819   6.464   3.312   5.021  0.2072 -2.5339 -1.1096
20110TIP3   OH281820   2.284   2.356  13.987 -0.1321 -0.1834  0.1441
20110TIP3    H181821   2.379   2.357  13.997 -0.0078  0.7806 -1.0098
20110TIP3    H281822   2.270   2.334  13.895 -1.0143  0.4340  0.1222
20111TIP3   OH281823   5.228   6.293   0.109 -0.1896  0.1763  0.8770
20111TIP3    H181824   5.197   6.244   0.033 -0.3654  2.0576 -0.2994
20111TIP3    H281825   5.321   6.271   0.116 -0.3183 -0.4864  0.5163
20112TIP3   OH281826   2.740   1.793  15.154 -0.6236  0.1897 -0.5820
20112TIP3    H181827   2.797   1.716  15.161 -0.8818  0.0791  0.4253
20112TIP3    H281828   2.768   1.850  15.226 -1.9847  0.0028  0.1080
20113TIP3   OH281829   3.310   1.936  16.213  0.5761 -0.5013  0.2477
20113TIP3    H181830   3.298   1.979  16.298 -0.1367 -1.9587  0.8906
20113TIP3    H281831   3.367   1.861  16.232  0.5117 -0.7610 -0.5855
20114TIP3   OH281832   5.900   2.079   4.205 -0.6736 -0.2294  0.2925
20114TIP3    H181833   5.994   2.063   4.215 -0.1883  0.7570 -2.1017
20114TIP3    H281834   5.858   2.013   4.260  1.4116 -1.1009  0.9044
20115TIP3   OH281835   3.540   0.854   3.085 -0.2692 -0.1297  0.4249
20115TIP3    H181836   3.516   0.933   3.134  0.6365  0.6632 -0.4076
20115TIP3    H281837   3.562   0.885   2.998  0.2278 -1.2904  0.1262
20116TIP3   OH281838   0.988   6.333   4.735 -0.0027 -0.3074 -0.1911
20116TIP3    H181839   0.925   6.316   4.805  0.6293 -1.1022  0.1906
20116TIP3    H281840   0.933   6.349   4.658 -0.7734  3.0341  0.9583
20117TIP3   OH281841   1.519   6.463  14.810  0.1494  0.0456  0.0285
20117TIP3    H181842   1.611   6.474  14.786 -0.2050  1.7848 -0.6384
20117TIP3    H281843   1.521   6.416  14.893  1.6402  0.2145  0.1069
20118TIP3   OH281844   2.954   2.870   0.668  0.6190 -0.6085 -0.3450
20118TIP3    H181845   3.024   2.809   0.644  0.6939 -1.0186  0.8798
20118TIP3    H281846   2.936   2.851   0.760 -0.6406 -0.0433 -0.4595
20119TIP3   OH281847   4.067   5.548  12.000 -0.0478 -0.1285  0.4760
20119TIP3    H181848   4.127   5.488  11.956  2.1914  1.8035  0.7869
20119TIP3    H281849   4.115   5.575  12.079 -1.7139  0.7511  1.2022
20120TIP3   OH281850   2.925   1.271   2.461 -0.2670  0.2565 -0.0134
20120TIP3    H181851   3.006   1.283   2.411 -0.6547 -0.8476 -0.9391
20120TIP3    H281852   2.942   1.196   2.518 -0.4834  0.2840  0.0881
20121TIP3   OH281853   1.148   5.176   0.575 -0.2143 -0.1078 -0.0635
20121TIP3    H181854   1.080   5.128   0.621 -2.7850  0.4612 -3.1095
20121TIP3    H281855   1.141   5.148   0.484  2.8839  0.8315 -0.6751
20122TIP3   OH281856   2.856   0.743   0.270  0.2350  0.3736 -0.2738
20122TIP3    H181857   2.941   0.712   0.240  0.3315 -0.6807  1.0558
20122TIP3    H281858   2.828   0.804   0.202  1.9718  0.6092 -0.8027
20123TIP3   OH281859   3.727   4.898  10.821  0.1668  0.3719 -0.3572
20123TIP3    H181860   3.762   4.811  10.803 -2.4487 -1.1317  1.6239
20123TIP3    H281861   3.680   4.921  10.740 -0.7067 -0.8581 -0.2141
20124TIP3   OH281862   5.383   5.281  10.483 -0.1201  0.2517  0.0071
20124TIP3    H181863   5.439   5.352  10.451  1.5882 -1.0294  0.0560
20124TIP3    H281864   5.296   5.302  10.450  0.6778  1.5253 -1.3361
20125TIP3   OH281865   5.238   5.528  12.723  0.7446  0.1963 -0.1678
20125TIP3    H181866   5.173   5.460  12.742  1.2875 -0.2180  0.2362
20125TIP3    H281867   5.314   5.480  12.692  2.5136  0.2626  3.7181
20126TIP3   OH281868   1.113   6.250  14.200 -0.2742 -0.5067 -0.6621
20126TIP3    H181869   1.081   6.196  14.128 -1.2012 -1.1029  0.1812
20126TIP3    H281870   1.073   6.336  14.185 -0.3007 -0.5732 -0.9758
20127TIP3   OH281871   1.720   6.811  13.707 -0.1768 -0.3526 -0.1606
20127TIP3    H181872   1.625   6.818  13.697 -0.2237 -1.4516 -0.5115
20127TIP3    H281873   1.732   6.768  13.792  0.0342  0.6323  0.3202
20128TIP3   OH281874   3.673   3.001   5.201  0.0250  0.7453 -0.0503
20128TIP3    H181875   3.623   2.940   5.146 -0.6647  1.3113 -0.0622
20128TIP3    H281876   3.665   2.964   5.289  0.7213  0.1025 -0.2516
20129TIP3   OH281877   2.350   4.837   5.226 -0.0349 -0.0918  0.3393
20129TIP3    H181878   2.411   4.810   5.157  0.1951  0.5234  0.2961
20129TIP3    H281879   2.406   4.878   5.292 -0.3094 -0.2685  0.6779
20130TIP3   OH281880   6.193   4.116  13.947  0.2274  0.0940 -0.0990
20130TIP3    H181881   6.142   4.046  13.905  0.0116 -1.0385  2.0240
20130TIP3    H281882   6.151   4.130  14.031  3.5995 -1.0774  1.8523
20131TIP3   OH281883   0.183   5.842  11.193 -0.1979 -0.0348 -0.6185
20131TIP3    H181884   0.097   5.840  11.153 -0.4697 -0.7989 -0.0059
20131TIP3    H281885   0.211   5.933  11.185 -2.1444  0.8059  1.3881
20132TIP3   OH281886   0.713   1.775   1.991 -0.2994 -0.6064 -0.5772
20132TIP3    H181887   0.752   1.819   2.066 -1.9073  0.8726 -0.5617
20132TIP3    H281888   0.783   1.720   1.956  1.5789  1.5051 -0.2237
20133TIP3   OH281889   1.861   1.007  15.847  0.4514 -0.5076  0.0149
20133TIP3    H181890   1.817   0.924  15.829 -0.6443 -0.4987  2.3764
20133TIP3    H281891   1.942   0.981  15.892  1.2890 -0.3788 -1.3905
20134TIP3   OH281892   1.774   0.682  15.202 -0.0535 -0.1534 -0.0229
20134TIP3    H181893   1.845   0.620  15.192 -0.0415 -0.3501  1.1496
20134TIP3    H281894   1.696   0.635  15.173  0.3485  0.2243 -1.7661
20135TIP3   OH281895   6.049   2.623  13.920 -0.5004 -0.3361 -0.3418
20135TIP3    H181896   6.027   2.592  14.008 -1.1517 -3.4814 -1.5304
20135TIP3    H281897   6.144   2.618  13.915 -0.5244 -1.0889 -0.1158
20136TIP3   OH281898   3.366   3.111   5.877  0.6092  0.0911 -0.5276
20136TIP3    H181899   3.359   3.017   5.893  1.8915  0.0902  0.1105
20136TIP3    H281900   3.384   3.149   5.963 -0.0447  0.9434 -0.7578
20137TIP3   OH281901   4.728   5.662   0.109 -0.7123 -0.5571  0.4659
20137TIP3    H181902   4.688   5.690   0.027  2.4386  2.5247 -0.1218
20137TIP3    H281903   4.808   5.617   0.083 -0.4244 -0.8498  1.8089
20138TIP3   OH281904   1.007   6.634   1.292  0.1361  0.3440 -0.1244
20138TIP3    H181905   1.015   6.728   1.308 -1.1274  0.5739 -0.7702
20138TIP3    H281906   0.956   6.601   1.367 -0.7554  0.4430 -0.6779
20139TIP3   OH281907   0.484   3.436  16.149 -0.4590  0.4114 -0.5720
20139TIP3    H181908   0.463   3.529  16.160 -0.9331  0.2185  0.1807
20139TIP3    H281909   0.509   3.407  16.237 -1.1221 -0.3777 -0.6410
20140TIP3   OH281910   6.434   6.749   1.985  0.0503  0.4710 -0.1850
20140TIP3    H181911   6.504   6.754   2.051 -1.0055 -2.4182  1.2068
20140TIP3    H281912   6.479   6.768   1.903  1.8227  1.9520  1.0559
20141TIP3   OH281913   2.743   1.267   1.014  0.0169 -0.0899 -0.8647
20141TIP3    H181914   2.687   1.251   1.089  1.3683 -0.0210  0.1865
20141TIP3    H281915   2.683   1.283   0.942 -1.3013 -0.1006  0.2123
20142TIP3   OH281916   0.718   0.548  12.717 -0.3309  0.3313 -0.3323
20142TIP3    H181917   0.632   0.583  12.737 -0.8233 -0.1085 -1.6057
20142TIP3    H281918   0.779   0.615  12.747 -1.0612  0.1185  1.6729
20143TIP3   OH281919   6.041   4.638   2.670  0.1009  0.3794 -0.3405
20143TIP3    H181920   6.044   4.578   2.596  0.1619 -0.0161 -0.0190
20143TIP3    H281921   5.949   4.663   2.677  0.0076 -0.0025 -0.2127
20144TIP3   OH281922   4.842   5.709   3.622 -0.1050  0.3858  0.0324
20144TIP3    H181923   4.937   5.704   3.609 -0.2931  1.9530 -2.2352
20144TIP3    H281924   4.831   5.710   3.717  2.2427  1.4915  0.3318
20145TIP3   OH281925   5.627   5.477  15.375 -0.2086  0.0311 -0.4304
20145TIP3    H181926   5.606   5.481  15.282 -1.2284  0.2692 -0.2057
20145TIP3    H281927   5.543   5.496  15.419  0.6180  1.6774  0.5147
20146TIP3   OH281928   0.039   1.204   2.504 -0.2036  0.2044 -0.1034
20146TIP3    H181929  -0.052   1.173   2.500  0.1545 -0.8165 -0.6036
20146TIP3    H281930   0.046   1.246   2.590 -1.2882  0.7370 -0.2749
20147TIP3   OH281931   1.613   4.634  11.766  0.9226  0.4565  0.1950
20147TIP3    H181932   1.667   4.698  11.719 -0.0199  1.1903  0.0989
20147TIP3    H281933   1.523   4.665  11.754  0.6384  0.4515  2.1769
20148TIP3   OH281934   3.682   1.677  12.276  0.5597 -0.4600 -0.5442
20148TIP3    H181935   3.662   1.616  12.206 -1.1898  0.2895 -0.7138
20148TIP3    H281936   3.728   1.749  12.233 -0.9908  0.2555 -1.0220
20149TIP3   OH281937   1.590   3.662   3.003  0.0844 -0.4919  0.3622
20149TIP3    H181938   1.536   3.583   3.005 -0.0187 -0.4931 -1.7083
20149TIP3    H281939   1.625   3.665   2.914  0.9147  1.2525  0.7296
20150TIP3   OH281940   1.863   0.881  15.022  0.7360  0.0510  0.6518
20150TIP3    H181941   1.851   0.804  15.078  0.3875 -1.4315 -1.4093
20150TIP3    H281942   1.862   0.955  15.083  1.3730 -1.5816  2.7030
20151TIP3   OH281943   6.112   2.049  12.271  0.1909 -0.4881  0.3899
20151TIP3    H181944   6.108   2.145  12.280 -0.3786 -0.4773  0.0999
20151TIP3    H281945   6.200   2.032  12.238  0.5175 -0.1186  1.0541
20152TIP3   OH281946   1.682   3.962   3.417  0.4946  0.0767 -0.1807
20152TIP3    H181947   1.599   3.926   3.386  0.5697  0.1743 -0.4972
20152TIP3    H281948   1.697   4.038   3.361  0.4749  0.4326  0.3052
20153TIP3   OH281949   3.324   4.103  14.529  0.1257  0.8202 -0.2219
20153TIP3    H181950   3.233   4.101  14.558  0.3839 -0.7981  0.5378
20153TIP3    H281951   3.375   4.102  14.611  0.8282 -0.2035 -0.6607
20154TIP3   OH281952   0.387   1.333   4.523 -0.2352  0.0193 -0.0007
20154TIP3    H181953   0.340   1.403   4.476  0.4313  0.1975 -0.4039
20154TIP3    H281954   0.478   1.363   4.527 -0.2569 -0.0518  1.3035
20155TIP3   OH281955   3.378   2.131  16.497  0.7851  0.2167 -0.7430
20155TIP3    H181956   3.399   2.224  16.509  2.0871 -0.2985  1.1498
20155TIP3    H281957   3.287   2.131  16.467  0.4415  2.0621  0.2124
20156TIP3   OH281958   6.184   6.076   2.211 -0.0487  0.6977  0.2008
20156TIP3    H181959   6.229   6.142   2.158 -0.7824  1.4953  0.5526
20156TIP3    H281960   6.120   6.038   2.151 -2.0881  2.8187  0.9301
20157TIP3   OH281961   6.408   2.426   0.281 -0.3074 -0.0061 -0.2660
20157TIP3    H181962   6.328   2.475   0.261 -0.5601 -0.8785 -1.4610
20157TIP3    H281963   6.405   2.412   0.375 -1.8266 -0.4732 -0.3699
20158TIP3   OH281964   1.743   4.340   4.988  0.1481 -0.1840 -0.5215
20158TIP3    H181965   1.838   4.352   4.987 -0.1124  2.0178 -0.8638
20158TIP3    H281966   1.729   4.267   5.048  1.8406  1.5585  2.1179
20159TIP3   OH281967   6.280   5.515  15.449 -0.1674 -0.6976 -0.3335
20159TIP3    H181968   6.372   5.541  15.442  0.4436 -2.1542  1.7777
20159TIP3    H281969   6.275   5.432  15.402  0.3042 -2.1341  2.0537
20160TIP3   OH281970   5.238   6.117  15.259  0.1220  0.0021 -0.1814
20160TIP3    H181971   5.245   6.212  15.259  0.6391 -0.0302  0.8579
20160TIP3    H281972   5.319   6.087  15.301 -0.1189 -0.8907 -0.3390
20161TIP3   OH281973   4.560   0.245   1.610  0.6155 -0.1311  0.4615
20161TIP3    H181974   4.494   0.314   1.612  0.7684  0.0343 -0.1873
20161TIP3    H281975   4.516   0.168   1.646  0.4706  0.3255  1.2750
20162TIP3   OH281976   3.512   2.485   0.624 -0.5176  0.2161 -0.0937
20162TIP3    H181977   3.480   2.575   0.621  0.1974  0.7530  4.5940
20162TIP3    H281978   3.450   2.440   0.682 -0.1824 -2.0196 -1.4208
20163TIP3   OH281979   2.626   2.141  15.484 -0.2094  0.1426 -0.3147
20163TIP3    H181980   2.530   2.148  15.477 -0.4531 -1.9784  0.5736
20163TIP3    H281981   2.659   2.217  15.436 -2.2934 -0.4061 -2.7407
20164TIP3   OH281982   3.654   1.197  10.792 -0.0341  0.3053 -0.1347
20164TIP3    H181983   3.622   1.131  10.853 -0.8466  0.8336  0.0079
20164TIP3    H281984   3.641   1.281  10.837 -1.3191  0.7618 -1.3175
20165TIP3   OH281985   6.126   3.569   0.656  0.2158  0.3312  0.3706
20165TIP3    H181986   6.139   3.640   0.719  1.8783 -0.7507  1.2751
20165TIP3    H281987   6.194   3.505   0.677 -0.6003 -1.0636 -1.1044
20166TIP3   OH281988   6.341   5.319  14.721 -0.7734 -0.4556  0.0262
20166TIP3    H181989   6.357   5.382  14.791 -1.1149 -0.3120 -0.0255
20166TIP3    H281990   6.258   5.277  14.744  1.1390 -3.3747  1.9065
20167TIP3   OH281991   6.550   1.287   1.530  0.3767 -0.0211  0.7433
20167TIP3    H181992   6.632   1.313   1.487  0.5808 -2.1035 -0.1671
20167TIP3    H281993   6.528   1.362   1.585  1.5558  1.5847 -0.9068
20168TIP3   OH281994   6.045   3.960   4.626  0.1298 -0.2082  0.0506
20168TIP3    H181995   5.995   4.004   4.694  2.4926  1.8893  0.4929
20168TIP3    H281996   6.064   4.028   4.562  1.3984 -1.2326 -0.6988
20169TIP3   OH281997   4.790   4.351  15.570 -0.7169  0.1961  0.5654
20169TIP3    H181998   4.715   4.411  15.572  0.3064  1.4701  0.9168
20169TIP3    H281999   4.864   4.403  15.601  0.3454 -1.0336  0.1454
20170TIP3   OH282000   2.455   2.180   5.179 -0.3290  0.4990 -0.6711
20170TIP3    H182001   2.475   2.273   5.166 -1.3555  0.6841 -0.9256
20170TIP3    H282002   2.363   2.178   5.205 -0.1770 -0.4089 -0.1821
20171TIP3   OH282003   4.779   5.193  16.791  0.0123 -0.3196  0.0942
20171TIP3    H182004   4.688   5.176  16.767  0.7270 -2.7046 -1.0573
20171TIP3    H282005   4.778   5.199  16.887 -1.3739 -0.2115  0.0726
20172TIP3   OH282006   2.694   4.932  14.062  1.2114 -0.3100  0.2559
20172TIP3    H182007   2.632   5.004  14.072 -0.2013 -1.5175  0.3303
20172TIP3    H282008   2.639   4.856  14.044  2.5586 -1.7942  2.2921
20173TIP3   OH282009   1.558   1.168  14.947  0.4431  0.4157 -0.1463
20173TIP3    H182010   1.523   1.114  15.017  1.9139  0.3351  0.5395
20173TIP3    H282011   1.609   1.108  14.893  0.0781  0.6550 -0.7608
20174TIP3   OH282012   2.747   6.058  15.333 -0.0650 -0.0618 -0.2179
20174TIP3    H182013   2.662   6.051  15.289  0.5482 -1.3332 -1.2395
20174TIP3    H282014   2.810   6.067  15.261  0.6597  1.0212  0.5340
20175TIP3   OH282015   2.093   0.087   1.083  0.1150  0.0861 -0.1773
20175TIP3    H182016   2.182   0.067   1.113  0.8221 -0.1726 -2.3482
20175TIP3    H282017   2.061   0.153   1.146  0.8520 -1.6887  2.1284
20176TIP3   OH282018   1.116   3.169  15.797  0.6196  0.0801 -0.0120
20176TIP3    H182019   1.103   3.174  15.703  0.2443 -1.7855 -0.0832
20176TIP3    H282020   1.054   3.231  15.834  0.8841  0.9323 -0.9952
20177TIP3   OH282021   4.858   5.966   2.621  0.1938 -0.4399 -0.6579
20177TIP3    H182022   4.821   6.054   2.626  0.5461 -0.2855 -0.7616
20177TIP3    H282023   4.795   5.911   2.668  0.1281 -0.0817 -0.3225
20178TIP3   OH282024   0.007   2.467  13.595 -0.6679  0.4462 -0.2550
20178TIP3    H182025  -0.037   2.396  13.642 -1.2532  0.8520 -0.1941
20178TIP3    H282026  -0.039   2.472  13.511  1.0563 -1.0053 -1.3331
20179TIP3   OH282027   5.691   2.442   2.544  0.1299  0.0925 -0.3428
20179TIP3    H182028   5.708   2.535   2.555 -0.5669  0.1902 -0.0486
20179TIP3    H282029   5.625   2.422   2.611  2.2225 -1.1710  1.4533
20180TIP3   OH282030   2.691   1.153  17.190  0.1539 -0.3320  0.4693
20180TIP3    H182031   2.619   1.216  17.183  0.0731 -0.4205  0.4959
20180TIP3    H282032   2.765   1.204  17.224  0.0567 -0.2759  0.6001
20181TIP3   OH282033   2.925   5.280  15.718  0.3078  0.1104 -0.4366
20181TIP3    H182034   2.867   5.319  15.784  0.6198  1.0249 -0.6971
20181TIP3    H282035   2.969   5.208  15.764  1.0319  1.1693  0.5530
20182TIP3   OH282036   2.688   2.824   0.455  0.1694 -0.1013 -0.1952
20182TIP3    H182037   2.746   2.886   0.410 -0.3046 -0.3308 -1.1448
20182TIP3    H282038   2.613   2.816   0.396 -1.1180  0.6585  1.3061
20183TIP3   OH282039   6.197   2.912  13.737 -0.2008 -0.2796 -0.5575
20183TIP3    H182040   6.159   2.982  13.790 -1.0486 -1.0118 -0.1718
20183TIP3    H282041   6.285   2.942  13.716 -0.0683  0.2829  0.7725
20184TIP3   OH282042   6.639   2.367   0.465 -0.2408  0.3351 -0.2204
20184TIP3    H182043   6.664   2.338   0.553 -1.2634  0.0875 -0.0060
20184TIP3    H282044   6.642   2.288   0.412  0.7371  0.5500 -0.5015
20185TIP3   OH282045   4.714   0.559  14.832 -0.1296  0.8572 -0.1609
20185TIP3    H182046   4.736   0.652  14.833 -0.6348  0.9870  1.6669
20185TIP3    H282047   4.705   0.537  14.739  1.6449  2.2180 -0.6894
20186TIP3   OH282048   2.844   4.185   5.979 -0.5743 -0.7317 -0.1597
20186TIP3    H182049   2.905   4.111   5.987 -0.4178 -0.5432  0.4526
20186TIP3    H282050   2.867   4.242   6.053 -1.5465 -0.6986  0.1172
20187TIP3   OH282051   0.992   3.184   2.961 -0.1108 -0.4235 -0.5577
20187TIP3    H182052   1.004   3.131   3.040  0.6103 -0.1231 -0.4664
20187TIP3    H282053   0.903   3.220   2.970 -0.1202 -0.5829 -0.0008
20188TIP3   OH282054   1.993   4.123  16.153 -0.4259  0.1995 -0.2292
20188TIP3    H182055   1.965   4.036  16.183 -1.3650  0.3089 -0.7496
20188TIP3    H282056   1.922   4.152  16.095  0.3908  0.8582 -0.9172
20189TIP3   OH282057   1.474   3.804  15.646  0.1868  0.3743 -0.0788
20189TIP3    H182058   1.438   3.758  15.721  0.3097 -2.6758 -1.8111
20189TIP3    H282059   1.399   3.818  15.588  0.4635  0.7880 -0.3428
20190TIP3   OH282060   4.156   3.556  11.143 -0.1012  0.1052 -0.4378
20190TIP3    H182061   4.178   3.640  11.184  2.3998  0.2234 -1.9376
20190TIP3    H282062   4.094   3.579  11.074  2.2548  1.0820 -2.3074
20191TIP3   OH282063   6.358   2.631   4.651  0.0869  0.5770 -0.2430
20191TIP3    H182064   6.393   2.704   4.702 -0.1806 -0.0538  0.8510
20191TIP3    H282065   6.300   2.585   4.711  1.5490 -1.5225 -0.3595
20192TIP3   OH282066   4.676   5.267   2.341 -0.0593 -0.2797  0.5583
20192TIP3    H182067   4.766   5.240   2.326  0.1934 -1.4927  3.7896
20192TIP3    H282068   4.629   5.185   2.360 -1.6319  0.4568 -0.0125
20193TIP3   OH282069   0.774   4.931  11.185  0.2469 -0.2654  0.0166
20193TIP3    H182070   0.736   4.844  11.170  0.3236 -0.4210  0.7217
20193TIP3    H282071   0.816   4.954  11.102 -2.1105  0.2671 -1.0705
20194TIP3   OH282072   1.680   1.131   4.191 -0.2144  0.1216  0.6127
20194TIP3    H182073   1.745   1.196   4.165 -0.1533  0.5722  1.8359
20194TIP3    H282074   1.611   1.183   4.234 -2.2685 -0.1242 -2.2557
20195TIP3   OH282075   0.068   5.389   4.509 -0.2817  0.5320  0.0430
20195TIP3    H182076   0.019   5.443   4.447 -1.3469 -0.0282  0.3913
20195TIP3    H282077   0.160   5.411   4.493 -0.4848 -0.2693 -2.3379
20196TIP3   OH282078   3.704   4.980  13.341 -0.1997  0.2295 -0.0671
20196TIP3    H182079   3.641   5.040  13.382  1.7811  2.2205  0.1568
20196TIP3    H282080   3.743   5.031  13.271  1.3794 -0.8708 -0.0102
20197TIP3   OH282081   6.513   5.660   4.329  0.0827  0.1525  0.1636
20197TIP3    H182082   6.483   5.622   4.247  0.0248  0.9658 -0.1905
20197TIP3    H282083   6.604   5.631   4.336  0.3575  0.8018 -0.6224
20198TIP3   OH282084   0.465   6.718   5.083  0.0320 -0.3638 -0.0796
20198TIP3    H182085   0.472   6.675   5.168 -0.7466 -0.2709  0.0376
20198TIP3    H282086   0.413   6.658   5.030  2.1566 -1.3384 -1.1179
20199TIP3   OH282087   0.922   1.777   2.768  0.0567 -0.3385  0.5289
20199TIP3    H182088   0.888   1.837   2.834 -0.4500  0.1476 -0.1676
20199TIP3    H282089   0.973   1.713   2.818 -0.5651 -0.1491  1.4251
20200TIP3   OH282090   2.006   5.293  17.264  0.2223 -0.5593  0.2579
20200TIP3    H182091   1.992   5.200  17.279 -0.3727 -0.4657  0.2946
20200TIP3    H282092   1.918   5.330  17.259  0.4343  0.4021  2.6959
20201TIP3   OH282093   5.011   1.498  10.939 -0.3484 -0.2818  0.0245
20201TIP3    H182094   5.072   1.492  10.865 -1.0155 -0.9870 -0.4717
20201TIP3    H282095   4.929   1.528  10.900 -0.8645 -1.2185  0.3876
20202TIP3   OH282096   1.438   2.508   2.373 -0.4900  0.8056 -0.2608
20202TIP3    H182097   1.438   2.595   2.412  3.2543  0.6043  0.4540
20202TIP3    H282098   1.424   2.448   2.447  0.9260  0.6645 -0.0928
20203TIP3   OH282099   5.075   4.641  14.080  0.3596 -0.2398  0.8092
20203TIP3    H182100   5.057   4.734  14.075  0.4102 -0.2510  0.3864
20203TIP3    H282101   5.110   4.619  13.993 -1.3243 -1.0109  0.3120
20204TIP3   OH282102   3.374   4.456  14.145  0.1656  0.3688  0.5048
20204TIP3    H182103   3.363   4.480  14.053  0.9902 -0.3826  0.2001
20204TIP3    H282104   3.395   4.538  14.189  1.7997  0.4127 -0.3250
20205TIP3   OH282105   0.486   5.069   0.460 -0.3479 -0.2928 -0.1420
20205TIP3    H182106   0.393   5.050   0.475 -0.8955  1.7738 -0.7666
20205TIP3    H282107   0.495   5.068   0.365  0.3842 -1.0129 -0.0625
20206TIP3   OH282108   0.513   0.946   2.394 -0.3032 -0.4639 -0.1651
20206TIP3    H182109   0.434   0.896   2.413 -1.3111  1.0008 -0.3742
20206TIP3    H282110   0.511   1.018   2.458  1.3001 -0.8803  0.3722
20207TIP3   OH282111   6.530   1.328   1.175 -0.1538  0.0185  0.8188
20207TIP3    H182112   6.570   1.245   1.149 -0.9329 -0.0163 -0.3032
20207TIP3    H282113   6.559   1.390   1.108  0.4334  0.6625  1.6566
20208TIP3   OH282114   2.757   3.113   4.044  0.2406  0.0862 -0.0479
20208TIP3    H182115   2.708   3.190   4.072 -0.4644 -0.7814  1.1696
20208TIP3    H282116   2.777   3.066   4.125  3.4391  0.5851 -0.4774
20209TIP3   OH282117   3.294   1.843   2.035  0.2963 -0.8662  0.0856
20209TIP3    H182118   3.266   1.849   2.126 -0.8193 -0.7430 -0.2612
20209TIP3    H282119   3.279   1.751   2.011  0.7602 -0.9434  0.0748
20210TIP3   OH282120   4.627   0.292  10.503  0.2229  0.1879 -0.3112
20210TIP3    H182121   4.531   0.292  10.514  0.1947 -0.7797 -0.4570
20210TIP3    H282122   4.651   0.199  10.509  1.0773  0.3638 -0.9532
20211TIP3   OH282123   6.584   1.347  13.814 -0.0428  0.1702  0.7147
20211TIP3    H182124   6.500   1.337  13.859 -0.8679  0.2315 -0.7863
20211TIP3    H282125   6.563   1.337  13.721  1.8263 -1.1893  0.4020
20212TIP3   OH282126   3.484   1.867  12.349  0.2125  0.1461  0.0235
20212TIP3    H182127   3.536   1.909  12.418 -0.0530  0.4457  0.0419
20212TIP3    H282128   3.547   1.811  12.303  0.7960  1.2753 -0.5969
20213TIP3   OH282129   6.472   2.636   2.343 -0.5199  0.5184  0.4586
20213TIP3    H182130   6.439   2.624   2.432  0.7874  0.0027  0.8841
20213TIP3    H282131   6.424   2.573   2.290 -0.8260  0.3635  0.9237
20214TIP3   OH282132   6.737   0.841  15.592 -0.5124  0.6314 -0.2522
20214TIP3    H182133   6.710   0.830  15.501 -0.6521 -2.4616  0.1131
20214TIP3    H282134   6.832   0.847  15.589 -0.5027  0.2800 -0.5710
20215TIP3   OH282135   0.781   1.025  12.311  0.2774  0.4284  0.0075
20215TIP3    H182136   0.714   1.003  12.247 -0.4619  0.3096  0.8112
20215TIP3    H282137   0.782   1.120  12.314  0.0290  0.4273  0.1163
20216TIP3   OH282138   5.009   1.535  15.120  0.2986  0.0775 -0.8105
20216TIP3    H182139   5.082   1.497  15.071  0.5008  0.4018 -0.7557
20216TIP3    H282140   5.036   1.529  15.211 -0.1880 -0.7635 -0.7088
20217TIP3   OH282141   6.589   1.670  16.720  0.0713 -0.3842  0.5710
20217TIP3    H182142   6.648   1.601  16.749  1.1655  0.5813  0.7083
20217TIP3    H282143   6.523   1.677  16.789  1.1675  0.1442  1.5657
20218TIP3   OH282144   5.407   1.384  12.445 -0.4331  0.2497 -0.3379
20218TIP3    H182145   5.482   1.410  12.392  1.3891 -3.0382  0.5115
20218TIP3    H282146   5.335   1.378  12.382  0.3598  1.8525 -1.4418
20219TIP3   OH282147   3.767   0.627  13.072  0.0683  0.3444 -0.8474
20219TIP3    H182148   3.766   0.606  12.978 -1.6436 -0.6387 -0.6397
20219TIP3    H282149   3.842   0.580  13.106  0.7502  0.7645 -1.7349
20220TIP3   OH282150   4.358   3.359  16.064 -0.4920  0.3969 -0.3267
20220TIP3    H182151   4.321   3.438  16.105 -0.3286  0.7412 -0.8450
20220TIP3    H282152   4.362   3.380  15.971 -0.1836 -0.1209 -0.4296
20221TIP3   OH282153   4.035   5.160   4.726 -0.3266 -0.1263  0.2347
20221TIP3    H182154   4.054   5.148   4.633 -1.3693 -1.5435  0.1915
20221TIP3    H282155   3.950   5.120   4.738 -0.6102  0.8667  1.6321
20222TIP3   OH282156   6.632   2.386   2.592 -0.2559 -0.6801 -0.3145
20222TIP3    H182157   6.566   2.361   2.657  0.6034 -1.4589  0.2770
20222TIP3    H282158   6.604   2.343   2.512  0.2799 -2.2021  0.2816
20223TIP3   OH282159   0.789   2.437   0.684  0.1250 -0.2918 -0.0697
20223TIP3    H182160   0.853   2.431   0.613  0.3651 -0.9402  0.2046
20223TIP3    H282161   0.723   2.372   0.662 -0.0181 -0.1970  0.0843
20224TIP3   OH282162   2.508   3.817   2.682 -0.3376  0.2223 -0.4355
20224TIP3    H182163   2.569   3.787   2.749 -1.4477 -0.2231  0.3853
20224TIP3    H282164   2.434   3.853   2.731 -0.5493  1.1534 -1.4210
20225TIP3   OH282165   4.344   5.820   1.344 -0.1552 -0.6880 -0.2889
20225TIP3    H182166   4.362   5.887   1.410  0.7496 -0.8412 -0.3692
20225TIP3    H282167   4.332   5.739   1.394 -0.4955 -0.6134 -0.2457
20226TIP3   OH282168   6.171   1.297  11.625  0.2396 -0.0697  0.0875
20226TIP3    H182169   6.173   1.240  11.702  1.1797 -0.4179 -0.1851
20226TIP3    H282170   6.078   1.312  11.609 -0.0180 -1.5119  0.1844
20227TIP3   OH282171   2.081   1.022  16.186  0.1902 -0.3433  0.2748
20227TIP3    H182172   1.997   1.012  16.230  0.8921 -1.1241  1.4681
20227TIP3    H282173   2.070   0.975  16.103 -0.0747 -1.7613  1.0879
20228TIP3   OH282174   6.273   0.886   1.467  0.3805 -0.0891 -0.1217
20228TIP3    H182175   6.324   0.823   1.416  0.4134 -0.4615  0.3689
20228TIP3    H282176   6.181   0.862   1.450  0.3035  1.6201 -2.3313
20229TIP3   OH282177   2.628   3.981  17.082 -0.2167 -0.1183  0.4908
20229TIP3    H182178   2.623   3.959  16.989  0.1217 -2.1671  0.9417
20229TIP3    H282179   2.714   4.022  17.093  0.7403 -2.0260  0.3155
20230TIP3   OH282180   2.752   3.279   5.734  0.2577 -0.4089 -0.0031
20230TIP3    H182181   2.686   3.258   5.667  2.4086  0.4587 -2.4605
20230TIP3    H282182   2.781   3.194   5.766  0.1769 -0.8583 -1.1217
20231TIP3   OH282183   3.196   2.951   5.520  0.1273 -0.3987  0.0672
20231TIP3    H182184   3.125   2.893   5.492 -0.1786  0.2049 -0.4458
20231TIP3    H282185   3.268   2.893   5.543  0.0520 -0.9535 -1.0792
20232TIP3   OH282186   3.891   5.173  10.513 -0.8326  0.0029  0.5049
20232TIP3    H182187   3.833   5.155  10.439 -0.5079 -0.8336  0.4522
20232TIP3    H282188   3.937   5.253  10.489 -0.1002 -0.7273 -0.5879
20233TIP3   OH282189   6.552   1.845   3.969 -0.1915  0.2507  0.0327
20233TIP3    H182190   6.510   1.906   3.909 -0.2720 -0.3903 -0.5639
20233TIP3    H282191   6.491   1.773   3.977  0.7032 -0.6061 -0.7042
20234TIP3   OH282192   4.110   0.546   5.203  0.0830  0.1674 -0.0492
20234TIP3    H182193   4.055   0.595   5.265  1.0734  1.4445 -0.1672
20234TIP3    H282194   4.063   0.552   5.120  0.6464  1.7114 -0.2714
20235LIG      S82195   2.976   3.741  16.687 -0.2590 -0.4845 -0.6330
20235LIG     F182196   4.015   3.272  16.034  0.4192 -0.5363 -0.5055
20235LIG     F282197   3.894   3.264  15.859 -0.4664  0.1999  0.1561
20235LIG      O82198   3.805   3.101  16.108 -0.3817 -0.4714  0.1398
20235LIG     N182199   3.007   3.471  16.504 -0.3437  0.4454 -0.3675
20235LIG     N282200   3.293   2.852  16.567  0.0774  0.2453 -0.4284
20235LIG     N382201   3.093   2.794  16.592 -0.1563 -0.4120  0.0111
20235LIG     N482202   3.214   2.744  16.577  1.4627 -0.0186 -0.2232
20235LIG     N582203   3.796   2.891  16.037  0.2248 -0.3470  0.5204
20235LIG     N682204   3.876   2.956  15.958 -0.2569  0.3775 -0.4780
20235LIG     C182205   3.070   3.482  16.637  0.8780 -0.8213 -0.0031
20235LIG     C282206   2.986   3.599  16.439 -0.7755  0.2778  0.2894
20235LIG     C382207   2.876   3.398  16.514  0.4749  0.3509  0.1457
20235LIG     C482208   2.989   3.561  16.740 -0.6573  0.0455 -0.4660
20235LIG     C582209   2.900   3.696  16.527 -0.3715 -0.1083  0.3708
20235LIG     C682210   2.877   3.251  16.559 -0.2299 -0.3089 -0.0850
20235LIG     C782211   2.990   3.165  16.557  0.9102  0.6285 -0.7729
20235LIG     C882212   2.759   3.199  16.613  0.4330  0.3836  0.8851
20235LIG     C982213   2.982   3.031  16.603 -0.2084  0.1770 -0.2875
20235LIG    C1082214   3.095   2.936  16.589 -0.1106 -0.6092  0.0142
20235LIG    C1182215   2.746   3.064  16.657 -0.6317 -0.3521  0.0308
20235LIG    C1282216   2.855   2.977  16.646 -0.7508 -0.1045 -0.8886
20235LIG    C1382217   3.436   2.837  16.584  0.8149  0.4088 -0.6624
20235LIG    C1482218   3.221   2.968  16.563  0.7893 -0.2827 -1.1216
20235LIG    C1582219   3.518   2.879  16.471 -0.1445 -0.7466 -0.8851
20235LIG    C1682220   3.518   2.808  16.356 -0.2199 -0.0119 -0.5275
20235LIG    C1782221   3.605   2.994  16.477 -0.6959  0.2082 -0.1188
20235LIG    C1882222   3.668   2.955  16.242 -0.4934  0.2782 -0.4234
20235LIG    C1982223   3.596   2.836  16.247  0.1299  0.0831 -0.6598
20235LIG    C2082224   3.676   3.034  16.355 -0.2744  0.3802 -0.6597
20235LIG    C2182225   3.755   2.979  16.127  0.3649 -0.3621 -0.0231
20235LIG    C2282226   3.884   3.076  16.001  1.2351 -0.3208  0.4067
20235LIG    C2382227   3.966   3.183  15.945  0.1844 -0.0668  0.0689
20235LIG     H182228   3.170   3.529  16.626 -0.7096  2.4492 -0.7513
20235LIG     H282229   3.087   3.378  16.674  0.3702 -1.2689 -1.0117
20235LIG     H382230   2.932   3.605  16.342  0.9758 -1.9283 -0.8726
20235LIG     H482231   3.088   3.641  16.421 -0.2316 -0.6275  1.2007
20235LIG     H582232   2.831   3.394  16.412  0.8822  0.9968 -0.0592
20235LIG     H682233   2.802   3.452  16.577  0.2429  1.2602 -0.8763
20235LIG     H782234   2.883   3.530  16.753 -0.9321  0.3653 -1.8405
20235LIG     H882235   3.044   3.541  16.834 -0.0271  0.9777 -0.6369
20235LIG     H982236   2.890   3.791  16.471  0.9371  0.1479  0.5574
20235LIG    H1082237   2.803   3.644  16.543 -0.3710  0.1640  1.2706
20235LIG    H1182238   3.081   3.204  16.514  1.0157 -0.1840 -1.2910
20235LIG    H1282239   2.666   3.253  16.618 -0.8849 -1.7605  0.1926
20235LIG    H1382240   2.854   2.875  16.680 -0.7466 -0.5065 -2.0425
20235LIG    H1482241   2.647   3.026  16.675 -0.6596 -0.6496 -0.7193
20235LIG    H1582242   3.463   2.730  16.599 -1.1083 -0.5192 -3.5362
20235LIG    H1682243   3.469   2.895  16.674  0.4041 -0.1608 -0.1389
20235LIG    H1782244   3.264   3.067  16.561 -2.3227  1.1304 -0.0765
20235LIG    H1882245   3.452   2.724  16.345 -0.2966  0.1160 -1.0615
20235LIG    H1982246   3.604   3.057  16.564 -0.4558 -1.8267  1.4018
20235LIG    H2082247   3.584   2.773  16.160 -1.4243 -2.1635  1.1291
20235LIG    H2182248   3.739   3.120  16.369 -0.1596  0.1429  0.3050
20235LIG    H2282249   4.049   3.143  15.888  0.2301 -0.5276  0.4587
   6.82013   6.82013  17.29240
